MODEL 1
REMARK VINA RESULT:      -4.2      0.000      0.000
REMARK  2 active torsions:
REMARK  status: ('A' for Active; 'I' for Inactive)
REMARK    1  A    between atoms: C3_3  and  O1_8 
REMARK    2  A    between atoms: C6_6  and  N1_7 
ROOT
HETATM    1  C1  UNL     1       5.569   0.619 -11.716  1.00  0.00     0.026 A 
HETATM    2  C2  UNL     1       6.440  -0.047 -12.581  1.00  0.00     0.038 A 
HETATM    3  C3  UNL     1       7.811   0.087 -12.414  1.00  0.00     0.065 A 
HETATM    4  C4  UNL     1       8.325   0.865 -11.383  1.00  0.00     0.038 A 
HETATM    5  C5  UNL     1       7.447   1.529 -10.522  1.00  0.00     0.026 A 
HETATM    6  C6  UNL     1       6.064   1.454 -10.710  1.00  0.00     0.005 A 
ENDROOT
BRANCH   6   7
HETATM    7  N1  UNL     1       5.193   2.023  -9.774  1.00  0.00    -0.303 NA
HETATM    8  H5  UNL     1       5.655   2.628  -9.102  1.00  0.00     0.124 HD
HETATM    9  H6  UNL     1       4.573   1.354  -9.330  1.00  0.00     0.124 HD
ENDBRANCH   6   7
BRANCH   3  10
HETATM   10  O1  UNL     1       8.627  -0.580 -13.277  1.00  0.00    -0.361 OA
HETATM   11  H7  UNL     1       9.479  -0.736 -12.839  1.00  0.00     0.217 HD
ENDBRANCH   3  10
TORSDOF 2
ENDMDL
MODEL 2
REMARK VINA RESULT:      -4.2      0.070      1.705
REMARK  2 active torsions:
REMARK  status: ('A' for Active; 'I' for Inactive)
REMARK    1  A    between atoms: C3_3  and  O1_8 
REMARK    2  A    between atoms: C6_6  and  N1_7 
ROOT
HETATM    1  C1  UNL     1       7.442   1.492 -10.485  1.00  0.00     0.026 A 
HETATM    2  C2  UNL     1       8.311   0.852 -11.372  1.00  0.00     0.038 A 
HETATM    3  C3  UNL     1       7.796   0.088 -12.409  1.00  0.00     0.065 A 
HETATM    4  C4  UNL     1       6.422  -0.032 -12.585  1.00  0.00     0.038 A 
HETATM    5  C5  UNL     1       5.558   0.610 -11.693  1.00  0.00     0.026 A 
HETATM    6  C6  UNL     1       6.058   1.335 -10.607  1.00  0.00     0.005 A 
ENDROOT
BRANCH   6   7
HETATM    7  N1  UNL     1       5.191   2.071  -9.791  1.00  0.00    -0.303 NA
HETATM    8  H5  UNL     1       4.327   2.339 -10.252  1.00  0.00     0.124 HD
HETATM    9  H6  UNL     1       5.635   2.852  -9.319  1.00  0.00     0.124 HD
ENDBRANCH   6   7
BRANCH   3  10
HETATM   10  O1  UNL     1       8.677  -0.518 -13.254  1.00  0.00    -0.361 OA
HETATM   11  H7  UNL     1       9.534  -0.595 -12.806  1.00  0.00     0.217 HD
ENDBRANCH   3  10
TORSDOF 2
ENDMDL
MODEL 3
REMARK VINA RESULT:      -4.1      2.779      3.682
REMARK  2 active torsions:
REMARK  status: ('A' for Active; 'I' for Inactive)
REMARK    1  A    between atoms: C3_3  and  O1_8 
REMARK    2  A    between atoms: C6_6  and  N1_7 
ROOT
HETATM    1  C1  UNL     1       8.201   0.834 -11.412  1.00  0.00     0.026 A 
HETATM    2  C2  UNL     1       7.350   1.508 -10.533  1.00  0.00     0.038 A 
HETATM    3  C3  UNL     1       5.976   1.415 -10.698  1.00  0.00     0.065 A 
HETATM    4  C4  UNL     1       5.437   0.644 -11.723  1.00  0.00     0.038 A 
HETATM    5  C5  UNL     1       6.294  -0.026 -12.600  1.00  0.00     0.026 A 
HETATM    6  C6  UNL     1       7.682   0.103 -12.485  1.00  0.00     0.005 A 
ENDROOT
BRANCH   6   7
HETATM    7  N1  UNL     1       8.530  -0.665 -13.291  1.00  0.00    -0.303 NA
HETATM    8  H5  UNL     1       8.066  -1.446 -13.743  1.00  0.00     0.124 HD
HETATM    9  H6  UNL     1       9.393  -0.940 -12.834  1.00  0.00     0.124 HD
ENDBRANCH   6   7
BRANCH   3  10
HETATM   10  O1  UNL     1       5.180   2.085  -9.818  1.00  0.00    -0.361 OA
HETATM   11  H7  UNL     1       4.254   1.857 -10.002  1.00  0.00     0.217 HD
ENDBRANCH   3  10
TORSDOF 2
ENDMDL
MODEL 4
REMARK VINA RESULT:      -4.1      2.797      3.278
REMARK  2 active torsions:
REMARK  status: ('A' for Active; 'I' for Inactive)
REMARK    1  A    between atoms: C3_3  and  O1_8 
REMARK    2  A    between atoms: C6_6  and  N1_7 
ROOT
HETATM    1  C1  UNL     1       6.270  -0.242 -12.765  1.00  0.00     0.026 A 
HETATM    2  C2  UNL     1       5.492   0.520 -11.890  1.00  0.00     0.038 A 
HETATM    3  C3  UNL     1       6.110   1.319 -10.939  1.00  0.00     0.065 A 
HETATM    4  C4  UNL     1       7.497   1.381 -10.860  1.00  0.00     0.038 A 
HETATM    5  C5  UNL     1       8.269   0.615 -11.738  1.00  0.00     0.026 A 
HETATM    6  C6  UNL     1       7.665  -0.241 -12.664  1.00  0.00     0.005 A 
ENDROOT
BRANCH   6   7
HETATM    7  N1  UNL     1       8.441  -0.911 -13.616  1.00  0.00    -0.303 NA
HETATM    8  H5  UNL     1       9.245  -1.391 -13.222  1.00  0.00     0.124 HD
HETATM    9  H6  UNL     1       8.686  -0.343 -14.420  1.00  0.00     0.124 HD
ENDBRANCH   6   7
BRANCH   3  10
HETATM   10  O1  UNL     1       5.317   2.049 -10.106  1.00  0.00    -0.361 OA
HETATM   11  H7  UNL     1       5.562   1.847  -9.189  1.00  0.00     0.217 HD
ENDBRANCH   3  10
TORSDOF 2
ENDMDL
MODEL 5
REMARK VINA RESULT:      -3.9      1.914      2.545
REMARK  2 active torsions:
REMARK  status: ('A' for Active; 'I' for Inactive)
REMARK    1  A    between atoms: C3_3  and  O1_8 
REMARK    2  A    between atoms: C6_6  and  N1_7 
ROOT
HETATM    1  C1  UNL     1       8.799   0.585 -11.906  1.00  0.00     0.026 A 
HETATM    2  C2  UNL     1       7.855  -0.204 -12.568  1.00  0.00     0.038 A 
HETATM    3  C3  UNL     1       6.526  -0.165 -12.170  1.00  0.00     0.065 A 
HETATM    4  C4  UNL     1       6.123   0.665 -11.129  1.00  0.00     0.038 A 
HETATM    5  C5  UNL     1       7.073   1.450 -10.471  1.00  0.00     0.026 A 
HETATM    6  C6  UNL     1       8.426   1.380 -10.818  1.00  0.00     0.005 A 
ENDROOT
BRANCH   6   7
HETATM    7  N1  UNL     1       9.350   2.256 -10.236  1.00  0.00    -0.303 NA
HETATM    8  H5  UNL     1      10.124   2.498 -10.846  1.00  0.00     0.124 HD
HETATM    9  H6  UNL     1       9.661   1.970  -9.313  1.00  0.00     0.124 HD
ENDBRANCH   6   7
BRANCH   3  10
HETATM   10  O1  UNL     1       5.635  -0.946 -12.842  1.00  0.00    -0.361 OA
HETATM   11  H7  UNL     1       6.107  -1.421 -13.545  1.00  0.00     0.217 HD
ENDBRANCH   3  10
TORSDOF 2
ENDMDL
MODEL 6
REMARK VINA RESULT:      -3.8      2.702      3.188
REMARK  2 active torsions:
REMARK  status: ('A' for Active; 'I' for Inactive)
REMARK    1  A    between atoms: C3_3  and  O1_8 
REMARK    2  A    between atoms: C6_6  and  N1_7 
ROOT
HETATM    1  C1  UNL     1       5.721   0.799 -11.590  1.00  0.00     0.026 A 
HETATM    2  C2  UNL     1       5.687   1.246 -10.267  1.00  0.00     0.038 A 
HETATM    3  C3  UNL     1       6.874   1.419  -9.569  1.00  0.00     0.065 A 
HETATM    4  C4  UNL     1       8.098   1.167 -10.180  1.00  0.00     0.038 A 
HETATM    5  C5  UNL     1       8.123   0.719 -11.504  1.00  0.00     0.026 A 
HETATM    6  C6  UNL     1       6.936   0.482 -12.204  1.00  0.00     0.005 A 
ENDROOT
BRANCH   6   7
HETATM    7  N1  UNL     1       6.974   0.148 -13.563  1.00  0.00    -0.303 NA
HETATM    8  H5  UNL     1       7.233   0.923 -14.166  1.00  0.00     0.124 HD
HETATM    9  H6  UNL     1       6.144  -0.335 -13.890  1.00  0.00     0.124 HD
ENDBRANCH   6   7
BRANCH   3  10
HETATM   10  O1  UNL     1       6.800   1.860  -8.282  1.00  0.00    -0.361 OA
HETATM   11  H7  UNL     1       6.032   2.448  -8.200  1.00  0.00     0.217 HD
ENDBRANCH   3  10
TORSDOF 2
ENDMDL
MODEL 7
REMARK VINA RESULT:      -3.8      2.233      2.887
REMARK  2 active torsions:
REMARK  status: ('A' for Active; 'I' for Inactive)
REMARK    1  A    between atoms: C3_3  and  O1_8 
REMARK    2  A    between atoms: C6_6  and  N1_7 
ROOT
HETATM    1  C1  UNL     1       8.011  -0.061 -12.467  1.00  0.00     0.026 A 
HETATM    2  C2  UNL     1       8.923   0.764 -11.805  1.00  0.00     0.038 A 
HETATM    3  C3  UNL     1       8.502   1.526 -10.725  1.00  0.00     0.065 A 
HETATM    4  C4  UNL     1       7.184   1.464 -10.285  1.00  0.00     0.038 A 
HETATM    5  C5  UNL     1       6.277   0.638 -10.954  1.00  0.00     0.026 A 
HETATM    6  C6  UNL     1       6.668  -0.093 -12.081  1.00  0.00     0.005 A 
ENDROOT
BRANCH   6   7
HETATM    7  N1  UNL     1       5.786  -1.007 -12.669  1.00  0.00    -0.303 NA
HETATM    8  H5  UNL     1       6.208  -1.908 -12.872  1.00  0.00     0.124 HD
HETATM    9  H6  UNL     1       5.275  -0.632 -13.461  1.00  0.00     0.124 HD
ENDBRANCH   6   7
BRANCH   3  10
HETATM   10  O1  UNL     1       9.423   2.316 -10.103  1.00  0.00    -0.361 OA
HETATM   11  H7  UNL     1      10.223   1.791  -9.942  1.00  0.00     0.217 HD
ENDBRANCH   3  10
TORSDOF 2
ENDMDL
MODEL 8
REMARK VINA RESULT:      -3.7      1.112      1.282
REMARK  2 active torsions:
REMARK  status: ('A' for Active; 'I' for Inactive)
REMARK    1  A    between atoms: C3_3  and  O1_8 
REMARK    2  A    between atoms: C6_6  and  N1_7 
ROOT
HETATM    1  C1  UNL     1       5.696   1.037 -10.493  1.00  0.00     0.026 A 
HETATM    2  C2  UNL     1       5.800   0.591 -11.813  1.00  0.00     0.038 A 
HETATM    3  C3  UNL     1       7.053   0.436 -12.390  1.00  0.00     0.065 A 
HETATM    4  C4  UNL     1       8.206   0.705 -11.660  1.00  0.00     0.038 A 
HETATM    5  C5  UNL     1       8.094   1.152 -10.340  1.00  0.00     0.026 A 
HETATM    6  C6  UNL     1       6.839   1.370  -9.761  1.00  0.00     0.005 A 
ENDROOT
BRANCH   6   7
HETATM    7  N1  UNL     1       6.737   1.702  -8.406  1.00  0.00    -0.303 NA
HETATM    8  H5  UNL     1       7.577   2.128  -8.026  1.00  0.00     0.124 HD
HETATM    9  H6  UNL     1       6.389   0.948  -7.824  1.00  0.00     0.124 HD
ENDBRANCH   6   7
BRANCH   3  10
HETATM   10  O1  UNL     1       7.113  -0.004 -13.678  1.00  0.00    -0.361 OA
HETATM   11  H7  UNL     1       6.210  -0.053 -14.031  1.00  0.00     0.217 HD
ENDBRANCH   3  10
TORSDOF 2
ENDMDL
