MODEL 1
REMARK VINA RESULT:      -4.3      0.000      0.000
REMARK  2 active torsions:
REMARK  status: ('A' for Active; 'I' for Inactive)
REMARK    1  A    between atoms: C3_3  and  O1_8 
REMARK    2  A    between atoms: C6_6  and  N1_7 
ROOT
HETATM    1  C1  UNL     1       6.726   3.367  -9.970  1.00  0.00     0.026 A 
HETATM    2  C2  UNL     1       7.596   2.320 -10.283  1.00  0.00     0.038 A 
HETATM    3  C3  UNL     1       8.893   2.601 -10.688  1.00  0.00     0.065 A 
HETATM    4  C4  UNL     1       9.340   3.916 -10.769  1.00  0.00     0.038 A 
HETATM    5  C5  UNL     1       8.464   4.958 -10.456  1.00  0.00     0.026 A 
HETATM    6  C6  UNL     1       7.136   4.698 -10.102  1.00  0.00     0.005 A 
ENDROOT
BRANCH   6   7
HETATM    7  N1  UNL     1       6.303   5.738  -9.676  1.00  0.00    -0.303 NA
HETATM    8  H5  UNL     1       5.366   5.696 -10.065  1.00  0.00     0.124 HD
HETATM    9  H6  UNL     1       6.717   6.659  -9.767  1.00  0.00     0.124 HD
ENDBRANCH   6   7
BRANCH   3  10
HETATM   10  O1  UNL     1       9.712   1.552 -10.982  1.00  0.00    -0.361 OA
HETATM   11  H7  UNL     1       9.792   1.483 -11.946  1.00  0.00     0.217 HD
ENDBRANCH   3  10
TORSDOF 2
ENDMDL
MODEL 2
REMARK VINA RESULT:      -4.3      0.131      1.706
REMARK  2 active torsions:
REMARK  status: ('A' for Active; 'I' for Inactive)
REMARK    1  A    between atoms: C3_3  and  O1_8 
REMARK    2  A    between atoms: C6_6  and  N1_7 
ROOT
HETATM    1  C1  UNL     1       8.475   4.893 -10.269  1.00  0.00     0.026 A 
HETATM    2  C2  UNL     1       9.332   3.846 -10.615  1.00  0.00     0.038 A 
HETATM    3  C3  UNL     1       8.854   2.544 -10.633  1.00  0.00     0.065 A 
HETATM    4  C4  UNL     1       7.525   2.273 -10.326  1.00  0.00     0.038 A 
HETATM    5  C5  UNL     1       6.674   3.327  -9.979  1.00  0.00     0.026 A 
HETATM    6  C6  UNL     1       7.152   4.638  -9.898  1.00  0.00     0.005 A 
ENDROOT
BRANCH   6   7
HETATM    7  N1  UNL     1       6.267   5.698  -9.668  1.00  0.00    -0.303 NA
HETATM    8  H5  UNL     1       5.373   5.407  -9.283  1.00  0.00     0.124 HD
HETATM    9  H6  UNL     1       6.161   6.324 -10.459  1.00  0.00     0.124 HD
ENDBRANCH   6   7
BRANCH   3  10
HETATM   10  O1  UNL     1       9.720   1.550 -10.978  1.00  0.00    -0.361 OA
HETATM   11  H7  UNL     1       9.358   0.703 -10.672  1.00  0.00     0.217 HD
ENDBRANCH   3  10
TORSDOF 2
ENDMDL
MODEL 3
REMARK VINA RESULT:      -4.3      2.783      3.267
REMARK  2 active torsions:
REMARK  status: ('A' for Active; 'I' for Inactive)
REMARK    1  A    between atoms: C3_3  and  O1_8 
REMARK    2  A    between atoms: C6_6  and  N1_7 
ROOT
HETATM    1  C1  UNL     1       7.598   2.380 -10.335  1.00  0.00     0.026 A 
HETATM    2  C2  UNL     1       6.738   3.442 -10.048  1.00  0.00     0.038 A 
HETATM    3  C3  UNL     1       7.171   4.748 -10.230  1.00  0.00     0.065 A 
HETATM    4  C4  UNL     1       8.450   5.008 -10.712  1.00  0.00     0.038 A 
HETATM    5  C5  UNL     1       9.306   3.941 -10.996  1.00  0.00     0.026 A 
HETATM    6  C6  UNL     1       8.908   2.620 -10.764  1.00  0.00     0.005 A 
ENDROOT
BRANCH   6   7
HETATM    7  N1  UNL     1       9.725   1.557 -11.163  1.00  0.00    -0.303 NA
HETATM    8  H5  UNL     1       9.662   1.343 -12.153  1.00  0.00     0.124 HD
HETATM    9  H6  UNL     1       9.635   0.730 -10.582  1.00  0.00     0.124 HD
ENDBRANCH   6   7
BRANCH   3  10
HETATM   10  O1  UNL     1       6.301   5.756  -9.941  1.00  0.00    -0.361 OA
HETATM   11  H7  UNL     1       6.182   5.795  -8.978  1.00  0.00     0.217 HD
ENDBRANCH   3  10
TORSDOF 2
ENDMDL
MODEL 4
REMARK VINA RESULT:      -4.3      2.797      3.689
REMARK  2 active torsions:
REMARK  status: ('A' for Active; 'I' for Inactive)
REMARK    1  A    between atoms: C3_3  and  O1_8 
REMARK    2  A    between atoms: C6_6  and  N1_7 
ROOT
HETATM    1  C1  UNL     1       9.241   3.836 -11.261  1.00  0.00     0.026 A 
HETATM    2  C2  UNL     1       8.379   4.891 -10.951  1.00  0.00     0.038 A 
HETATM    3  C3  UNL     1       7.157   4.626 -10.349  1.00  0.00     0.065 A 
HETATM    4  C4  UNL     1       6.789   3.321 -10.037  1.00  0.00     0.038 A 
HETATM    5  C5  UNL     1       7.657   2.271 -10.352  1.00  0.00     0.026 A 
HETATM    6  C6  UNL     1       8.866   2.513 -11.012  1.00  0.00     0.005 A 
ENDROOT
BRANCH   6   7
HETATM    7  N1  UNL     1       9.778   1.471 -11.215  1.00  0.00    -0.303 NA
HETATM    8  H5  UNL     1      10.351   1.266 -10.401  1.00  0.00     0.124 HD
HETATM    9  H6  UNL     1      10.330   1.568 -12.061  1.00  0.00     0.124 HD
ENDBRANCH   6   7
BRANCH   3  10
HETATM   10  O1  UNL     1       6.345   5.682 -10.060  1.00  0.00    -0.361 OA
HETATM   11  H7  UNL     1       6.249   6.226 -10.858  1.00  0.00     0.217 HD
ENDBRANCH   3  10
TORSDOF 2
ENDMDL
MODEL 5
REMARK VINA RESULT:      -4.2      2.966      3.583
REMARK  2 active torsions:
REMARK  status: ('A' for Active; 'I' for Inactive)
REMARK    1  A    between atoms: C3_3  and  O1_8 
REMARK    2  A    between atoms: C6_6  and  N1_7 
ROOT
HETATM    1  C1  UNL     1       7.626   0.872 -10.046  1.00  0.00     0.026 A 
HETATM    2  C2  UNL     1       6.400   1.167  -9.444  1.00  0.00     0.038 A 
HETATM    3  C3  UNL     1       5.983   2.487  -9.343  1.00  0.00     0.065 A 
HETATM    4  C4  UNL     1       6.767   3.517  -9.851  1.00  0.00     0.038 A 
HETATM    5  C5  UNL     1       7.993   3.215 -10.451  1.00  0.00     0.026 A 
HETATM    6  C6  UNL     1       8.457   1.896 -10.509  1.00  0.00     0.005 A 
ENDROOT
BRANCH   6   7
HETATM    7  N1  UNL     1       9.626   1.591 -11.216  1.00  0.00    -0.303 NA
HETATM    8  H5  UNL     1      10.476   1.870 -10.737  1.00  0.00     0.124 HD
HETATM    9  H6  UNL     1       9.611   1.894 -12.184  1.00  0.00     0.124 HD
ENDBRANCH   6   7
BRANCH   3  10
HETATM   10  O1  UNL     1       4.781   2.733  -8.752  1.00  0.00    -0.361 OA
HETATM   11  H7  UNL     1       4.885   2.648  -7.791  1.00  0.00     0.217 HD
ENDBRANCH   3  10
TORSDOF 2
ENDMDL
MODEL 6
REMARK VINA RESULT:      -4.2      2.018      2.571
REMARK  2 active torsions:
REMARK  status: ('A' for Active; 'I' for Inactive)
REMARK    1  A    between atoms: C3_3  and  O1_8 
REMARK    2  A    between atoms: C6_6  and  N1_7 
ROOT
HETATM    1  C1  UNL     1       8.508   5.792 -11.036  1.00  0.00     0.026 A 
HETATM    2  C2  UNL     1       8.884   4.689 -10.265  1.00  0.00     0.038 A 
HETATM    3  C3  UNL     1       9.012   3.444 -10.863  1.00  0.00     0.065 A 
HETATM    4  C4  UNL     1       8.785   3.286 -12.226  1.00  0.00     0.038 A 
HETATM    5  C5  UNL     1       8.407   4.393 -12.991  1.00  0.00     0.026 A 
HETATM    6  C6  UNL     1       8.216   5.644 -12.396  1.00  0.00     0.005 A 
ENDROOT
BRANCH   6   7
HETATM    7  N1  UNL     1       7.955   6.769 -13.187  1.00  0.00    -0.303 NA
HETATM    8  H5  UNL     1       7.271   6.602 -13.919  1.00  0.00     0.124 HD
HETATM    9  H6  UNL     1       8.790   7.228 -13.535  1.00  0.00     0.124 HD
ENDBRANCH   6   7
BRANCH   3  10
HETATM   10  O1  UNL     1       9.384   2.394 -10.078  1.00  0.00    -0.361 OA
HETATM   11  H7  UNL     1       9.644   1.655 -10.651  1.00  0.00     0.217 HD
ENDBRANCH   3  10
TORSDOF 2
ENDMDL
MODEL 7
REMARK VINA RESULT:      -4.2      1.662      2.588
REMARK  2 active torsions:
REMARK  status: ('A' for Active; 'I' for Inactive)
REMARK    1  A    between atoms: C3_3  and  O1_8 
REMARK    2  A    between atoms: C6_6  and  N1_7 
ROOT
HETATM    1  C1  UNL     1       6.710   3.483  -9.855  1.00  0.00     0.026 A 
HETATM    2  C2  UNL     1       7.937   3.209 -10.462  1.00  0.00     0.038 A 
HETATM    3  C3  UNL     1       8.449   1.920 -10.429  1.00  0.00     0.065 A 
HETATM    4  C4  UNL     1       7.742   0.894  -9.811  1.00  0.00     0.038 A 
HETATM    5  C5  UNL     1       6.515   1.176  -9.204  1.00  0.00     0.026 A 
HETATM    6  C6  UNL     1       6.011   2.480  -9.176  1.00  0.00     0.005 A 
ENDROOT
BRANCH   6   7
HETATM    7  N1  UNL     1       4.729   2.730  -8.673  1.00  0.00    -0.303 NA
HETATM    8  H5  UNL     1       4.526   3.717  -8.546  1.00  0.00     0.124 HD
HETATM    9  H6  UNL     1       4.495   2.179  -7.854  1.00  0.00     0.124 HD
ENDBRANCH   6   7
BRANCH   3  10
HETATM   10  O1  UNL     1       9.648   1.693 -11.034  1.00  0.00    -0.361 OA
HETATM   11  H7  UNL     1      10.048   0.900 -10.642  1.00  0.00     0.217 HD
ENDBRANCH   3  10
TORSDOF 2
ENDMDL
MODEL 8
REMARK VINA RESULT:      -4.2      3.002      3.557
REMARK  2 active torsions:
REMARK  status: ('A' for Active; 'I' for Inactive)
REMARK    1  A    between atoms: C3_3  and  O1_8 
REMARK    2  A    between atoms: C6_6  and  N1_7 
ROOT
HETATM    1  C1  UNL     1       8.690   3.323 -12.292  1.00  0.00     0.026 A 
HETATM    2  C2  UNL     1       8.342   4.458 -13.028  1.00  0.00     0.038 A 
HETATM    3  C3  UNL     1       8.212   5.681 -12.386  1.00  0.00     0.065 A 
HETATM    4  C4  UNL     1       8.440   5.790 -11.019  1.00  0.00     0.038 A 
HETATM    5  C5  UNL     1       8.786   4.650 -10.288  1.00  0.00     0.026 A 
HETATM    6  C6  UNL     1       8.865   3.398 -10.907  1.00  0.00     0.005 A 
ENDROOT
BRANCH   6   7
HETATM    7  N1  UNL     1       9.328   2.287 -10.193  1.00  0.00    -0.303 NA
HETATM    8  H5  UNL     1       9.486   2.472  -9.207  1.00  0.00     0.124 HD
HETATM    9  H6  UNL     1      10.115   1.818 -10.628  1.00  0.00     0.124 HD
ENDBRANCH   6   7
BRANCH   3  10
HETATM   10  O1  UNL     1       7.874   6.765 -13.139  1.00  0.00    -0.361 OA
HETATM   11  H7  UNL     1       7.972   6.533 -14.077  1.00  0.00     0.217 HD
ENDBRANCH   3  10
TORSDOF 2
ENDMDL
MODEL 9
REMARK VINA RESULT:      -3.9      2.928      3.474
REMARK  2 active torsions:
REMARK  status: ('A' for Active; 'I' for Inactive)
REMARK    1  A    between atoms: C3_3  and  O1_8 
REMARK    2  A    between atoms: C6_6  and  N1_7 
ROOT
HETATM    1  C1  UNL     1       6.474   3.894  -9.256  1.00  0.00     0.026 A 
HETATM    2  C2  UNL     1       6.486   5.084  -8.525  1.00  0.00     0.038 A 
HETATM    3  C3  UNL     1       7.418   6.067  -8.827  1.00  0.00     0.065 A 
HETATM    4  C4  UNL     1       8.330   5.884  -9.860  1.00  0.00     0.038 A 
HETATM    5  C5  UNL     1       8.314   4.690 -10.586  1.00  0.00     0.026 A 
HETATM    6  C6  UNL     1       7.421   3.664 -10.259  1.00  0.00     0.005 A 
ENDROOT
BRANCH   6   7
HETATM    7  N1  UNL     1       7.332   2.523 -11.065  1.00  0.00    -0.303 NA
HETATM    8  H5  UNL     1       6.708   1.812 -10.697  1.00  0.00     0.124 HD
HETATM    9  H6  UNL     1       8.231   2.144 -11.340  1.00  0.00     0.124 HD
ENDBRANCH   6   7
BRANCH   3  10
HETATM   10  O1  UNL     1       7.395   7.215  -8.093  1.00  0.00    -0.361 OA
HETATM   11  H7  UNL     1       7.994   7.858  -8.506  1.00  0.00     0.217 HD
ENDBRANCH   3  10
TORSDOF 2
ENDMDL
MODEL 10
REMARK VINA RESULT:      -3.9      2.782      3.232
REMARK  2 active torsions:
REMARK  status: ('A' for Active; 'I' for Inactive)
REMARK    1  A    between atoms: C3_3  and  O1_8 
REMARK    2  A    between atoms: C6_6  and  N1_7 
ROOT
HETATM    1  C1  UNL     1       7.796   2.982 -10.852  1.00  0.00     0.026 A 
HETATM    2  C2  UNL     1       6.834   3.579 -10.034  1.00  0.00     0.038 A 
HETATM    3  C3  UNL     1       7.074   4.836  -9.496  1.00  0.00     0.065 A 
HETATM    4  C4  UNL     1       8.256   5.513  -9.777  1.00  0.00     0.038 A 
HETATM    5  C5  UNL     1       9.214   4.907 -10.595  1.00  0.00     0.026 A 
HETATM    6  C6  UNL     1       9.016   3.618 -11.099  1.00  0.00     0.005 A 
ENDROOT
BRANCH   6   7
HETATM    7  N1  UNL     1       9.925   3.070 -12.011  1.00  0.00    -0.303 NA
HETATM    8  H5  UNL     1       9.486   2.666 -12.832  1.00  0.00     0.124 HD
HETATM    9  H6  UNL     1      10.604   2.446 -11.590  1.00  0.00     0.124 HD
ENDBRANCH   6   7
BRANCH   3  10
HETATM   10  O1  UNL     1       6.110   5.386  -8.705  1.00  0.00    -0.361 OA
HETATM   11  H7  UNL     1       6.464   6.195  -8.303  1.00  0.00     0.217 HD
ENDBRANCH   3  10
TORSDOF 2
ENDMDL
MODEL 11
REMARK VINA RESULT:      -3.8      1.552      2.375
REMARK  2 active torsions:
REMARK  status: ('A' for Active; 'I' for Inactive)
REMARK    1  A    between atoms: C3_3  and  O1_8 
REMARK    2  A    between atoms: C6_6  and  N1_7 
ROOT
HETATM    1  C1  UNL     1       7.681   3.438 -10.918  1.00  0.00     0.026 A 
HETATM    2  C2  UNL     1       7.796   2.047 -10.951  1.00  0.00     0.038 A 
HETATM    3  C3  UNL     1       7.074   1.275 -10.052  1.00  0.00     0.065 A 
HETATM    4  C4  UNL     1       6.224   1.874  -9.128  1.00  0.00     0.038 A 
HETATM    5  C5  UNL     1       6.116   3.267  -9.099  1.00  0.00     0.026 A 
HETATM    6  C6  UNL     1       6.879   4.064  -9.958  1.00  0.00     0.005 A 
ENDROOT
BRANCH   6   7
HETATM    7  N1  UNL     1       6.675   5.448 -10.003  1.00  0.00    -0.303 NA
HETATM    8  H5  UNL     1       7.519   5.990  -9.845  1.00  0.00     0.124 HD
HETATM    9  H6  UNL     1       5.899   5.767  -9.433  1.00  0.00     0.124 HD
ENDBRANCH   6   7
BRANCH   3  10
HETATM   10  O1  UNL     1       7.211  -0.079 -10.119  1.00  0.00    -0.361 OA
HETATM   11  H7  UNL     1       7.916  -0.288 -10.752  1.00  0.00     0.217 HD
ENDBRANCH   3  10
TORSDOF 2
ENDMDL
MODEL 12
REMARK VINA RESULT:      -3.8      2.714      3.191
REMARK  2 active torsions:
REMARK  status: ('A' for Active; 'I' for Inactive)
REMARK    1  A    between atoms: C3_3  and  O1_8 
REMARK    2  A    between atoms: C6_6  and  N1_7 
ROOT
HETATM    1  C1  UNL     1       7.378   3.246 -10.147  1.00  0.00     0.026 A 
HETATM    2  C2  UNL     1       7.231   4.522 -10.697  1.00  0.00     0.038 A 
HETATM    3  C3  UNL     1       8.082   4.936 -11.711  1.00  0.00     0.065 A 
HETATM    4  C4  UNL     1       9.070   4.086 -12.197  1.00  0.00     0.038 A 
HETATM    5  C5  UNL     1       9.212   2.812 -11.640  1.00  0.00     0.026 A 
HETATM    6  C6  UNL     1       8.402   2.398 -10.578  1.00  0.00     0.005 A 
ENDROOT
BRANCH   6   7
HETATM    7  N1  UNL     1       8.472   1.081 -10.109  1.00  0.00    -0.303 NA
HETATM    8  H5  UNL     1       8.442   1.007  -9.097  1.00  0.00     0.124 HD
HETATM    9  H6  UNL     1       9.229   0.541 -10.514  1.00  0.00     0.124 HD
ENDBRANCH   6   7
BRANCH   3  10
HETATM   10  O1  UNL     1       7.905   6.186 -12.223  1.00  0.00    -0.361 OA
HETATM   11  H7  UNL     1       7.194   6.153 -12.883  1.00  0.00     0.217 HD
ENDBRANCH   3  10
TORSDOF 2
ENDMDL
MODEL 13
REMARK VINA RESULT:      -3.8      1.343      1.604
REMARK  2 active torsions:
REMARK  status: ('A' for Active; 'I' for Inactive)
REMARK    1  A    between atoms: C3_3  and  O1_8 
REMARK    2  A    between atoms: C6_6  and  N1_7 
ROOT
HETATM    1  C1  UNL     1       6.894   3.893 -10.279  1.00  0.00     0.026 A 
HETATM    2  C2  UNL     1       7.003   2.581  -9.813  1.00  0.00     0.038 A 
HETATM    3  C3  UNL     1       8.093   1.807 -10.186  1.00  0.00     0.065 A 
HETATM    4  C4  UNL     1       9.086   2.332 -11.007  1.00  0.00     0.038 A 
HETATM    5  C5  UNL     1       8.968   3.646 -11.470  1.00  0.00     0.026 A 
HETATM    6  C6  UNL     1       7.849   4.421 -11.153  1.00  0.00     0.005 A 
ENDROOT
BRANCH   6   7
HETATM    7  N1  UNL     1       7.798   5.770 -11.522  1.00  0.00    -0.303 NA
HETATM    8  H5  UNL     1       8.525   6.337 -11.097  1.00  0.00     0.124 HD
HETATM    9  H6  UNL     1       6.878   6.187 -11.427  1.00  0.00     0.124 HD
ENDBRANCH   6   7
BRANCH   3  10
HETATM   10  O1  UNL     1       8.165   0.533  -9.709  1.00  0.00    -0.361 OA
HETATM   11  H7  UNL     1       8.692   0.537  -8.893  1.00  0.00     0.217 HD
ENDBRANCH   3  10
TORSDOF 2
ENDMDL
MODEL 14
REMARK VINA RESULT:      -3.8      2.954      3.731
REMARK  2 active torsions:
REMARK  status: ('A' for Active; 'I' for Inactive)
REMARK    1  A    between atoms: C3_3  and  O1_8 
REMARK    2  A    between atoms: C6_6  and  N1_7 
ROOT
HETATM    1  C1  UNL     1       8.664   1.761 -10.475  1.00  0.00     0.026 A 
HETATM    2  C2  UNL     1       8.946   1.758 -11.843  1.00  0.00     0.038 A 
HETATM    3  C3  UNL     1       8.136   1.040 -12.711  1.00  0.00     0.065 A 
HETATM    4  C4  UNL     1       7.036   0.336 -12.233  1.00  0.00     0.038 A 
HETATM    5  C5  UNL     1       6.761   0.342 -10.863  1.00  0.00     0.026 A 
HETATM    6  C6  UNL     1       7.600   1.011  -9.966  1.00  0.00     0.005 A 
ENDROOT
BRANCH   6   7
HETATM    7  N1  UNL     1       7.250   1.110  -8.614  1.00  0.00    -0.303 NA
HETATM    8  H5  UNL     1       7.386   0.250  -8.093  1.00  0.00     0.124 HD
HETATM    9  H6  UNL     1       6.334   1.517  -8.456  1.00  0.00     0.124 HD
ENDBRANCH   6   7
BRANCH   3  10
HETATM   10  O1  UNL     1       8.442   1.065 -14.039  1.00  0.00    -0.361 OA
HETATM   11  H7  UNL     1       7.663   1.368 -14.531  1.00  0.00     0.217 HD
ENDBRANCH   3  10
TORSDOF 2
ENDMDL
MODEL 15
REMARK VINA RESULT:      -3.7      3.123      3.806
REMARK  2 active torsions:
REMARK  status: ('A' for Active; 'I' for Inactive)
REMARK    1  A    between atoms: C3_3  and  O1_8 
REMARK    2  A    between atoms: C6_6  and  N1_7 
ROOT
HETATM    1  C1  UNL     1       7.401   1.166 -10.327  1.00  0.00     0.026 A 
HETATM    2  C2  UNL     1       6.662   0.183 -10.989  1.00  0.00     0.038 A 
HETATM    3  C3  UNL     1       7.107  -0.307 -12.209  1.00  0.00     0.065 A 
HETATM    4  C4  UNL     1       8.290   0.160 -12.770  1.00  0.00     0.038 A 
HETATM    5  C5  UNL     1       9.024   1.145 -12.103  1.00  0.00     0.026 A 
HETATM    6  C6  UNL     1       8.562   1.693 -10.902  1.00  0.00     0.005 A 
ENDROOT
BRANCH   6   7
HETATM    7  N1  UNL     1       9.361   2.590 -10.183  1.00  0.00    -0.303 NA
HETATM    8  H5  UNL     1      10.355   2.476 -10.353  1.00  0.00     0.124 HD
HETATM    9  H6  UNL     1       9.140   2.633  -9.194  1.00  0.00     0.124 HD
ENDBRANCH   6   7
BRANCH   3  10
HETATM   10  O1  UNL     1       6.359  -1.267 -12.822  1.00  0.00    -0.361 OA
HETATM   11  H7  UNL     1       5.971  -1.839 -12.141  1.00  0.00     0.217 HD
ENDBRANCH   3  10
TORSDOF 2
ENDMDL
MODEL 16
REMARK VINA RESULT:      -3.6      3.443      4.117
REMARK  2 active torsions:
REMARK  status: ('A' for Active; 'I' for Inactive)
REMARK    1  A    between atoms: C3_3  and  O1_8 
REMARK    2  A    between atoms: C6_6  and  N1_7 
ROOT
HETATM    1  C1  UNL     1       6.514   0.366 -11.917  1.00  0.00     0.026 A 
HETATM    2  C2  UNL     1       5.886   1.245 -11.032  1.00  0.00     0.038 A 
HETATM    3  C3  UNL     1       6.632   2.220 -10.385  1.00  0.00     0.065 A 
HETATM    4  C4  UNL     1       7.997   2.341 -10.623  1.00  0.00     0.038 A 
HETATM    5  C5  UNL     1       8.619   1.457 -11.510  1.00  0.00     0.026 A 
HETATM    6  C6  UNL     1       7.895   0.431 -12.126  1.00  0.00     0.005 A 
ENDROOT
BRANCH   6   7
HETATM    7  N1  UNL     1       8.500  -0.372 -13.100  1.00  0.00    -0.303 NA
HETATM    8  H5  UNL     1       8.939   0.156 -13.848  1.00  0.00     0.124 HD
HETATM    9  H6  UNL     1       7.903  -1.114 -13.449  1.00  0.00     0.124 HD
ENDBRANCH   6   7
BRANCH   3  10
HETATM   10  O1  UNL     1       5.982   3.059  -9.532  1.00  0.00    -0.361 OA
HETATM   11  H7  UNL     1       5.093   3.230  -9.882  1.00  0.00     0.217 HD
ENDBRANCH   3  10
TORSDOF 2
ENDMDL
MODEL 17
REMARK VINA RESULT:      -3.6      2.271      2.756
REMARK  2 active torsions:
REMARK  status: ('A' for Active; 'I' for Inactive)
REMARK    1  A    between atoms: C3_3  and  O1_8 
REMARK    2  A    between atoms: C6_6  and  N1_7 
ROOT
HETATM    1  C1  UNL     1       8.889   2.458 -11.472  1.00  0.00     0.026 A 
HETATM    2  C2  UNL     1       9.632   2.062 -12.586  1.00  0.00     0.038 A 
HETATM    3  C3  UNL     1      10.458   2.977 -13.223  1.00  0.00     0.065 A 
HETATM    4  C4  UNL     1      10.565   4.281 -12.753  1.00  0.00     0.038 A 
HETATM    5  C5  UNL     1       9.817   4.671 -11.638  1.00  0.00     0.026 A 
HETATM    6  C6  UNL     1       8.936   3.780 -11.018  1.00  0.00     0.005 A 
ENDROOT
BRANCH   6   7
HETATM    7  N1  UNL     1       8.283   4.143  -9.834  1.00  0.00    -0.303 NA
HETATM    8  H5  UNL     1       7.796   5.032  -9.893  1.00  0.00     0.124 HD
HETATM    9  H6  UNL     1       8.867   4.076  -9.007  1.00  0.00     0.124 HD
ENDBRANCH   6   7
BRANCH   3  10
HETATM   10  O1  UNL     1      11.169   2.550 -14.305  1.00  0.00    -0.361 OA
HETATM   11  H7  UNL     1      12.114   2.592 -14.090  1.00  0.00     0.217 HD
ENDBRANCH   3  10
TORSDOF 2
ENDMDL
MODEL 18
REMARK VINA RESULT:      -3.5      1.829      2.494
REMARK  2 active torsions:
REMARK  status: ('A' for Active; 'I' for Inactive)
REMARK    1  A    between atoms: C3_3  and  O1_8 
REMARK    2  A    between atoms: C6_6  and  N1_7 
ROOT
HETATM    1  C1  UNL     1       6.665   4.580  -8.988  1.00  0.00     0.026 A 
HETATM    2  C2  UNL     1       7.825   5.093  -9.573  1.00  0.00     0.038 A 
HETATM    3  C3  UNL     1       8.547   4.314 -10.465  1.00  0.00     0.065 A 
HETATM    4  C4  UNL     1       8.118   3.033 -10.796  1.00  0.00     0.038 A 
HETATM    5  C5  UNL     1       6.956   2.526 -10.206  1.00  0.00     0.026 A 
HETATM    6  C6  UNL     1       6.247   3.273  -9.260  1.00  0.00     0.005 A 
ENDROOT
BRANCH   6   7
HETATM    7  N1  UNL     1       5.024   2.806  -8.766  1.00  0.00    -0.303 NA
HETATM    8  H5  UNL     1       5.012   2.681  -7.759  1.00  0.00     0.124 HD
HETATM    9  H6  UNL     1       4.664   1.997  -9.260  1.00  0.00     0.124 HD
ENDBRANCH   6   7
BRANCH   3  10
HETATM   10  O1  UNL     1       9.672   4.851 -11.016  1.00  0.00    -0.361 OA
HETATM   11  H7  UNL     1       9.452   5.193 -11.898  1.00  0.00     0.217 HD
ENDBRANCH   3  10
TORSDOF 2
ENDMDL
MODEL 19
REMARK VINA RESULT:      -3.5      2.444      2.983
REMARK  2 active torsions:
REMARK  status: ('A' for Active; 'I' for Inactive)
REMARK    1  A    between atoms: C3_3  and  O1_8 
REMARK    2  A    between atoms: C6_6  and  N1_7 
ROOT
HETATM    1  C1  UNL     1       8.086   3.799 -11.504  1.00  0.00     0.026 A 
HETATM    2  C2  UNL     1       8.029   2.924 -10.417  1.00  0.00     0.038 A 
HETATM    3  C3  UNL     1       8.330   1.581 -10.599  1.00  0.00     0.065 A 
HETATM    4  C4  UNL     1       8.703   1.103 -11.850  1.00  0.00     0.038 A 
HETATM    5  C5  UNL     1       8.756   1.984 -12.933  1.00  0.00     0.026 A 
HETATM    6  C6  UNL     1       8.400   3.328 -12.783  1.00  0.00     0.005 A 
ENDROOT
BRANCH   6   7
HETATM    7  N1  UNL     1       8.570   4.226 -13.843  1.00  0.00    -0.303 NA
HETATM    8  H5  UNL     1       8.811   3.778 -14.722  1.00  0.00     0.124 HD
HETATM    9  H6  UNL     1       9.181   5.006 -13.626  1.00  0.00     0.124 HD
ENDBRANCH   6   7
BRANCH   3  10
HETATM   10  O1  UNL     1       8.267   0.760  -9.513  1.00  0.00    -0.361 OA
HETATM   11  H7  UNL     1       7.335   0.644  -9.267  1.00  0.00     0.217 HD
ENDBRANCH   3  10
TORSDOF 2
ENDMDL
MODEL 20
REMARK VINA RESULT:      -3.5      6.367      7.102
REMARK  2 active torsions:
REMARK  status: ('A' for Active; 'I' for Inactive)
REMARK    1  A    between atoms: C3_3  and  O1_8 
REMARK    2  A    between atoms: C6_6  and  N1_7 
ROOT
HETATM    1  C1  UNL     1       6.450  -1.681 -12.336  1.00  0.00     0.026 A 
HETATM    2  C2  UNL     1       6.566  -2.980 -11.838  1.00  0.00     0.038 A 
HETATM    3  C3  UNL     1       7.222  -3.948 -12.585  1.00  0.00     0.065 A 
HETATM    4  C4  UNL     1       7.780  -3.631 -13.819  1.00  0.00     0.038 A 
HETATM    5  C5  UNL     1       7.659  -2.329 -14.312  1.00  0.00     0.026 A 
HETATM    6  C6  UNL     1       6.951  -1.355 -13.600  1.00  0.00     0.005 A 
ENDROOT
BRANCH   6   7
HETATM    7  N1  UNL     1       6.937  -0.028 -14.044  1.00  0.00    -0.303 NA
HETATM    8  H5  UNL     1       7.430   0.613 -13.429  1.00  0.00     0.124 HD
HETATM    9  H6  UNL     1       6.015   0.311 -14.297  1.00  0.00     0.124 HD
ENDBRANCH   6   7
BRANCH   3  10
HETATM   10  O1  UNL     1       7.316  -5.203 -12.063  1.00  0.00    -0.361 OA
HETATM   11  H7  UNL     1       7.838  -5.752 -12.669  1.00  0.00     0.217 HD
ENDBRANCH   3  10
TORSDOF 2
ENDMDL
