MODEL 1
REMARK VINA RESULT:      -4.9      0.000      0.000
REMARK  2 active torsions:
REMARK  status: ('A' for Active; 'I' for Inactive)
REMARK    1  A    between atoms: C3_3  and  O1_8 
REMARK    2  A    between atoms: C6_6  and  N1_7 
ROOT
HETATM    1  C1  UNL     1       3.203  -3.449 -11.495  1.00  0.00     0.026 A 
HETATM    2  C2  UNL     1       4.520  -3.822 -11.217  1.00  0.00     0.038 A 
HETATM    3  C3  UNL     1       5.568  -3.150 -11.828  1.00  0.00     0.065 A 
HETATM    4  C4  UNL     1       5.320  -2.098 -12.703  1.00  0.00     0.038 A 
HETATM    5  C5  UNL     1       4.000  -1.731 -12.977  1.00  0.00     0.026 A 
HETATM    6  C6  UNL     1       2.929  -2.435 -12.416  1.00  0.00     0.005 A 
ENDROOT
BRANCH   6   7
HETATM    7  N1  UNL     1       1.616  -1.986 -12.602  1.00  0.00    -0.303 NA
HETATM    8  H5  UNL     1       1.285  -1.375 -11.862  1.00  0.00     0.124 HD
HETATM    9  H6  UNL     1       0.956  -2.726 -12.817  1.00  0.00     0.124 HD
ENDBRANCH   6   7
BRANCH   3  10
HETATM   10  O1  UNL     1       6.839  -3.542 -11.529  1.00  0.00    -0.361 OA
HETATM   11  H7  UNL     1       7.280  -2.822 -11.051  1.00  0.00     0.217 HD
ENDBRANCH   3  10
TORSDOF 2
ENDMDL
MODEL 2
REMARK VINA RESULT:      -4.9      2.784      3.685
REMARK  2 active torsions:
REMARK  status: ('A' for Active; 'I' for Inactive)
REMARK    1  A    between atoms: C3_3  and  O1_8 
REMARK    2  A    between atoms: C6_6  and  N1_7 
ROOT
HETATM    1  C1  UNL     1       5.071  -2.174 -12.714  1.00  0.00     0.026 A 
HETATM    2  C2  UNL     1       3.739  -1.868 -13.000  1.00  0.00     0.038 A 
HETATM    3  C3  UNL     1       2.721  -2.564 -12.364  1.00  0.00     0.065 A 
HETATM    4  C4  UNL     1       3.015  -3.554 -11.432  1.00  0.00     0.038 A 
HETATM    5  C5  UNL     1       4.351  -3.856 -11.153  1.00  0.00     0.026 A 
HETATM    6  C6  UNL     1       5.390  -3.206 -11.827  1.00  0.00     0.005 A 
ENDROOT
BRANCH   6   7
HETATM    7  N1  UNL     1       6.721  -3.431 -11.455  1.00  0.00    -0.303 NA
HETATM    8  H5  UNL     1       7.396  -3.096 -12.135  1.00  0.00     0.124 HD
HETATM    9  H6  UNL     1       6.909  -4.383 -11.159  1.00  0.00     0.124 HD
ENDBRANCH   6   7
BRANCH   3  10
HETATM   10  O1  UNL     1       1.434  -2.233 -12.667  1.00  0.00    -0.361 OA
HETATM   11  H7  UNL     1       1.299  -1.295 -12.461  1.00  0.00     0.217 HD
ENDBRANCH   3  10
TORSDOF 2
ENDMDL
MODEL 3
REMARK VINA RESULT:      -4.8      2.693      3.167
REMARK  2 active torsions:
REMARK  status: ('A' for Active; 'I' for Inactive)
REMARK    1  A    between atoms: C3_3  and  O1_8 
REMARK    2  A    between atoms: C6_6  and  N1_7 
ROOT
HETATM    1  C1  UNL     1       5.394  -3.922 -11.653  1.00  0.00     0.026 A 
HETATM    2  C2  UNL     1       4.182  -3.975 -10.960  1.00  0.00     0.038 A 
HETATM    3  C3  UNL     1       3.033  -3.460 -11.542  1.00  0.00     0.065 A 
HETATM    4  C4  UNL     1       3.073  -2.906 -12.817  1.00  0.00     0.038 A 
HETATM    5  C5  UNL     1       4.289  -2.855 -13.504  1.00  0.00     0.026 A 
HETATM    6  C6  UNL     1       5.469  -3.315 -12.910  1.00  0.00     0.005 A 
ENDROOT
BRANCH   6   7
HETATM    7  N1  UNL     1       6.656  -3.369 -13.650  1.00  0.00    -0.303 NA
HETATM    8  H5  UNL     1       7.405  -3.869 -13.182  1.00  0.00     0.124 HD
HETATM    9  H6  UNL     1       6.957  -2.469 -14.008  1.00  0.00     0.124 HD
ENDBRANCH   6   7
BRANCH   3  10
HETATM   10  O1  UNL     1       1.871  -3.534 -10.835  1.00  0.00    -0.361 OA
HETATM   11  H7  UNL     1       1.443  -2.663 -10.851  1.00  0.00     0.217 HD
ENDBRANCH   3  10
TORSDOF 2
ENDMDL
MODEL 4
REMARK VINA RESULT:      -4.6      1.291      2.132
REMARK  2 active torsions:
REMARK  status: ('A' for Active; 'I' for Inactive)
REMARK    1  A    between atoms: C3_3  and  O1_8 
REMARK    2  A    between atoms: C6_6  and  N1_7 
ROOT
HETATM    1  C1  UNL     1       2.773  -2.256 -12.564  1.00  0.00     0.026 A 
HETATM    2  C2  UNL     1       3.939  -1.661 -13.051  1.00  0.00     0.038 A 
HETATM    3  C3  UNL     1       5.176  -2.111 -12.613  1.00  0.00     0.065 A 
HETATM    4  C4  UNL     1       5.266  -3.160 -11.705  1.00  0.00     0.038 A 
HETATM    5  C5  UNL     1       4.095  -3.750 -11.220  1.00  0.00     0.026 A 
HETATM    6  C6  UNL     1       2.839  -3.272 -11.605  1.00  0.00     0.005 A 
ENDROOT
BRANCH   6   7
HETATM    7  N1  UNL     1       1.677  -3.945 -11.209  1.00  0.00    -0.303 NA
HETATM    8  H5  UNL     1       1.748  -4.955 -11.277  1.00  0.00     0.124 HD
HETATM    9  H6  UNL     1       0.830  -3.587 -11.638  1.00  0.00     0.124 HD
ENDBRANCH   6   7
BRANCH   3  10
HETATM   10  O1  UNL     1       6.290  -1.506 -13.113  1.00  0.00    -0.361 OA
HETATM   11  H7  UNL     1       6.873  -2.188 -13.483  1.00  0.00     0.217 HD
ENDBRANCH   3  10
TORSDOF 2
ENDMDL
MODEL 5
REMARK VINA RESULT:      -4.4      6.312      7.129
REMARK  2 active torsions:
REMARK  status: ('A' for Active; 'I' for Inactive)
REMARK    1  A    between atoms: C3_3  and  O1_8 
REMARK    2  A    between atoms: C6_6  and  N1_7 
ROOT
HETATM    1  C1  UNL     1       8.646   2.967  -9.951  1.00  0.00     0.026 A 
HETATM    2  C2  UNL     1       8.946   3.456 -11.224  1.00  0.00     0.038 A 
HETATM    3  C3  UNL     1       8.162   3.083 -12.306  1.00  0.00     0.065 A 
HETATM    4  C4  UNL     1       7.070   2.239 -12.132  1.00  0.00     0.038 A 
HETATM    5  C5  UNL     1       6.777   1.752 -10.854  1.00  0.00     0.026 A 
HETATM    6  C6  UNL     1       7.591   2.070  -9.762  1.00  0.00     0.005 A 
ENDROOT
BRANCH   6   7
HETATM    7  N1  UNL     1       7.222   1.677  -8.470  1.00  0.00    -0.303 NA
HETATM    8  H5  UNL     1       7.977   1.251  -7.942  1.00  0.00     0.124 HD
HETATM    9  H6  UNL     1       6.369   1.128  -8.437  1.00  0.00     0.124 HD
ENDBRANCH   6   7
BRANCH   3  10
HETATM   10  O1  UNL     1       8.485   3.583 -13.532  1.00  0.00    -0.361 OA
HETATM   11  H7  UNL     1       9.400   3.906 -13.503  1.00  0.00     0.217 HD
ENDBRANCH   3  10
TORSDOF 2
ENDMDL
MODEL 6
REMARK VINA RESULT:      -4.4      6.288      7.010
REMARK  2 active torsions:
REMARK  status: ('A' for Active; 'I' for Inactive)
REMARK    1  A    between atoms: C3_3  and  O1_8 
REMARK    2  A    between atoms: C6_6  and  N1_7 
ROOT
HETATM    1  C1  UNL     1       7.062   2.272 -12.040  1.00  0.00     0.026 A 
HETATM    2  C2  UNL     1       6.785   1.776 -10.764  1.00  0.00     0.038 A 
HETATM    3  C3  UNL     1       7.616   2.106  -9.703  1.00  0.00     0.065 A 
HETATM    4  C4  UNL     1       8.713   2.939  -9.894  1.00  0.00     0.038 A 
HETATM    5  C5  UNL     1       8.984   3.431 -11.175  1.00  0.00     0.026 A 
HETATM    6  C6  UNL     1       8.193   3.063 -12.267  1.00  0.00     0.005 A 
ENDROOT
BRANCH   6   7
HETATM    7  N1  UNL     1       8.401   3.653 -13.519  1.00  0.00    -0.303 NA
HETATM    8  H5  UNL     1       7.718   4.367 -13.751  1.00  0.00     0.124 HD
HETATM    9  H6  UNL     1       8.532   2.985 -14.271  1.00  0.00     0.124 HD
ENDBRANCH   6   7
BRANCH   3  10
HETATM   10  O1  UNL     1       7.311   1.604  -8.473  1.00  0.00    -0.361 OA
HETATM   11  H7  UNL     1       6.462   1.136  -8.531  1.00  0.00     0.217 HD
ENDBRANCH   3  10
TORSDOF 2
ENDMDL
MODEL 7
REMARK VINA RESULT:      -4.4      6.815      7.224
REMARK  2 active torsions:
REMARK  status: ('A' for Active; 'I' for Inactive)
REMARK    1  A    between atoms: C3_3  and  O1_8 
REMARK    2  A    between atoms: C6_6  and  N1_7 
ROOT
HETATM    1  C1  UNL     1       6.136   2.185  -8.989  1.00  0.00     0.026 A 
HETATM    2  C2  UNL     1       7.348   1.833  -9.589  1.00  0.00     0.038 A 
HETATM    3  C3  UNL     1       8.255   2.824  -9.938  1.00  0.00     0.065 A 
HETATM    4  C4  UNL     1       7.977   4.161  -9.681  1.00  0.00     0.038 A 
HETATM    5  C5  UNL     1       6.762   4.506  -9.081  1.00  0.00     0.026 A 
HETATM    6  C6  UNL     1       5.810   3.528  -8.776  1.00  0.00     0.005 A 
ENDROOT
BRANCH   6   7
HETATM    7  N1  UNL     1       4.651   3.868  -8.070  1.00  0.00    -0.303 NA
HETATM    8  H5  UNL     1       4.036   3.081  -7.890  1.00  0.00     0.124 HD
HETATM    9  H6  UNL     1       4.155   4.666  -8.454  1.00  0.00     0.124 HD
ENDBRANCH   6   7
BRANCH   3  10
HETATM   10  O1  UNL     1       9.427   2.440 -10.519  1.00  0.00    -0.361 OA
HETATM   11  H7  UNL     1       9.260   1.655 -11.064  1.00  0.00     0.217 HD
ENDBRANCH   3  10
TORSDOF 2
ENDMDL
MODEL 8
REMARK VINA RESULT:      -4.4      6.335      7.082
REMARK  2 active torsions:
REMARK  status: ('A' for Active; 'I' for Inactive)
REMARK    1  A    between atoms: C3_3  and  O1_8 
REMARK    2  A    between atoms: C6_6  and  N1_7 
ROOT
HETATM    1  C1  UNL     1       6.795   1.798 -10.838  1.00  0.00     0.026 A 
HETATM    2  C2  UNL     1       6.994   2.304 -12.124  1.00  0.00     0.038 A 
HETATM    3  C3  UNL     1       8.090   3.116 -12.382  1.00  0.00     0.065 A 
HETATM    4  C4  UNL     1       9.000   3.417 -11.375  1.00  0.00     0.038 A 
HETATM    5  C5  UNL     1       8.793   2.908 -10.090  1.00  0.00     0.026 A 
HETATM    6  C6  UNL     1       7.664   2.137  -9.797  1.00  0.00     0.005 A 
ENDROOT
BRANCH   6   7
HETATM    7  N1  UNL     1       7.529   1.535  -8.541  1.00  0.00    -0.303 NA
HETATM    8  H5  UNL     1       8.257   1.796  -7.883  1.00  0.00     0.124 HD
HETATM    9  H6  UNL     1       7.386   0.531  -8.580  1.00  0.00     0.124 HD
ENDBRANCH   6   7
BRANCH   3  10
HETATM   10  O1  UNL     1       8.250   3.588 -13.651  1.00  0.00    -0.361 OA
HETATM   11  H7  UNL     1       7.435   4.040 -13.919  1.00  0.00     0.217 HD
ENDBRANCH   3  10
TORSDOF 2
ENDMDL
MODEL 9
REMARK VINA RESULT:      -4.3      7.242      7.808
REMARK  2 active torsions:
REMARK  status: ('A' for Active; 'I' for Inactive)
REMARK    1  A    between atoms: C3_3  and  O1_8 
REMARK    2  A    between atoms: C6_6  and  N1_7 
ROOT
HETATM    1  C1  UNL     1       6.988   2.109 -10.208  1.00  0.00     0.026 A 
HETATM    2  C2  UNL     1       5.795   2.480  -9.584  1.00  0.00     0.038 A 
HETATM    3  C3  UNL     1       5.771   3.592  -8.753  1.00  0.00     0.065 A 
HETATM    4  C4  UNL     1       6.919   4.349  -8.550  1.00  0.00     0.038 A 
HETATM    5  C5  UNL     1       8.109   3.971  -9.177  1.00  0.00     0.026 A 
HETATM    6  C6  UNL     1       8.168   2.821  -9.971  1.00  0.00     0.005 A 
ENDROOT
BRANCH   6   7
HETATM    7  N1  UNL     1       9.331   2.518 -10.689  1.00  0.00    -0.303 NA
HETATM    8  H5  UNL     1       9.534   3.179 -11.432  1.00  0.00     0.124 HD
HETATM    9  H6  UNL     1       9.379   1.555 -11.004  1.00  0.00     0.124 HD
ENDBRANCH   6   7
BRANCH   3  10
HETATM   10  O1  UNL     1       4.587   3.923  -8.164  1.00  0.00    -0.361 OA
HETATM   11  H7  UNL     1       4.413   3.295  -7.444  1.00  0.00     0.217 HD
ENDBRANCH   3  10
TORSDOF 2
ENDMDL
MODEL 10
REMARK VINA RESULT:      -4.3      6.620      7.320
REMARK  2 active torsions:
REMARK  status: ('A' for Active; 'I' for Inactive)
REMARK    1  A    between atoms: C3_3  and  O1_8 
REMARK    2  A    between atoms: C6_6  and  N1_7 
ROOT
HETATM    1  C1  UNL     1       8.067   4.098  -9.824  1.00  0.00     0.026 A 
HETATM    2  C2  UNL     1       8.553   3.365 -10.909  1.00  0.00     0.038 A 
HETATM    3  C3  UNL     1       7.697   2.531 -11.614  1.00  0.00     0.065 A 
HETATM    4  C4  UNL     1       6.356   2.431 -11.261  1.00  0.00     0.038 A 
HETATM    5  C5  UNL     1       5.877   3.166 -10.173  1.00  0.00     0.026 A 
HETATM    6  C6  UNL     1       6.737   3.967  -9.414  1.00  0.00     0.005 A 
ENDROOT
BRANCH   6   7
HETATM    7  N1  UNL     1       6.226   4.789  -8.403  1.00  0.00    -0.303 NA
HETATM    8  H5  UNL     1       5.214   4.869  -8.415  1.00  0.00     0.124 HD
HETATM    9  H6  UNL     1       6.683   5.692  -8.338  1.00  0.00     0.124 HD
ENDBRANCH   6   7
BRANCH   3  10
HETATM   10  O1  UNL     1       8.209   1.835 -12.668  1.00  0.00    -0.361 OA
HETATM   11  H7  UNL     1       8.723   1.087 -12.324  1.00  0.00     0.217 HD
ENDBRANCH   3  10
TORSDOF 2
ENDMDL
MODEL 11
REMARK VINA RESULT:      -4.3      7.226      7.877
REMARK  2 active torsions:
REMARK  status: ('A' for Active; 'I' for Inactive)
REMARK    1  A    between atoms: C3_3  and  O1_8 
REMARK    2  A    between atoms: C6_6  and  N1_7 
ROOT
HETATM    1  C1  UNL     1       8.075   4.000  -9.230  1.00  0.00     0.026 A 
HETATM    2  C2  UNL     1       6.877   4.341  -8.597  1.00  0.00     0.038 A 
HETATM    3  C3  UNL     1       5.744   3.569  -8.808  1.00  0.00     0.065 A 
HETATM    4  C4  UNL     1       5.793   2.449  -9.632  1.00  0.00     0.038 A 
HETATM    5  C5  UNL     1       6.995   2.116 -10.264  1.00  0.00     0.026 A 
HETATM    6  C6  UNL     1       8.132   2.915 -10.110  1.00  0.00     0.005 A 
ENDROOT
BRANCH   6   7
HETATM    7  N1  UNL     1       9.358   2.508 -10.649  1.00  0.00    -0.303 NA
HETATM    8  H5  UNL     1      10.036   2.223  -9.949  1.00  0.00     0.124 HD
HETATM    9  H6  UNL     1       9.747   3.160 -11.322  1.00  0.00     0.124 HD
ENDBRANCH   6   7
BRANCH   3  10
HETATM   10  O1  UNL     1       4.596   3.932  -8.170  1.00  0.00    -0.361 OA
HETATM   11  H7  UNL     1       4.329   4.809  -8.488  1.00  0.00     0.217 HD
ENDBRANCH   3  10
TORSDOF 2
ENDMDL
MODEL 12
REMARK VINA RESULT:      -4.2      6.825      7.546
REMARK  2 active torsions:
REMARK  status: ('A' for Active; 'I' for Inactive)
REMARK    1  A    between atoms: C3_3  and  O1_8 
REMARK    2  A    between atoms: C6_6  and  N1_7 
ROOT
HETATM    1  C1  UNL     1       7.325   2.236 -11.726  1.00  0.00     0.026 A 
HETATM    2  C2  UNL     1       6.168   2.483 -10.984  1.00  0.00     0.038 A 
HETATM    3  C3  UNL     1       6.203   3.396  -9.939  1.00  0.00     0.065 A 
HETATM    4  C4  UNL     1       7.376   4.079  -9.635  1.00  0.00     0.038 A 
HETATM    5  C5  UNL     1       8.530   3.825 -10.382  1.00  0.00     0.026 A 
HETATM    6  C6  UNL     1       8.530   2.866 -11.400  1.00  0.00     0.005 A 
ENDROOT
BRANCH   6   7
HETATM    7  N1  UNL     1       9.654   2.706 -12.217  1.00  0.00    -0.303 NA
HETATM    8  H5  UNL     1      10.356   2.083 -11.828  1.00  0.00     0.124 HD
HETATM    9  H6  UNL     1      10.052   3.580 -12.544  1.00  0.00     0.124 HD
ENDBRANCH   6   7
BRANCH   3  10
HETATM   10  O1  UNL     1       5.053   3.611  -9.241  1.00  0.00    -0.361 OA
HETATM   11  H7  UNL     1       5.285   3.895  -8.342  1.00  0.00     0.217 HD
ENDBRANCH   3  10
TORSDOF 2
ENDMDL
MODEL 13
REMARK VINA RESULT:      -4.1      6.819      7.502
REMARK  2 active torsions:
REMARK  status: ('A' for Active; 'I' for Inactive)
REMARK    1  A    between atoms: C3_3  and  O1_8 
REMARK    2  A    between atoms: C6_6  and  N1_7 
ROOT
HETATM    1  C1  UNL     1       8.534   2.874 -10.829  1.00  0.00     0.026 A 
HETATM    2  C2  UNL     1       8.597   3.593  -9.633  1.00  0.00     0.038 A 
HETATM    3  C3  UNL     1       7.425   3.940  -8.977  1.00  0.00     0.065 A 
HETATM    4  C4  UNL     1       6.188   3.564  -9.490  1.00  0.00     0.038 A 
HETATM    5  C5  UNL     1       6.133   2.845 -10.688  1.00  0.00     0.026 A 
HETATM    6  C6  UNL     1       7.300   2.537 -11.394  1.00  0.00     0.005 A 
ENDROOT
BRANCH   6   7
HETATM    7  N1  UNL     1       7.243   1.717 -12.526  1.00  0.00    -0.303 NA
HETATM    8  H5  UNL     1       7.743   2.091 -13.327  1.00  0.00     0.124 HD
HETATM    9  H6  UNL     1       6.306   1.411 -12.764  1.00  0.00     0.124 HD
ENDBRANCH   6   7
BRANCH   3  10
HETATM   10  O1  UNL     1       7.528   4.640  -7.812  1.00  0.00    -0.361 OA
HETATM   11  H7  UNL     1       8.175   4.196  -7.241  1.00  0.00     0.217 HD
ENDBRANCH   3  10
TORSDOF 2
ENDMDL
MODEL 14
REMARK VINA RESULT:      -4.1      6.562      7.480
REMARK  2 active torsions:
REMARK  status: ('A' for Active; 'I' for Inactive)
REMARK    1  A    between atoms: C3_3  and  O1_8 
REMARK    2  A    between atoms: C6_6  and  N1_7 
ROOT
HETATM    1  C1  UNL     1       9.104   3.423 -11.444  1.00  0.00     0.026 A 
HETATM    2  C2  UNL     1       8.264   2.906 -12.433  1.00  0.00     0.038 A 
HETATM    3  C3  UNL     1       7.177   2.123 -12.072  1.00  0.00     0.065 A 
HETATM    4  C4  UNL     1       6.906   1.862 -10.733  1.00  0.00     0.038 A 
HETATM    5  C5  UNL     1       7.752   2.381  -9.749  1.00  0.00     0.026 A 
HETATM    6  C6  UNL     1       8.886   3.123 -10.096  1.00  0.00     0.005 A 
ENDROOT
BRANCH   6   7
HETATM    7  N1  UNL     1       9.657   3.738  -9.103  1.00  0.00    -0.303 NA
HETATM    8  H5  UNL     1      10.052   3.086  -8.431  1.00  0.00     0.124 HD
HETATM    9  H6  UNL     1       9.199   4.524  -8.654  1.00  0.00     0.124 HD
ENDBRANCH   6   7
BRANCH   3  10
HETATM   10  O1  UNL     1       6.380   1.640 -13.066  1.00  0.00    -0.361 OA
HETATM   11  H7  UNL     1       6.566   2.134 -13.880  1.00  0.00     0.217 HD
ENDBRANCH   3  10
TORSDOF 2
ENDMDL
MODEL 15
REMARK VINA RESULT:      -4.1      6.725      7.332
REMARK  2 active torsions:
REMARK  status: ('A' for Active; 'I' for Inactive)
REMARK    1  A    between atoms: C3_3  and  O1_8 
REMARK    2  A    between atoms: C6_6  and  N1_7 
ROOT
HETATM    1  C1  UNL     1       6.071   2.798 -10.683  1.00  0.00     0.026 A 
HETATM    2  C2  UNL     1       6.196   3.531  -9.500  1.00  0.00     0.038 A 
HETATM    3  C3  UNL     1       7.457   3.876  -9.036  1.00  0.00     0.065 A 
HETATM    4  C4  UNL     1       8.597   3.514  -9.745  1.00  0.00     0.038 A 
HETATM    5  C5  UNL     1       8.464   2.780 -10.928  1.00  0.00     0.026 A 
HETATM    6  C6  UNL     1       7.205   2.372 -11.381  1.00  0.00     0.005 A 
ENDROOT
BRANCH   6   7
HETATM    7  N1  UNL     1       7.073   1.742 -12.624  1.00  0.00    -0.303 NA
HETATM    8  H5  UNL     1       7.480   0.813 -12.655  1.00  0.00     0.124 HD
HETATM    9  H6  UNL     1       7.363   2.317 -13.408  1.00  0.00     0.124 HD
ENDBRANCH   6   7
BRANCH   3  10
HETATM   10  O1  UNL     1       7.537   4.593  -7.880  1.00  0.00    -0.361 OA
HETATM   11  H7  UNL     1       7.587   3.974  -7.134  1.00  0.00     0.217 HD
ENDBRANCH   3  10
TORSDOF 2
ENDMDL
MODEL 16
REMARK VINA RESULT:      -4.0      6.669      7.401
REMARK  2 active torsions:
REMARK  status: ('A' for Active; 'I' for Inactive)
REMARK    1  A    between atoms: C3_3  and  O1_8 
REMARK    2  A    between atoms: C6_6  and  N1_7 
ROOT
HETATM    1  C1  UNL     1       7.807   2.596  -9.660  1.00  0.00     0.026 A 
HETATM    2  C2  UNL     1       7.036   1.943 -10.624  1.00  0.00     0.038 A 
HETATM    3  C3  UNL     1       7.360   2.072 -11.967  1.00  0.00     0.065 A 
HETATM    4  C4  UNL     1       8.455   2.834 -12.361  1.00  0.00     0.038 A 
HETATM    5  C5  UNL     1       9.221   3.486 -11.391  1.00  0.00     0.026 A 
HETATM    6  C6  UNL     1       8.876   3.416 -10.038  1.00  0.00     0.005 A 
ENDROOT
BRANCH   6   7
HETATM    7  N1  UNL     1       9.715   3.972  -9.066  1.00  0.00    -0.303 NA
HETATM    8  H5  UNL     1       9.284   4.050  -8.150  1.00  0.00     0.124 HD
HETATM    9  H6  UNL     1      10.164   4.834  -9.357  1.00  0.00     0.124 HD
ENDBRANCH   6   7
BRANCH   3  10
HETATM   10  O1  UNL     1       6.585   1.417 -12.877  1.00  0.00    -0.361 OA
HETATM   11  H7  UNL     1       7.052   1.402 -13.728  1.00  0.00     0.217 HD
ENDBRANCH   3  10
TORSDOF 2
ENDMDL
MODEL 17
REMARK VINA RESULT:      -3.7      6.713      7.301
REMARK  2 active torsions:
REMARK  status: ('A' for Active; 'I' for Inactive)
REMARK    1  A    between atoms: C3_3  and  O1_8 
REMARK    2  A    between atoms: C6_6  and  N1_7 
ROOT
HETATM    1  C1  UNL     1       6.014   3.628  -9.263  1.00  0.00     0.026 A 
HETATM    2  C2  UNL     1       5.787   2.721 -10.300  1.00  0.00     0.038 A 
HETATM    3  C3  UNL     1       6.861   2.084 -10.904  1.00  0.00     0.065 A 
HETATM    4  C4  UNL     1       8.161   2.328 -10.475  1.00  0.00     0.038 A 
HETATM    5  C5  UNL     1       8.381   3.238  -9.437  1.00  0.00     0.026 A 
HETATM    6  C6  UNL     1       7.316   3.934  -8.855  1.00  0.00     0.005 A 
ENDROOT
BRANCH   6   7
HETATM    7  N1  UNL     1       7.533   4.751  -7.740  1.00  0.00    -0.303 NA
HETATM    8  H5  UNL     1       7.579   4.241  -6.864  1.00  0.00     0.124 HD
HETATM    9  H6  UNL     1       6.911   5.550  -7.690  1.00  0.00     0.124 HD
ENDBRANCH   6   7
BRANCH   3  10
HETATM   10  O1  UNL     1       6.598   1.204 -11.911  1.00  0.00    -0.361 OA
HETATM   11  H7  UNL     1       6.418   0.333 -11.522  1.00  0.00     0.217 HD
ENDBRANCH   3  10
TORSDOF 2
ENDMDL
MODEL 18
REMARK VINA RESULT:      -3.4      9.655     10.520
REMARK  2 active torsions:
REMARK  status: ('A' for Active; 'I' for Inactive)
REMARK    1  A    between atoms: C3_3  and  O1_8 
REMARK    2  A    between atoms: C6_6  and  N1_7 
ROOT
HETATM    1  C1  UNL     1       9.146   5.093 -11.635  1.00  0.00     0.026 A 
HETATM    2  C2  UNL     1       9.217   6.469 -11.864  1.00  0.00     0.038 A 
HETATM    3  C3  UNL     1      10.089   6.962 -12.824  1.00  0.00     0.065 A 
HETATM    4  C4  UNL     1      10.881   6.098 -13.571  1.00  0.00     0.038 A 
HETATM    5  C5  UNL     1      10.806   4.722 -13.335  1.00  0.00     0.026 A 
HETATM    6  C6  UNL     1       9.977   4.211 -12.332  1.00  0.00     0.005 A 
ENDROOT
BRANCH   6   7
HETATM    7  N1  UNL     1       9.819   2.828 -12.184  1.00  0.00    -0.303 NA
HETATM    8  H5  UNL     1       9.094   2.568 -11.523  1.00  0.00     0.124 HD
HETATM    9  H6  UNL     1      10.688   2.331 -12.018  1.00  0.00     0.124 HD
ENDBRANCH   6   7
BRANCH   3  10
HETATM   10  O1  UNL     1      10.127   8.310 -13.021  1.00  0.00    -0.361 OA
HETATM   11  H7  UNL     1       9.777   8.504 -13.905  1.00  0.00     0.217 HD
ENDBRANCH   3  10
TORSDOF 2
ENDMDL
MODEL 19
REMARK VINA RESULT:      -2.9      1.345      1.572
REMARK  2 active torsions:
REMARK  status: ('A' for Active; 'I' for Inactive)
REMARK    1  A    between atoms: C3_3  and  O1_8 
REMARK    2  A    between atoms: C6_6  and  N1_7 
ROOT
HETATM    1  C1  UNL     1       4.377  -3.896 -11.024  1.00  0.00     0.026 A 
HETATM    2  C2  UNL     1       5.592  -3.904 -11.714  1.00  0.00     0.038 A 
HETATM    3  C3  UNL     1       5.648  -3.420 -13.013  1.00  0.00     0.065 A 
HETATM    4  C4  UNL     1       4.510  -2.912 -13.629  1.00  0.00     0.038 A 
HETATM    5  C5  UNL     1       3.297  -2.909 -12.933  1.00  0.00     0.026 A 
HETATM    6  C6  UNL     1       3.208  -3.446 -11.645  1.00  0.00     0.005 A 
ENDROOT
BRANCH   6   7
HETATM    7  N1  UNL     1       2.021  -3.330 -10.914  1.00  0.00    -0.303 NA
HETATM    8  H5  UNL     1       1.199  -3.653 -11.415  1.00  0.00     0.124 HD
HETATM    9  H6  UNL     1       1.883  -2.415 -10.496  1.00  0.00     0.124 HD
ENDBRANCH   6   7
BRANCH   3  10
HETATM   10  O1  UNL     1       6.852  -3.442 -13.651  1.00  0.00    -0.361 OA
HETATM   11  H7  UNL     1       6.780  -2.921 -14.467  1.00  0.00     0.217 HD
ENDBRANCH   3  10
TORSDOF 2
ENDMDL
MODEL 20
REMARK VINA RESULT:      -2.6      2.427      3.200
REMARK  2 active torsions:
REMARK  status: ('A' for Active; 'I' for Inactive)
REMARK    1  A    between atoms: C3_3  and  O1_8 
REMARK    2  A    between atoms: C6_6  and  N1_7 
ROOT
HETATM    1  C1  UNL     1       3.224  -1.271 -13.213  1.00  0.00     0.026 A 
HETATM    2  C2  UNL     1       3.808  -0.036 -13.506  1.00  0.00     0.038 A 
HETATM    3  C3  UNL     1       5.176   0.132 -13.352  1.00  0.00     0.065 A 
HETATM    4  C4  UNL     1       5.975  -0.923 -12.923  1.00  0.00     0.038 A 
HETATM    5  C5  UNL     1       5.383  -2.155 -12.630  1.00  0.00     0.026 A 
HETATM    6  C6  UNL     1       3.999  -2.327 -12.723  1.00  0.00     0.005 A 
ENDROOT
BRANCH   6   7
HETATM    7  N1  UNL     1       3.431  -3.593 -12.543  1.00  0.00    -0.303 NA
HETATM    8  H5  UNL     1       2.430  -3.572 -12.380  1.00  0.00     0.124 HD
HETATM    9  H6  UNL     1       3.921  -4.170 -11.867  1.00  0.00     0.124 HD
ENDBRANCH   6   7
BRANCH   3  10
HETATM   10  O1  UNL     1       5.708   1.350 -13.651  1.00  0.00    -0.361 OA
HETATM   11  H7  UNL     1       6.662   1.323 -13.476  1.00  0.00     0.217 HD
ENDBRANCH   3  10
TORSDOF 2
ENDMDL
