MODEL 1
REMARK VINA RESULT:      -5.1      0.000      0.000
REMARK  2 active torsions:
REMARK  status: ('A' for Active; 'I' for Inactive)
REMARK    1  A    between atoms: C3_3  and  O1_8 
REMARK    2  A    between atoms: C6_6  and  N1_7 
ROOT
HETATM    1  C1  UNL     1       5.082  -2.165 -12.721  1.00  0.00     0.026 A 
HETATM    2  C2  UNL     1       3.755  -1.833 -13.002  1.00  0.00     0.038 A 
HETATM    3  C3  UNL     1       2.726  -2.509 -12.362  1.00  0.00     0.065 A 
HETATM    4  C4  UNL     1       3.005  -3.505 -11.431  1.00  0.00     0.038 A 
HETATM    5  C5  UNL     1       4.335  -3.833 -11.156  1.00  0.00     0.026 A 
HETATM    6  C6  UNL     1       5.384  -3.203 -11.834  1.00  0.00     0.005 A 
ENDROOT
BRANCH   6   7
HETATM    7  N1  UNL     1       6.712  -3.453 -11.466  1.00  0.00    -0.303 NA
HETATM    8  H5  UNL     1       7.114  -4.268 -11.919  1.00  0.00     0.124 HD
HETATM    9  H6  UNL     1       6.867  -3.453 -10.464  1.00  0.00     0.124 HD
ENDBRANCH   6   7
BRANCH   3  10
HETATM   10  O1  UNL     1       1.446  -2.154 -12.661  1.00  0.00    -0.361 OA
HETATM   11  H7  UNL     1       0.998  -2.917 -13.061  1.00  0.00     0.217 HD
ENDBRANCH   3  10
TORSDOF 2
ENDMDL
MODEL 2
REMARK VINA RESULT:      -5.0      1.353      2.095
REMARK  2 active torsions:
REMARK  status: ('A' for Active; 'I' for Inactive)
REMARK    1  A    between atoms: C3_3  and  O1_8 
REMARK    2  A    between atoms: C6_6  and  N1_7 
ROOT
HETATM    1  C1  UNL     1       5.447  -3.878 -11.688  1.00  0.00     0.026 A 
HETATM    2  C2  UNL     1       4.258  -3.863 -10.955  1.00  0.00     0.038 A 
HETATM    3  C3  UNL     1       3.103  -3.351 -11.529  1.00  0.00     0.065 A 
HETATM    4  C4  UNL     1       3.115  -2.866 -12.832  1.00  0.00     0.038 A 
HETATM    5  C5  UNL     1       4.309  -2.882 -13.559  1.00  0.00     0.026 A 
HETATM    6  C6  UNL     1       5.496  -3.340 -12.978  1.00  0.00     0.005 A 
ENDROOT
BRANCH   6   7
HETATM    7  N1  UNL     1       6.657  -3.464 -13.750  1.00  0.00    -0.303 NA
HETATM    8  H5  UNL     1       7.189  -2.602 -13.826  1.00  0.00     0.124 HD
HETATM    9  H6  UNL     1       6.506  -3.905 -14.650  1.00  0.00     0.124 HD
ENDBRANCH   6   7
BRANCH   3  10
HETATM   10  O1  UNL     1       1.963  -3.357 -10.783  1.00  0.00    -0.361 OA
HETATM   11  H7  UNL     1       2.183  -3.646  -9.883  1.00  0.00     0.217 HD
ENDBRANCH   3  10
TORSDOF 2
ENDMDL
MODEL 3
REMARK VINA RESULT:      -5.0      2.598      3.334
REMARK  2 active torsions:
REMARK  status: ('A' for Active; 'I' for Inactive)
REMARK    1  A    between atoms: C3_3  and  O1_8 
REMARK    2  A    between atoms: C6_6  and  N1_7 
ROOT
HETATM    1  C1  UNL     1       4.540  -3.766 -11.088  1.00  0.00     0.026 A 
HETATM    2  C2  UNL     1       5.614  -3.744 -11.980  1.00  0.00     0.038 A 
HETATM    3  C3  UNL     1       5.428  -3.265 -13.269  1.00  0.00     0.065 A 
HETATM    4  C4  UNL     1       4.186  -2.792 -13.676  1.00  0.00     0.038 A 
HETATM    5  C5  UNL     1       3.114  -2.818 -12.778  1.00  0.00     0.026 A 
HETATM    6  C6  UNL     1       3.268  -3.352 -11.494  1.00  0.00     0.005 A 
ENDROOT
BRANCH   6   7
HETATM    7  N1  UNL     1       2.224  -3.264 -10.565  1.00  0.00    -0.303 NA
HETATM    8  H5  UNL     1       1.508  -3.973 -10.689  1.00  0.00     0.124 HD
HETATM    9  H6  UNL     1       1.833  -2.333 -10.474  1.00  0.00     0.124 HD
ENDBRANCH   6   7
BRANCH   3  10
HETATM   10  O1  UNL     1       6.502  -3.258 -14.108  1.00  0.00    -0.361 OA
HETATM   11  H7  UNL     1       7.306  -3.122 -13.582  1.00  0.00     0.217 HD
ENDBRANCH   3  10
TORSDOF 2
ENDMDL
MODEL 4
REMARK VINA RESULT:      -5.0      1.309      1.706
REMARK  2 active torsions:
REMARK  status: ('A' for Active; 'I' for Inactive)
REMARK    1  A    between atoms: C3_3  and  O1_8 
REMARK    2  A    between atoms: C6_6  and  N1_7 
ROOT
HETATM    1  C1  UNL     1       3.688  -1.649 -12.990  1.00  0.00     0.026 A 
HETATM    2  C2  UNL     1       2.566  -2.337 -12.524  1.00  0.00     0.038 A 
HETATM    3  C3  UNL     1       2.724  -3.381 -11.624  1.00  0.00     0.065 A 
HETATM    4  C4  UNL     1       3.989  -3.738 -11.169  1.00  0.00     0.038 A 
HETATM    5  C5  UNL     1       5.108  -3.046 -11.641  1.00  0.00     0.026 A 
HETATM    6  C6  UNL     1       4.974  -2.030 -12.593  1.00  0.00     0.005 A 
ENDROOT
BRANCH   6   7
HETATM    7  N1  UNL     1       6.084  -1.265 -12.968  1.00  0.00    -0.303 NA
HETATM    8  H5  UNL     1       6.947  -1.550 -12.516  1.00  0.00     0.124 HD
HETATM    9  H6  UNL     1       5.930  -0.264 -12.911  1.00  0.00     0.124 HD
ENDBRANCH   6   7
BRANCH   3  10
HETATM   10  O1  UNL     1       1.605  -4.026 -11.191  1.00  0.00    -0.361 OA
HETATM   11  H7  UNL     1       1.873  -4.841 -10.737  1.00  0.00     0.217 HD
ENDBRANCH   3  10
TORSDOF 2
ENDMDL
MODEL 5
REMARK VINA RESULT:      -5.0      2.635      3.118
REMARK  2 active torsions:
REMARK  status: ('A' for Active; 'I' for Inactive)
REMARK    1  A    between atoms: C3_3  and  O1_8 
REMARK    2  A    between atoms: C6_6  and  N1_7 
ROOT
HETATM    1  C1  UNL     1       3.186  -2.852 -12.895  1.00  0.00     0.026 A 
HETATM    2  C2  UNL     1       4.294  -2.829 -13.746  1.00  0.00     0.038 A 
HETATM    3  C3  UNL     1       5.526  -3.269 -13.283  1.00  0.00     0.065 A 
HETATM    4  C4  UNL     1       5.665  -3.748 -11.985  1.00  0.00     0.038 A 
HETATM    5  C5  UNL     1       4.552  -3.767 -11.139  1.00  0.00     0.026 A 
HETATM    6  C6  UNL     1       3.316  -3.273 -11.568  1.00  0.00     0.005 A 
ENDROOT
BRANCH   6   7
HETATM    7  N1  UNL     1       2.184  -3.406 -10.756  1.00  0.00    -0.303 NA
HETATM    8  H5  UNL     1       2.144  -2.733  -9.997  1.00  0.00     0.124 HD
HETATM    9  H6  UNL     1       2.015  -4.355 -10.440  1.00  0.00     0.124 HD
ENDBRANCH   6   7
BRANCH   3  10
HETATM   10  O1  UNL     1       6.581  -3.233 -14.144  1.00  0.00    -0.361 OA
HETATM   11  H7  UNL     1       6.687  -2.324 -14.467  1.00  0.00     0.217 HD
ENDBRANCH   3  10
TORSDOF 2
ENDMDL
MODEL 6
REMARK VINA RESULT:      -5.0      0.129      1.708
REMARK  2 active torsions:
REMARK  status: ('A' for Active; 'I' for Inactive)
REMARK    1  A    between atoms: C3_3  and  O1_8 
REMARK    2  A    between atoms: C6_6  and  N1_7 
ROOT
HETATM    1  C1  UNL     1       4.340  -3.753 -11.221  1.00  0.00     0.026 A 
HETATM    2  C2  UNL     1       3.018  -3.392 -11.488  1.00  0.00     0.038 A 
HETATM    3  C3  UNL     1       2.752  -2.382 -12.402  1.00  0.00     0.065 A 
HETATM    4  C4  UNL     1       3.789  -1.737 -13.065  1.00  0.00     0.038 A 
HETATM    5  C5  UNL     1       5.111  -2.102 -12.791  1.00  0.00     0.026 A 
HETATM    6  C6  UNL     1       5.401  -3.077 -11.831  1.00  0.00     0.005 A 
ENDROOT
BRANCH   6   7
HETATM    7  N1  UNL     1       6.716  -3.519 -11.650  1.00  0.00    -0.303 NA
HETATM    8  H5  UNL     1       7.378  -3.105 -12.299  1.00  0.00     0.124 HD
HETATM    9  H6  UNL     1       6.807  -4.528 -11.598  1.00  0.00     0.124 HD
ENDBRANCH   6   7
BRANCH   3  10
HETATM   10  O1  UNL     1       1.449  -2.062 -12.638  1.00  0.00    -0.361 OA
HETATM   11  H7  UNL     1       1.312  -1.130 -12.404  1.00  0.00     0.217 HD
ENDBRANCH   3  10
TORSDOF 2
ENDMDL
MODEL 7
REMARK VINA RESULT:      -4.7      2.468      3.210
REMARK  2 active torsions:
REMARK  status: ('A' for Active; 'I' for Inactive)
REMARK    1  A    between atoms: C3_3  and  O1_8 
REMARK    2  A    between atoms: C6_6  and  N1_7 
ROOT
HETATM    1  C1  UNL     1       4.524  -3.212 -11.518  1.00  0.00     0.026 A 
HETATM    2  C2  UNL     1       5.508  -2.432 -12.130  1.00  0.00     0.038 A 
HETATM    3  C3  UNL     1       5.142  -1.462 -13.052  1.00  0.00     0.065 A 
HETATM    4  C4  UNL     1       3.803  -1.248 -13.361  1.00  0.00     0.038 A 
HETATM    5  C5  UNL     1       2.824  -2.033 -12.745  1.00  0.00     0.026 A 
HETATM    6  C6  UNL     1       3.177  -3.055 -11.858  1.00  0.00     0.005 A 
ENDROOT
BRANCH   6   7
HETATM    7  N1  UNL     1       2.187  -3.754 -11.158  1.00  0.00    -0.303 NA
HETATM    8  H5  UNL     1       2.377  -4.747 -11.065  1.00  0.00     0.124 HD
HETATM    9  H6  UNL     1       1.245  -3.570 -11.487  1.00  0.00     0.124 HD
ENDBRANCH   6   7
BRANCH   3  10
HETATM   10  O1  UNL     1       6.131  -0.720 -13.625  1.00  0.00    -0.361 OA
HETATM   11  H7  UNL     1       6.294   0.060 -13.071  1.00  0.00     0.217 HD
ENDBRANCH   3  10
TORSDOF 2
ENDMDL
MODEL 8
REMARK VINA RESULT:      -4.6      2.795      3.261
REMARK  2 active torsions:
REMARK  status: ('A' for Active; 'I' for Inactive)
REMARK    1  A    between atoms: C3_3  and  O1_8 
REMARK    2  A    between atoms: C6_6  and  N1_7 
ROOT
HETATM    1  C1  UNL     1       3.843  -1.877 -13.434  1.00  0.00     0.026 A 
HETATM    2  C2  UNL     1       5.097  -2.491 -13.394  1.00  0.00     0.038 A 
HETATM    3  C3  UNL     1       5.374  -3.425 -12.405  1.00  0.00     0.065 A 
HETATM    4  C4  UNL     1       4.409  -3.767 -11.464  1.00  0.00     0.038 A 
HETATM    5  C5  UNL     1       3.157  -3.147 -11.510  1.00  0.00     0.026 A 
HETATM    6  C6  UNL     1       2.879  -2.161 -12.463  1.00  0.00     0.005 A 
ENDROOT
BRANCH   6   7
HETATM    7  N1  UNL     1       1.587  -1.635 -12.575  1.00  0.00    -0.303 NA
HETATM    8  H5  UNL     1       1.019  -2.094 -13.280  1.00  0.00     0.124 HD
HETATM    9  H6  UNL     1       1.562  -0.624 -12.658  1.00  0.00     0.124 HD
ENDBRANCH   6   7
BRANCH   3  10
HETATM   10  O1  UNL     1       6.608  -4.004 -12.401  1.00  0.00    -0.361 OA
HETATM   11  H7  UNL     1       7.006  -3.889 -13.279  1.00  0.00     0.217 HD
ENDBRANCH   3  10
TORSDOF 2
ENDMDL
MODEL 9
REMARK VINA RESULT:      -4.4      2.547      2.985
REMARK  2 active torsions:
REMARK  status: ('A' for Active; 'I' for Inactive)
REMARK    1  A    between atoms: C3_3  and  O1_8 
REMARK    2  A    between atoms: C6_6  and  N1_7 
ROOT
HETATM    1  C1  UNL     1       5.530  -3.140 -13.862  1.00  0.00     0.026 A 
HETATM    2  C2  UNL     1       5.040  -2.373 -14.921  1.00  0.00     0.038 A 
HETATM    3  C3  UNL     1       4.800  -1.019 -14.736  1.00  0.00     0.065 A 
HETATM    4  C4  UNL     1       5.059  -0.415 -13.511  1.00  0.00     0.038 A 
HETATM    5  C5  UNL     1       5.548  -1.190 -12.455  1.00  0.00     0.026 A 
HETATM    6  C6  UNL     1       5.740  -2.567 -12.604  1.00  0.00     0.005 A 
ENDROOT
BRANCH   6   7
HETATM    7  N1  UNL     1       6.341  -3.310 -11.581  1.00  0.00    -0.303 NA
HETATM    8  H5  UNL     1       7.002  -2.777 -11.024  1.00  0.00     0.124 HD
HETATM    9  H6  UNL     1       6.723  -4.198 -11.889  1.00  0.00     0.124 HD
ENDBRANCH   6   7
BRANCH   3  10
HETATM   10  O1  UNL     1       4.325  -0.304 -15.795  1.00  0.00    -0.361 OA
HETATM   11  H7  UNL     1       3.902  -0.917 -16.417  1.00  0.00     0.217 HD
ENDBRANCH   3  10
TORSDOF 2
ENDMDL
MODEL 10
REMARK VINA RESULT:      -4.2      3.068      3.666
REMARK  2 active torsions:
REMARK  status: ('A' for Active; 'I' for Inactive)
REMARK    1  A    between atoms: C3_3  and  O1_8 
REMARK    2  A    between atoms: C6_6  and  N1_7 
ROOT
HETATM    1  C1  UNL     1       5.516  -0.671 -13.266  1.00  0.00     0.026 A 
HETATM    2  C2  UNL     1       5.575  -1.761 -12.394  1.00  0.00     0.038 A 
HETATM    3  C3  UNL     1       5.256  -3.030 -12.856  1.00  0.00     0.065 A 
HETATM    4  C4  UNL     1       4.894  -3.229 -14.184  1.00  0.00     0.038 A 
HETATM    5  C5  UNL     1       4.836  -2.134 -15.050  1.00  0.00     0.026 A 
HETATM    6  C6  UNL     1       5.097  -0.839 -14.589  1.00  0.00     0.005 A 
ENDROOT
BRANCH   6   7
HETATM    7  N1  UNL     1       5.153   0.232 -15.488  1.00  0.00    -0.303 NA
HETATM    8  H5  UNL     1       4.666   1.062 -15.164  1.00  0.00     0.124 HD
HETATM    9  H6  UNL     1       4.902  -0.017 -16.439  1.00  0.00     0.124 HD
ENDBRANCH   6   7
BRANCH   3  10
HETATM   10  O1  UNL     1       5.328  -4.067 -11.976  1.00  0.00    -0.361 OA
HETATM   11  H7  UNL     1       4.751  -3.873 -11.220  1.00  0.00     0.217 HD
ENDBRANCH   3  10
TORSDOF 2
ENDMDL
MODEL 11
REMARK VINA RESULT:      -4.2      2.536      3.166
REMARK  2 active torsions:
REMARK  status: ('A' for Active; 'I' for Inactive)
REMARK    1  A    between atoms: C3_3  and  O1_8 
REMARK    2  A    between atoms: C6_6  and  N1_7 
ROOT
HETATM    1  C1  UNL     1       5.072  -1.837 -12.256  1.00  0.00     0.026 A 
HETATM    2  C2  UNL     1       5.103  -0.907 -13.297  1.00  0.00     0.038 A 
HETATM    3  C3  UNL     1       5.626  -1.272 -14.529  1.00  0.00     0.065 A 
HETATM    4  C4  UNL     1       6.105  -2.560 -14.742  1.00  0.00     0.038 A 
HETATM    5  C5  UNL     1       6.072  -3.485 -13.694  1.00  0.00     0.026 A 
HETATM    6  C6  UNL     1       5.602  -3.119 -12.428  1.00  0.00     0.005 A 
ENDROOT
BRANCH   6   7
HETATM    7  N1  UNL     1       5.462  -4.082 -11.423  1.00  0.00    -0.303 NA
HETATM    8  H5  UNL     1       5.723  -5.018 -11.715  1.00  0.00     0.124 HD
HETATM    9  H6  UNL     1       4.562  -4.060 -10.956  1.00  0.00     0.124 HD
ENDBRANCH   6   7
BRANCH   3  10
HETATM   10  O1  UNL     1       5.637  -0.338 -15.521  1.00  0.00    -0.361 OA
HETATM   11  H7  UNL     1       5.947  -0.757 -16.339  1.00  0.00     0.217 HD
ENDBRANCH   3  10
TORSDOF 2
ENDMDL
MODEL 12
REMARK VINA RESULT:      -3.9      3.064      3.664
REMARK  2 active torsions:
REMARK  status: ('A' for Active; 'I' for Inactive)
REMARK    1  A    between atoms: C3_3  and  O1_8 
REMARK    2  A    between atoms: C6_6  and  N1_7 
ROOT
HETATM    1  C1  UNL     1       3.832  -0.854 -13.567  1.00  0.00     0.026 A 
HETATM    2  C2  UNL     1       4.968  -0.668 -14.358  1.00  0.00     0.038 A 
HETATM    3  C3  UNL     1       5.804  -1.743 -14.624  1.00  0.00     0.065 A 
HETATM    4  C4  UNL     1       5.513  -3.007 -14.124  1.00  0.00     0.038 A 
HETATM    5  C5  UNL     1       4.375  -3.185 -13.332  1.00  0.00     0.026 A 
HETATM    6  C6  UNL     1       3.552  -2.103 -13.004  1.00  0.00     0.005 A 
ENDROOT
BRANCH   6   7
HETATM    7  N1  UNL     1       2.354  -2.312 -12.312  1.00  0.00    -0.303 NA
HETATM    8  H5  UNL     1       2.479  -2.463 -11.316  1.00  0.00     0.124 HD
HETATM    9  H6  UNL     1       1.752  -3.010 -12.736  1.00  0.00     0.124 HD
ENDBRANCH   6   7
BRANCH   3  10
HETATM   10  O1  UNL     1       6.900  -1.522 -15.403  1.00  0.00    -0.361 OA
HETATM   11  H7  UNL     1       7.154  -2.357 -15.826  1.00  0.00     0.217 HD
ENDBRANCH   3  10
TORSDOF 2
ENDMDL
MODEL 13
REMARK VINA RESULT:      -3.8      2.315      2.806
REMARK  2 active torsions:
REMARK  status: ('A' for Active; 'I' for Inactive)
REMARK    1  A    between atoms: C3_3  and  O1_8 
REMARK    2  A    between atoms: C6_6  and  N1_7 
ROOT
HETATM    1  C1  UNL     1       4.425  -2.650 -14.371  1.00  0.00     0.026 A 
HETATM    2  C2  UNL     1       3.872  -2.516 -13.095  1.00  0.00     0.038 A 
HETATM    3  C3  UNL     1       4.593  -2.934 -11.986  1.00  0.00     0.065 A 
HETATM    4  C4  UNL     1       5.868  -3.470 -12.130  1.00  0.00     0.038 A 
HETATM    5  C5  UNL     1       6.415  -3.602 -13.410  1.00  0.00     0.026 A 
HETATM    6  C6  UNL     1       5.681  -3.241 -14.544  1.00  0.00     0.005 A 
ENDROOT
BRANCH   6   7
HETATM    7  N1  UNL     1       6.280  -3.265 -15.809  1.00  0.00    -0.303 NA
HETATM    8  H5  UNL     1       5.617  -3.206 -16.576  1.00  0.00     0.124 HD
HETATM    9  H6  UNL     1       6.947  -4.019 -15.932  1.00  0.00     0.124 HD
ENDBRANCH   6   7
BRANCH   3  10
HETATM   10  O1  UNL     1       4.019  -2.785 -10.759  1.00  0.00    -0.361 OA
HETATM   11  H7  UNL     1       4.319  -3.509 -10.186  1.00  0.00     0.217 HD
ENDBRANCH   3  10
TORSDOF 2
ENDMDL
MODEL 14
REMARK VINA RESULT:      -3.8      2.376      3.238
REMARK  2 active torsions:
REMARK  status: ('A' for Active; 'I' for Inactive)
REMARK    1  A    between atoms: C3_3  and  O1_8 
REMARK    2  A    between atoms: C6_6  and  N1_7 
ROOT
HETATM    1  C1  UNL     1       6.018  -3.180 -14.256  1.00  0.00     0.026 A 
HETATM    2  C2  UNL     1       4.926  -3.296 -13.392  1.00  0.00     0.038 A 
HETATM    3  C3  UNL     1       4.053  -2.228 -13.240  1.00  0.00     0.065 A 
HETATM    4  C4  UNL     1       4.246  -1.049 -13.952  1.00  0.00     0.038 A 
HETATM    5  C5  UNL     1       5.342  -0.940 -14.813  1.00  0.00     0.026 A 
HETATM    6  C6  UNL     1       6.265  -1.984 -14.935  1.00  0.00     0.005 A 
ENDROOT
BRANCH   6   7
HETATM    7  N1  UNL     1       7.289  -1.912 -15.886  1.00  0.00    -0.303 NA
HETATM    8  H5  UNL     1       7.845  -2.759 -15.952  1.00  0.00     0.124 HD
HETATM    9  H6  UNL     1       7.862  -1.078 -15.810  1.00  0.00     0.124 HD
ENDBRANCH   6   7
BRANCH   3  10
HETATM   10  O1  UNL     1       2.998  -2.381 -12.391  1.00  0.00    -0.361 OA
HETATM   11  H7  UNL     1       2.809  -3.328 -12.300  1.00  0.00     0.217 HD
ENDBRANCH   3  10
TORSDOF 2
ENDMDL
MODEL 15
REMARK VINA RESULT:      -3.7      2.664      3.505
REMARK  2 active torsions:
REMARK  status: ('A' for Active; 'I' for Inactive)
REMARK    1  A    between atoms: C3_3  and  O1_8 
REMARK    2  A    between atoms: C6_6  and  N1_7 
ROOT
HETATM    1  C1  UNL     1       4.593  -2.865 -12.819  1.00  0.00     0.026 A 
HETATM    2  C2  UNL     1       4.422  -3.587 -14.002  1.00  0.00     0.038 A 
HETATM    3  C3  UNL     1       4.998  -3.127 -15.178  1.00  0.00     0.065 A 
HETATM    4  C4  UNL     1       5.758  -1.963 -15.186  1.00  0.00     0.038 A 
HETATM    5  C5  UNL     1       5.924  -1.245 -13.998  1.00  0.00     0.026 A 
HETATM    6  C6  UNL     1       5.302  -1.660 -12.815  1.00  0.00     0.005 A 
ENDROOT
BRANCH   6   7
HETATM    7  N1  UNL     1       5.571  -1.003 -11.609  1.00  0.00    -0.303 NA
HETATM    8  H5  UNL     1       5.427   0.001 -11.651  1.00  0.00     0.124 HD
HETATM    9  H6  UNL     1       6.466  -1.248 -11.199  1.00  0.00     0.124 HD
ENDBRANCH   6   7
BRANCH   3  10
HETATM   10  O1  UNL     1       4.810  -3.861 -16.310  1.00  0.00    -0.361 OA
HETATM   11  H7  UNL     1       4.341  -4.678 -16.076  1.00  0.00     0.217 HD
ENDBRANCH   3  10
TORSDOF 2
ENDMDL
MODEL 16
REMARK VINA RESULT:      -1.4     11.986     12.878
REMARK  2 active torsions:
REMARK  status: ('A' for Active; 'I' for Inactive)
REMARK    1  A    between atoms: C3_3  and  O1_8 
REMARK    2  A    between atoms: C6_6  and  N1_7 
ROOT
HETATM    1  C1  UNL     1      13.277   5.850 -14.040  1.00  0.00     0.026 A 
HETATM    2  C2  UNL     1      13.375   7.097 -14.663  1.00  0.00     0.038 A 
HETATM    3  C3  UNL     1      12.544   7.398 -15.733  1.00  0.00     0.065 A 
HETATM    4  C4  UNL     1      11.604   6.477 -16.180  1.00  0.00     0.038 A 
HETATM    5  C5  UNL     1      11.512   5.231 -15.553  1.00  0.00     0.026 A 
HETATM    6  C6  UNL     1      12.380   4.887 -14.511  1.00  0.00     0.005 A 
ENDROOT
BRANCH   6   7
HETATM    7  N1  UNL     1      12.202   3.687 -13.813  1.00  0.00    -0.303 NA
HETATM    8  H5  UNL     1      11.464   3.726 -13.117  1.00  0.00     0.124 HD
HETATM    9  H6  UNL     1      13.062   3.296 -13.443  1.00  0.00     0.124 HD
ENDBRANCH   6   7
BRANCH   3  10
HETATM   10  O1  UNL     1      12.669   8.625 -16.312  1.00  0.00    -0.361 OA
HETATM   11  H7  UNL     1      12.714   9.295 -15.611  1.00  0.00     0.217 HD
ENDBRANCH   3  10
TORSDOF 2
ENDMDL
MODEL 17
REMARK VINA RESULT:      -0.2      5.727      6.403
REMARK  2 active torsions:
REMARK  status: ('A' for Active; 'I' for Inactive)
REMARK    1  A    between atoms: C3_3  and  O1_8 
REMARK    2  A    between atoms: C6_6  and  N1_7 
ROOT
HETATM    1  C1  UNL     1       0.451  -2.308  -7.618  1.00  0.00     0.026 A 
HETATM    2  C2  UNL     1      -0.013  -1.526  -6.558  1.00  0.00     0.038 A 
HETATM    3  C3  UNL     1       0.743  -0.451  -6.113  1.00  0.00     0.065 A 
HETATM    4  C4  UNL     1       1.952  -0.135  -6.724  1.00  0.00     0.038 A 
HETATM    5  C5  UNL     1       2.411  -0.923  -7.784  1.00  0.00     0.026 A 
HETATM    6  C6  UNL     1       1.691  -2.045  -8.208  1.00  0.00     0.005 A 
ENDROOT
BRANCH   6   7
HETATM    7  N1  UNL     1       2.097  -2.755  -9.343  1.00  0.00    -0.303 NA
HETATM    8  H5  UNL     1       2.954  -3.283  -9.209  1.00  0.00     0.124 HD
HETATM    9  H6  UNL     1       2.116  -2.197 -10.191  1.00  0.00     0.124 HD
ENDBRANCH   6   7
BRANCH   3  10
HETATM   10  O1  UNL     1       0.255   0.289  -5.078  1.00  0.00    -0.361 OA
HETATM   11  H7  UNL     1      -0.672   0.507  -5.264  1.00  0.00     0.217 HD
ENDBRANCH   3  10
TORSDOF 2
ENDMDL
MODEL 18
REMARK VINA RESULT:       0.2      5.763      6.480
REMARK  2 active torsions:
REMARK  status: ('A' for Active; 'I' for Inactive)
REMARK    1  A    between atoms: C3_3  and  O1_8 
REMARK    2  A    between atoms: C6_6  and  N1_7 
ROOT
HETATM    1  C1  UNL     1       0.112  -1.516  -6.661  1.00  0.00     0.026 A 
HETATM    2  C2  UNL     1       0.520  -2.320  -7.728  1.00  0.00     0.038 A 
HETATM    3  C3  UNL     1       1.731  -2.068  -8.355  1.00  0.00     0.065 A 
HETATM    4  C4  UNL     1       2.551  -1.032  -7.921  1.00  0.00     0.038 A 
HETATM    5  C5  UNL     1       2.136  -0.230  -6.854  1.00  0.00     0.026 A 
HETATM    6  C6  UNL     1       0.892  -0.432  -6.247  1.00  0.00     0.005 A 
ENDROOT
BRANCH   6   7
HETATM    7  N1  UNL     1       0.538   0.297  -5.106  1.00  0.00    -0.303 NA
HETATM    8  H5  UNL     1      -0.002   1.132  -5.306  1.00  0.00     0.124 HD
HETATM    9  H6  UNL     1       1.315   0.480  -4.479  1.00  0.00     0.124 HD
ENDBRANCH   6   7
BRANCH   3  10
HETATM   10  O1  UNL     1       2.095  -2.876  -9.390  1.00  0.00    -0.361 OA
HETATM   11  H7  UNL     1       1.568  -2.638 -10.169  1.00  0.00     0.217 HD
ENDBRANCH   3  10
TORSDOF 2
ENDMDL
MODEL 19
REMARK VINA RESULT:       0.2      6.143      6.756
REMARK  2 active torsions:
REMARK  status: ('A' for Active; 'I' for Inactive)
REMARK    1  A    between atoms: C3_3  and  O1_8 
REMARK    2  A    between atoms: C6_6  and  N1_7 
ROOT
HETATM    1  C1  UNL     1       1.574  -2.137  -7.866  1.00  0.00     0.026 A 
HETATM    2  C2  UNL     1       2.242  -0.948  -7.564  1.00  0.00     0.038 A 
HETATM    3  C3  UNL     1       1.698  -0.069  -6.638  1.00  0.00     0.065 A 
HETATM    4  C4  UNL     1       0.501  -0.369  -5.996  1.00  0.00     0.038 A 
HETATM    5  C5  UNL     1      -0.162  -1.561  -6.304  1.00  0.00     0.026 A 
HETATM    6  C6  UNL     1       0.340  -2.431  -7.277  1.00  0.00     0.005 A 
ENDROOT
BRANCH   6   7
HETATM    7  N1  UNL     1      -0.266  -3.673  -7.492  1.00  0.00    -0.303 NA
HETATM    8  H5  UNL     1      -0.780  -4.021  -6.688  1.00  0.00     0.124 HD
HETATM    9  H6  UNL     1       0.357  -4.372  -7.883  1.00  0.00     0.124 HD
ENDBRANCH   6   7
BRANCH   3  10
HETATM   10  O1  UNL     1       2.381   1.078  -6.369  1.00  0.00    -0.361 OA
HETATM   11  H7  UNL     1       1.873   1.597  -5.724  1.00  0.00     0.217 HD
ENDBRANCH   3  10
TORSDOF 2
ENDMDL
MODEL 20
REMARK VINA RESULT:       0.4      5.892      6.456
REMARK  2 active torsions:
REMARK  status: ('A' for Active; 'I' for Inactive)
REMARK    1  A    between atoms: C3_3  and  O1_8 
REMARK    2  A    between atoms: C6_6  and  N1_7 
ROOT
HETATM    1  C1  UNL     1       2.295  -0.965  -7.594  1.00  0.00     0.026 A 
HETATM    2  C2  UNL     1       1.648  -2.162  -7.912  1.00  0.00     0.038 A 
HETATM    3  C3  UNL     1       0.440  -2.474  -7.305  1.00  0.00     0.065 A 
HETATM    4  C4  UNL     1      -0.141  -1.598  -6.394  1.00  0.00     0.038 A 
HETATM    5  C5  UNL     1       0.513  -0.403  -6.079  1.00  0.00     0.026 A 
HETATM    6  C6  UNL     1       1.759  -0.099  -6.637  1.00  0.00     0.005 A 
ENDROOT
BRANCH   6   7
HETATM    7  N1  UNL     1       2.347   1.150  -6.408  1.00  0.00    -0.303 NA
HETATM    8  H5  UNL     1       3.291   1.230  -6.774  1.00  0.00     0.124 HD
HETATM    9  H6  UNL     1       2.277   1.467  -5.447  1.00  0.00     0.124 HD
ENDBRANCH   6   7
BRANCH   3  10
HETATM   10  O1  UNL     1      -0.160  -3.649  -7.644  1.00  0.00    -0.361 OA
HETATM   11  H7  UNL     1      -1.123  -3.529  -7.601  1.00  0.00     0.217 HD
ENDBRANCH   3  10
TORSDOF 2
ENDMDL
