MODEL 1
REMARK VINA RESULT:      -7.3      0.000      0.000
REMARK  27 active torsions:
REMARK  status: ('A' for Active; 'I' for Inactive)
REMARK    1  A    between atoms: C2_2  and  S1_4 
REMARK    2  A    between atoms: S1_4  and  C3_5 
REMARK    3  A    between atoms: C3_5  and  C4_6 
REMARK    4  A    between atoms: C4_6  and  N1_7 
REMARK       I    between atoms: N1_7  and  C5_8 
REMARK    5  A    between atoms: C5_8  and  C6_10 
REMARK    6  A    between atoms: C6_10  and  C7_11 
REMARK    7  A    between atoms: C7_11  and  N2_12 
REMARK       I    between atoms: N2_12  and  C8_13 
REMARK    8  A    between atoms: C8_13  and  C9_15 
REMARK    9  A    between atoms: C9_15  and  C10_16 
REMARK   10  A    between atoms: C9_15  and  O17_54 
REMARK   11  A    between atoms: C10_16  and  C13_19 
REMARK   12  A    between atoms: C13_19  and  O4_20 
REMARK   13  A    between atoms: O4_20  and  P1_21 
REMARK   14  A    between atoms: P1_21  and  O6_23 
REMARK   15  A    between atoms: P1_21  and  O7_24 
REMARK   16  A    between atoms: O7_24  and  P2_25 
REMARK   17  A    between atoms: P2_25  and  O9_27 
REMARK   18  A    between atoms: P2_25  and  O10_28 
REMARK   19  A    between atoms: O10_28  and  C14_29 
REMARK   20  A    between atoms: C14_29  and  C15_30 
REMARK   21  A    between atoms: C16_31  and  O13_49 
REMARK   22  A    between atoms: C17_32  and  O12_48 
REMARK   23  A    between atoms: C18_33  and  N3_35 
REMARK   24  A    between atoms: C21_40  and  N7_47 
REMARK   25  A    between atoms: O13_49  and  P3_50 
REMARK   26  A    between atoms: P3_50  and  O15_52 
REMARK   27  A    between atoms: P3_50  and  O16_53 
ROOT
HETATM    1  C1  UNL     1       6.797  -2.778 -15.516  1.00  0.00     0.104 C 
HETATM    2  C2  UNL     1       5.604  -3.105 -14.670  1.00  0.00     0.182 C 
HETATM    3  O1  UNL     1       4.459  -3.161 -15.112  1.00  0.00    -0.286 OA
ENDROOT
BRANCH   2   4
HETATM    4  S1  UNL     1       5.971  -3.363 -12.970  1.00  0.00    -0.091 SA
BRANCH   4   5
HETATM    5  C3  UNL     1       5.097  -1.945 -12.231  1.00  0.00     0.102 C 
BRANCH   5   6
HETATM    6  C4  UNL     1       5.597  -0.613 -12.793  1.00  0.00     0.133 C 
BRANCH   6   7
HETATM    7  N1  UNL     1       6.191   0.234 -11.779  1.00  0.00    -0.360 N 
HETATM    8  C5  UNL     1       6.417   1.573 -11.995  1.00  0.00     0.219 C 
HETATM    9  O2  UNL     1       6.207   2.112 -13.076  1.00  0.00    -0.274 OA
HETATM   10  H8  UNL     1       6.437  -0.175 -10.887  1.00  0.00     0.162 HD
BRANCH   8  11
HETATM   11  C6  UNL     1       6.992   2.286 -10.791  1.00  0.00     0.122 C 
BRANCH  11  12
HETATM   12  C7  UNL     1       8.409   2.796 -11.053  1.00  0.00     0.132 C 
BRANCH  12  13
HETATM   13  N2  UNL     1       8.553   3.434 -12.344  1.00  0.00    -0.358 N 
HETATM   14  C8  UNL     1       9.003   4.739 -12.431  1.00  0.00     0.247 C 
HETATM   15  O3  UNL     1       9.179   5.435 -11.439  1.00  0.00    -0.271 OA
HETATM   16  H13 UNL     1       8.780   2.811 -13.117  1.00  0.00     0.162 HD
BRANCH  14  17
HETATM   17  C9  UNL     1       9.279   5.232 -13.859  1.00  0.00     0.219 C 
BRANCH  17  18
HETATM   18  C10 UNL     1      10.778   5.470 -14.179  1.00  0.00     0.009 C 
HETATM   19  C11 UNL     1      11.178   6.943 -14.009  1.00  0.00     0.020 C 
HETATM   20  C12 UNL     1      11.691   4.622 -13.270  1.00  0.00     0.020 C 
BRANCH  18  21
HETATM   21  C13 UNL     1      10.971   5.043 -15.662  1.00  0.00     0.192 C 
BRANCH  21  22
HETATM   22  O4  UNL     1      10.179   5.806 -16.549  1.00  0.00    -0.296 OA
BRANCH  22  23
HETATM   23  P1  UNL     1       9.905   5.368 -18.067  1.00  0.00     0.401 P 
HETATM   24  O5  UNL     1      10.103   3.909 -18.329  1.00  0.00    -0.631 OA
BRANCH  23  25
HETATM   25  O6  UNL     1      10.808   6.323 -18.997  1.00  0.00    -0.307 OA
HETATM   26  H23 UNL     1      11.524   5.838 -19.426  1.00  0.00     0.222 HD
ENDBRANCH  23  25
BRANCH  23  27
HETATM   27  O7  UNL     1       8.445   5.910 -18.393  1.00  0.00    -0.195 OA
BRANCH  27  28
HETATM   28  P2  UNL     1       7.220   4.892 -18.356  1.00  0.00     0.401 P 
HETATM   29  O8  UNL     1       6.825   4.260 -19.651  1.00  0.00    -0.631 OA
BRANCH  28  30
HETATM   30  O9  UNL     1       7.644   3.849 -17.224  1.00  0.00    -0.307 OA
HETATM   31  H24 UNL     1       7.783   4.254 -16.333  1.00  0.00     0.222 HD
ENDBRANCH  28  30
BRANCH  28  32
HETATM   32  O10 UNL     1       6.071   5.699 -17.595  1.00  0.00    -0.294 OA
BRANCH  32  33
HETATM   33  C14 UNL     1       4.774   5.168 -17.516  1.00  0.00     0.215 C 
BRANCH  33  34
HETATM   34  C15 UNL     1       3.821   6.316 -17.846  1.00  0.00     0.180 C 
HETATM   35  C16 UNL     1       4.326   7.604 -17.210  1.00  0.00     0.197 C 
HETATM   36  C17 UNL     1       3.234   8.006 -16.238  1.00  0.00     0.199 C 
HETATM   37  C18 UNL     1       1.997   7.342 -16.848  1.00  0.00     0.262 C 
HETATM   38  O11 UNL     1       2.488   6.089 -17.374  1.00  0.00    -0.353 OA
BRANCH  35  39
HETATM   39  O13 UNL     1       4.505   8.566 -18.244  1.00  0.00    -0.286 OA
BRANCH  39  40
HETATM   40  P3  UNL     1       5.850   9.427 -18.159  1.00  0.00     0.391 P 
HETATM   41  O14 UNL     1       6.102  10.019 -16.810  1.00  0.00    -0.632 OA
BRANCH  40  42
HETATM   42  O15 UNL     1       5.636  10.436 -19.383  1.00  0.00    -0.307 OA
HETATM   43  H36 UNL     1       6.177  10.160 -20.160  1.00  0.00     0.222 HD
ENDBRANCH  40  42
BRANCH  40  44
HETATM   44  O16 UNL     1       6.921   8.396 -18.723  1.00  0.00    -0.307 OA
HETATM   45  H37 UNL     1       7.750   8.823 -18.990  1.00  0.00     0.222 HD
ENDBRANCH  40  44
ENDBRANCH  39  40
ENDBRANCH  35  39
BRANCH  36  46
HETATM   46  O12 UNL     1       3.207   9.428 -16.082  1.00  0.00    -0.388 OA
HETATM   47  H35 UNL     1       2.267   9.670 -15.907  1.00  0.00     0.210 HD
ENDBRANCH  36  46
BRANCH  37  48
HETATM   48  N3  UNL     1       0.971   7.065 -15.863  1.00  0.00    -0.297 N 
HETATM   49  C19 UNL     1       0.917   7.522 -14.567  1.00  0.00     0.188 A 
HETATM   50  N4  UNL     1      -0.208   7.196 -13.970  1.00  0.00    -0.346 N 
HETATM   51  C20 UNL     1      -0.921   6.496 -14.927  1.00  0.00     0.116 A 
HETATM   52  H4  UNL     1      -0.492   7.411 -13.014  1.00  0.00     0.167 HD
HETATM   53  C21 UNL     1      -2.203   5.920 -14.928  1.00  0.00     0.109 A 
HETATM   54  C23 UNL     1      -0.185   6.373 -16.092  1.00  0.00     0.142 A 
HETATM   55  N5  UNL     1      -2.624   5.276 -16.043  1.00  0.00    -0.341 N 
HETATM   56  C22 UNL     1      -1.788   5.215 -17.099  1.00  0.00     0.183 A 
HETATM   57  H5  UNL     1      -3.550   4.848 -16.083  1.00  0.00     0.167 HD
HETATM   58  N6  UNL     1      -0.549   5.733 -17.217  1.00  0.00    -0.336 N 
HETATM   59  H6  UNL     1       0.036   5.651 -18.049  1.00  0.00     0.168 HD
BRANCH  53  60
HETATM   60  N7  UNL     1      -3.060   5.967 -13.840  1.00  0.00    -0.287 NA
HETATM   61  H33 UNL     1      -2.860   6.716 -13.181  1.00  0.00     0.125 HD
HETATM   62  H34 UNL     1      -3.251   5.054 -13.448  1.00  0.00     0.125 HD
ENDBRANCH  53  60
ENDBRANCH  37  48
ENDBRANCH  33  34
ENDBRANCH  32  33
ENDBRANCH  28  32
ENDBRANCH  27  28
ENDBRANCH  23  27
ENDBRANCH  22  23
ENDBRANCH  21  22
ENDBRANCH  18  21
ENDBRANCH  17  18
BRANCH  17  63
HETATM   63  O17 UNL     1       8.753   4.301 -14.812  1.00  0.00    -0.385 OA
HETATM   64  H38 UNL     1       9.354   3.537 -14.850  1.00  0.00     0.210 HD
ENDBRANCH  17  63
ENDBRANCH  14  17
ENDBRANCH  12  13
ENDBRANCH  11  12
ENDBRANCH   8  11
ENDBRANCH   6   7
ENDBRANCH   5   6
ENDBRANCH   4   5
ENDBRANCH   2   4
TORSDOF 27
ENDMDL
MODEL 2
REMARK VINA RESULT:      -7.2      5.515     10.265
REMARK  27 active torsions:
REMARK  status: ('A' for Active; 'I' for Inactive)
REMARK    1  A    between atoms: C2_2  and  S1_4 
REMARK    2  A    between atoms: S1_4  and  C3_5 
REMARK    3  A    between atoms: C3_5  and  C4_6 
REMARK    4  A    between atoms: C4_6  and  N1_7 
REMARK       I    between atoms: N1_7  and  C5_8 
REMARK    5  A    between atoms: C5_8  and  C6_10 
REMARK    6  A    between atoms: C6_10  and  C7_11 
REMARK    7  A    between atoms: C7_11  and  N2_12 
REMARK       I    between atoms: N2_12  and  C8_13 
REMARK    8  A    between atoms: C8_13  and  C9_15 
REMARK    9  A    between atoms: C9_15  and  C10_16 
REMARK   10  A    between atoms: C9_15  and  O17_54 
REMARK   11  A    between atoms: C10_16  and  C13_19 
REMARK   12  A    between atoms: C13_19  and  O4_20 
REMARK   13  A    between atoms: O4_20  and  P1_21 
REMARK   14  A    between atoms: P1_21  and  O6_23 
REMARK   15  A    between atoms: P1_21  and  O7_24 
REMARK   16  A    between atoms: O7_24  and  P2_25 
REMARK   17  A    between atoms: P2_25  and  O9_27 
REMARK   18  A    between atoms: P2_25  and  O10_28 
REMARK   19  A    between atoms: O10_28  and  C14_29 
REMARK   20  A    between atoms: C14_29  and  C15_30 
REMARK   21  A    between atoms: C16_31  and  O13_49 
REMARK   22  A    between atoms: C17_32  and  O12_48 
REMARK   23  A    between atoms: C18_33  and  N3_35 
REMARK   24  A    between atoms: C21_40  and  N7_47 
REMARK   25  A    between atoms: O13_49  and  P3_50 
REMARK   26  A    between atoms: P3_50  and  O15_52 
REMARK   27  A    between atoms: P3_50  and  O16_53 
ROOT
HETATM    1  C1  UNL     1      10.098   3.962 -19.634  1.00  0.00     0.104 C 
HETATM    2  C2  UNL     1      10.187   4.809 -18.401  1.00  0.00     0.182 C 
HETATM    3  O1  UNL     1      10.251   4.344 -17.266  1.00  0.00    -0.286 OA
ENDROOT
BRANCH   2   4
HETATM    4  S1  UNL     1      10.154   6.540 -18.707  1.00  0.00    -0.091 SA
BRANCH   4   5
HETATM    5  C3  UNL     1       8.416   6.745 -19.217  1.00  0.00     0.102 C 
BRANCH   5   6
HETATM    6  C4  UNL     1       7.446   6.217 -18.158  1.00  0.00     0.133 C 
BRANCH   6   7
HETATM    7  N1  UNL     1       6.616   5.137 -18.649  1.00  0.00    -0.360 N 
HETATM    8  C5  UNL     1       6.491   3.951 -17.964  1.00  0.00     0.219 C 
HETATM    9  O2  UNL     1       7.131   3.705 -16.948  1.00  0.00    -0.274 OA
HETATM   10  H8  UNL     1       6.111   5.266 -19.516  1.00  0.00     0.162 HD
BRANCH   8  11
HETATM   11  C6  UNL     1       5.534   2.978 -18.619  1.00  0.00     0.122 C 
BRANCH  11  12
HETATM   12  C7  UNL     1       5.165   1.825 -17.686  1.00  0.00     0.132 C 
BRANCH  12  13
HETATM   13  N2  UNL     1       5.387   0.522 -18.279  1.00  0.00    -0.358 N 
HETATM   14  C8  UNL     1       4.790  -0.601 -17.736  1.00  0.00     0.247 C 
HETATM   15  O3  UNL     1       4.160  -0.561 -16.687  1.00  0.00    -0.271 OA
HETATM   16  H13 UNL     1       5.557   0.521 -19.282  1.00  0.00     0.162 HD
BRANCH  14  17
HETATM   17  C9  UNL     1       4.963  -1.884 -18.561  1.00  0.00     0.219 C 
BRANCH  17  18
HETATM   18  C10 UNL     1       6.149  -2.780 -18.116  1.00  0.00     0.009 C 
HETATM   19  C11 UNL     1       5.692  -4.192 -17.723  1.00  0.00     0.020 C 
HETATM   20  C12 UNL     1       7.205  -2.916 -19.231  1.00  0.00     0.020 C 
BRANCH  18  21
HETATM   21  C13 UNL     1       6.778  -2.072 -16.882  1.00  0.00     0.192 C 
BRANCH  21  22
HETATM   22  O4  UNL     1       6.881  -2.930 -15.763  1.00  0.00    -0.296 OA
BRANCH  22  23
HETATM   23  P1  UNL     1       6.100  -2.666 -14.388  1.00  0.00     0.401 P 
HETATM   24  O5  UNL     1       6.422  -3.646 -13.304  1.00  0.00    -0.631 OA
BRANCH  23  25
HETATM   25  O6  UNL     1       4.533  -2.590 -14.751  1.00  0.00    -0.307 OA
HETATM   26  H23 UNL     1       4.094  -3.443 -14.639  1.00  0.00     0.222 HD
ENDBRANCH  23  25
BRANCH  23  27
HETATM   27  O7  UNL     1       6.407  -1.148 -14.026  1.00  0.00    -0.195 OA
BRANCH  27  28
HETATM   28  P2  UNL     1       5.511  -0.422 -12.927  1.00  0.00     0.401 P 
HETATM   29  O8  UNL     1       4.211   0.153 -13.387  1.00  0.00    -0.631 OA
BRANCH  28  30
HETATM   30  O9  UNL     1       5.366  -1.527 -11.784  1.00  0.00    -0.307 OA
HETATM   31  H24 UNL     1       6.203  -2.014 -11.584  1.00  0.00     0.222 HD
ENDBRANCH  28  30
BRANCH  28  32
HETATM   32  O10 UNL     1       6.516   0.600 -12.223  1.00  0.00    -0.294 OA
BRANCH  32  33
HETATM   33  C14 UNL     1       6.816   1.825 -12.837  1.00  0.00     0.215 C 
BRANCH  33  34
HETATM   34  C15 UNL     1       8.043   2.377 -12.112  1.00  0.00     0.180 C 
HETATM   35  C16 UNL     1       7.631   3.527 -11.203  1.00  0.00     0.197 C 
HETATM   36  C17 UNL     1       8.374   4.732 -11.748  1.00  0.00     0.199 C 
HETATM   37  C18 UNL     1       9.576   4.085 -12.439  1.00  0.00     0.262 C 
HETATM   38  O11 UNL     1       9.048   2.866 -13.007  1.00  0.00    -0.353 OA
BRANCH  35  39
HETATM   39  O13 UNL     1       8.030   3.205  -9.875  1.00  0.00    -0.286 OA
BRANCH  39  40
HETATM   40  P3  UNL     1       6.841   2.875  -8.859  1.00  0.00     0.391 P 
HETATM   41  O14 UNL     1       5.479   3.116  -9.426  1.00  0.00    -0.632 OA
BRANCH  40  42
HETATM   42  O15 UNL     1       7.281   3.745  -7.591  1.00  0.00    -0.307 OA
HETATM   43  H36 UNL     1       7.600   3.162  -6.862  1.00  0.00     0.222 HD
ENDBRANCH  40  42
BRANCH  40  44
HETATM   44  O16 UNL     1       7.204   1.390  -8.422  1.00  0.00    -0.307 OA
HETATM   45  H37 UNL     1       8.071   1.102  -8.749  1.00  0.00     0.222 HD
ENDBRANCH  40  44
ENDBRANCH  39  40
ENDBRANCH  35  39
BRANCH  36  46
HETATM   46  O12 UNL     1       8.643   5.665 -10.698  1.00  0.00    -0.388 OA
HETATM   47  H35 UNL     1       9.443   5.330 -10.227  1.00  0.00     0.210 HD
ENDBRANCH  36  46
BRANCH  37  48
HETATM   48  N3  UNL     1      10.112   4.904 -13.508  1.00  0.00    -0.297 N 
HETATM   49  C19 UNL     1       9.419   5.781 -14.309  1.00  0.00     0.188 A 
HETATM   50  N4  UNL     1      10.214   6.468 -15.101  1.00  0.00    -0.346 N 
HETATM   51  C20 UNL     1      11.486   6.017 -14.794  1.00  0.00     0.116 A 
HETATM   52  H4  UNL     1       9.952   7.174 -15.788  1.00  0.00     0.167 HD
HETATM   53  C21 UNL     1      12.763   6.381 -15.255  1.00  0.00     0.109 A 
HETATM   54  C23 UNL     1      11.433   5.020 -13.836  1.00  0.00     0.142 A 
HETATM   55  N5  UNL     1      13.842   5.731 -14.756  1.00  0.00    -0.341 N 
HETATM   56  C22 UNL     1      13.638   4.762 -13.842  1.00  0.00     0.183 A 
HETATM   57  H5  UNL     1      14.785   5.970 -15.064  1.00  0.00     0.167 HD
HETATM   58  N6  UNL     1      12.469   4.335 -13.321  1.00  0.00    -0.336 N 
HETATM   59  H6  UNL     1      12.383   3.591 -12.628  1.00  0.00     0.168 HD
BRANCH  53  60
HETATM   60  N7  UNL     1      12.977   7.366 -16.205  1.00  0.00    -0.287 NA
HETATM   61  H33 UNL     1      13.864   7.856 -16.108  1.00  0.00     0.125 HD
HETATM   62  H34 UNL     1      12.159   7.935 -16.376  1.00  0.00     0.125 HD
ENDBRANCH  53  60
ENDBRANCH  37  48
ENDBRANCH  33  34
ENDBRANCH  32  33
ENDBRANCH  28  32
ENDBRANCH  27  28
ENDBRANCH  23  27
ENDBRANCH  22  23
ENDBRANCH  21  22
ENDBRANCH  18  21
ENDBRANCH  17  18
BRANCH  17  63
HETATM   63  O17 UNL     1       3.763  -2.664 -18.518  1.00  0.00    -0.385 OA
HETATM   64  H38 UNL     1       3.014  -2.076 -18.707  1.00  0.00     0.210 HD
ENDBRANCH  17  63
ENDBRANCH  14  17
ENDBRANCH  12  13
ENDBRANCH  11  12
ENDBRANCH   8  11
ENDBRANCH   6   7
ENDBRANCH   5   6
ENDBRANCH   4   5
ENDBRANCH   2   4
TORSDOF 27
ENDMDL
MODEL 3
REMARK VINA RESULT:      -6.6      3.370      7.607
REMARK  27 active torsions:
REMARK  status: ('A' for Active; 'I' for Inactive)
REMARK    1  A    between atoms: C2_2  and  S1_4 
REMARK    2  A    between atoms: S1_4  and  C3_5 
REMARK    3  A    between atoms: C3_5  and  C4_6 
REMARK    4  A    between atoms: C4_6  and  N1_7 
REMARK       I    between atoms: N1_7  and  C5_8 
REMARK    5  A    between atoms: C5_8  and  C6_10 
REMARK    6  A    between atoms: C6_10  and  C7_11 
REMARK    7  A    between atoms: C7_11  and  N2_12 
REMARK       I    between atoms: N2_12  and  C8_13 
REMARK    8  A    between atoms: C8_13  and  C9_15 
REMARK    9  A    between atoms: C9_15  and  C10_16 
REMARK   10  A    between atoms: C9_15  and  O17_54 
REMARK   11  A    between atoms: C10_16  and  C13_19 
REMARK   12  A    between atoms: C13_19  and  O4_20 
REMARK   13  A    between atoms: O4_20  and  P1_21 
REMARK   14  A    between atoms: P1_21  and  O6_23 
REMARK   15  A    between atoms: P1_21  and  O7_24 
REMARK   16  A    between atoms: O7_24  and  P2_25 
REMARK   17  A    between atoms: P2_25  and  O9_27 
REMARK   18  A    between atoms: P2_25  and  O10_28 
REMARK   19  A    between atoms: O10_28  and  C14_29 
REMARK   20  A    between atoms: C14_29  and  C15_30 
REMARK   21  A    between atoms: C16_31  and  O13_49 
REMARK   22  A    between atoms: C17_32  and  O12_48 
REMARK   23  A    between atoms: C18_33  and  N3_35 
REMARK   24  A    between atoms: C21_40  and  N7_47 
REMARK   25  A    between atoms: O13_49  and  P3_50 
REMARK   26  A    between atoms: P3_50  and  O15_52 
REMARK   27  A    between atoms: P3_50  and  O16_53 
ROOT
HETATM    1  C1  UNL     1       6.975  -2.406 -15.898  1.00  0.00     0.104 C 
HETATM    2  C2  UNL     1       5.505  -2.391 -15.611  1.00  0.00     0.182 C 
HETATM    3  O1  UNL     1       4.809  -3.404 -15.604  1.00  0.00    -0.286 OA
ENDROOT
BRANCH   2   4
HETATM    4  S1  UNL     1       4.839  -0.790 -15.321  1.00  0.00    -0.091 SA
BRANCH   4   5
HETATM    5  C3  UNL     1       4.239  -0.381 -16.992  1.00  0.00     0.102 C 
BRANCH   5   6
HETATM    6  C4  UNL     1       5.199   0.554 -17.729  1.00  0.00     0.133 C 
BRANCH   6   7
HETATM    7  N1  UNL     1       5.136   1.917 -17.242  1.00  0.00    -0.360 N 
HETATM    8  C5  UNL     1       4.932   2.980 -18.091  1.00  0.00     0.219 C 
HETATM    9  O2  UNL     1       4.872   2.851 -19.308  1.00  0.00    -0.274 OA
HETATM   10  H8  UNL     1       5.238   2.085 -16.250  1.00  0.00     0.162 HD
BRANCH   8  11
HETATM   11  C6  UNL     1       4.843   4.310 -17.374  1.00  0.00     0.122 C 
BRANCH  11  12
HETATM   12  C7  UNL     1       5.396   5.454 -18.224  1.00  0.00     0.132 C 
BRANCH  12  13
HETATM   13  N2  UNL     1       4.753   6.723 -17.954  1.00  0.00    -0.358 N 
HETATM   14  C8  UNL     1       5.165   7.500 -16.887  1.00  0.00     0.247 C 
HETATM   15  O3  UNL     1       5.988   7.104 -16.072  1.00  0.00    -0.271 OA
HETATM   16  H13 UNL     1       4.385   7.210 -18.769  1.00  0.00     0.162 HD
BRANCH  14  17
HETATM   17  C9  UNL     1       4.525   8.895 -16.820  1.00  0.00     0.219 C 
BRANCH  17  18
HETATM   18  C10 UNL     1       5.499  10.064 -17.121  1.00  0.00     0.009 C 
HETATM   19  C11 UNL     1       4.780  11.270 -17.742  1.00  0.00     0.020 C 
HETATM   20  C12 UNL     1       6.216  10.545 -15.843  1.00  0.00     0.020 C 
BRANCH  18  21
HETATM   21  C13 UNL     1       6.543   9.502 -18.128  1.00  0.00     0.192 C 
BRANCH  21  22
HETATM   22  O4  UNL     1       7.873   9.698 -17.690  1.00  0.00    -0.296 OA
BRANCH  22  23
HETATM   23  P1  UNL     1       9.075   8.718 -18.094  1.00  0.00     0.401 P 
HETATM   24  O5  UNL     1      10.435   9.249 -17.765  1.00  0.00    -0.631 OA
BRANCH  23  25
HETATM   25  O6  UNL     1       8.879   8.357 -19.651  1.00  0.00    -0.307 OA
HETATM   26  H23 UNL     1       9.530   8.800 -20.210  1.00  0.00     0.222 HD
ENDBRANCH  23  25
BRANCH  23  27
HETATM   27  O7  UNL     1       8.720   7.327 -17.408  1.00  0.00    -0.195 OA
BRANCH  27  28
HETATM   28  P2  UNL     1       9.345   5.990 -18.009  1.00  0.00     0.401 P 
HETATM   29  O8  UNL     1       8.564   5.300 -19.079  1.00  0.00    -0.631 OA
BRANCH  28  30
HETATM   30  O9  UNL     1      10.809   6.439 -18.458  1.00  0.00    -0.307 OA
HETATM   31  H24 UNL     1      11.513   5.771 -18.269  1.00  0.00     0.222 HD
ENDBRANCH  28  30
BRANCH  28  32
HETATM   32  O10 UNL     1       9.689   5.112 -16.720  1.00  0.00    -0.294 OA
BRANCH  32  33
HETATM   33  C14 UNL     1       8.810   5.095 -15.626  1.00  0.00     0.215 C 
BRANCH  33  34
HETATM   34  C15 UNL     1       9.559   5.750 -14.467  1.00  0.00     0.180 C 
HETATM   35  C16 UNL     1      11.017   5.310 -14.481  1.00  0.00     0.197 C 
HETATM   36  C17 UNL     1      11.209   4.572 -13.170  1.00  0.00     0.199 C 
HETATM   37  C18 UNL     1      10.124   5.194 -12.288  1.00  0.00     0.262 C 
HETATM   38  O11 UNL     1       9.014   5.411 -13.187  1.00  0.00    -0.353 OA
BRANCH  35  39
HETATM   39  O13 UNL     1      11.829   6.476 -14.565  1.00  0.00    -0.286 OA
BRANCH  39  40
HETATM   40  P3  UNL     1      13.030   6.406 -15.618  1.00  0.00     0.391 P 
HETATM   41  O14 UNL     1      14.385   6.516 -14.996  1.00  0.00    -0.632 OA
BRANCH  40  42
HETATM   42  O15 UNL     1      12.593   7.551 -16.647  1.00  0.00    -0.307 OA
HETATM   43  H36 UNL     1      12.167   7.157 -17.445  1.00  0.00     0.222 HD
ENDBRANCH  40  42
BRANCH  40  44
HETATM   44  O16 UNL     1      12.685   5.065 -16.400  1.00  0.00    -0.307 OA
HETATM   45  H37 UNL     1      12.338   4.370 -15.820  1.00  0.00     0.222 HD
ENDBRANCH  40  44
ENDBRANCH  39  40
ENDBRANCH  35  39
BRANCH  36  46
HETATM   46  O12 UNL     1      12.564   4.691 -12.727  1.00  0.00    -0.388 OA
HETATM   47  H35 UNL     1      13.030   3.879 -13.038  1.00  0.00     0.210 HD
ENDBRANCH  36  46
BRANCH  37  48
HETATM   48  N3  UNL     1       9.696   4.308 -11.223  1.00  0.00    -0.297 N 
HETATM   49  C19 UNL     1      10.102   4.331  -9.909  1.00  0.00     0.188 A 
HETATM   50  N4  UNL     1       9.433   3.477  -9.166  1.00  0.00    -0.346 N 
HETATM   51  C20 UNL     1       8.546   2.874 -10.041  1.00  0.00     0.116 A 
HETATM   52  H4  UNL     1       9.543   3.298  -8.168  1.00  0.00     0.167 HD
HETATM   53  C21 UNL     1       7.537   1.912  -9.861  1.00  0.00     0.109 A 
HETATM   54  C23 UNL     1       8.726   3.351 -11.326  1.00  0.00     0.142 A 
HETATM   55  N5  UNL     1       6.828   1.506 -10.943  1.00  0.00    -0.341 N 
HETATM   56  C22 UNL     1       7.130   2.042 -12.142  1.00  0.00     0.183 A 
HETATM   57  H5  UNL     1       6.086   0.812 -10.851  1.00  0.00     0.167 HD
HETATM   58  N6  UNL     1       8.063   2.972 -12.433  1.00  0.00    -0.336 N 
HETATM   59  H6  UNL     1       8.242   3.339 -13.368  1.00  0.00     0.168 HD
BRANCH  53  60
HETATM   60  N7  UNL     1       7.233   1.345  -8.633  1.00  0.00    -0.287 NA
HETATM   61  H33 UNL     1       6.898   0.386  -8.686  1.00  0.00     0.125 HD
HETATM   62  H34 UNL     1       6.725   1.973  -8.025  1.00  0.00     0.125 HD
ENDBRANCH  53  60
ENDBRANCH  37  48
ENDBRANCH  33  34
ENDBRANCH  32  33
ENDBRANCH  28  32
ENDBRANCH  27  28
ENDBRANCH  23  27
ENDBRANCH  22  23
ENDBRANCH  21  22
ENDBRANCH  18  21
ENDBRANCH  17  18
BRANCH  17  63
HETATM   63  O17 UNL     1       3.423   8.976 -17.732  1.00  0.00    -0.385 OA
HETATM   64  H38 UNL     1       3.703   9.507 -18.496  1.00  0.00     0.210 HD
ENDBRANCH  17  63
ENDBRANCH  14  17
ENDBRANCH  12  13
ENDBRANCH  11  12
ENDBRANCH   8  11
ENDBRANCH   6   7
ENDBRANCH   5   6
ENDBRANCH   4   5
ENDBRANCH   2   4
TORSDOF 27
ENDMDL
MODEL 4
REMARK VINA RESULT:      -6.5      4.794      8.592
REMARK  27 active torsions:
REMARK  status: ('A' for Active; 'I' for Inactive)
REMARK    1  A    between atoms: C2_2  and  S1_4 
REMARK    2  A    between atoms: S1_4  and  C3_5 
REMARK    3  A    between atoms: C3_5  and  C4_6 
REMARK    4  A    between atoms: C4_6  and  N1_7 
REMARK       I    between atoms: N1_7  and  C5_8 
REMARK    5  A    between atoms: C5_8  and  C6_10 
REMARK    6  A    between atoms: C6_10  and  C7_11 
REMARK    7  A    between atoms: C7_11  and  N2_12 
REMARK       I    between atoms: N2_12  and  C8_13 
REMARK    8  A    between atoms: C8_13  and  C9_15 
REMARK    9  A    between atoms: C9_15  and  C10_16 
REMARK   10  A    between atoms: C9_15  and  O17_54 
REMARK   11  A    between atoms: C10_16  and  C13_19 
REMARK   12  A    between atoms: C13_19  and  O4_20 
REMARK   13  A    between atoms: O4_20  and  P1_21 
REMARK   14  A    between atoms: P1_21  and  O6_23 
REMARK   15  A    between atoms: P1_21  and  O7_24 
REMARK   16  A    between atoms: O7_24  and  P2_25 
REMARK   17  A    between atoms: P2_25  and  O9_27 
REMARK   18  A    between atoms: P2_25  and  O10_28 
REMARK   19  A    between atoms: O10_28  and  C14_29 
REMARK   20  A    between atoms: C14_29  and  C15_30 
REMARK   21  A    between atoms: C16_31  and  O13_49 
REMARK   22  A    between atoms: C17_32  and  O12_48 
REMARK   23  A    between atoms: C18_33  and  N3_35 
REMARK   24  A    between atoms: C21_40  and  N7_47 
REMARK   25  A    between atoms: O13_49  and  P3_50 
REMARK   26  A    between atoms: P3_50  and  O15_52 
REMARK   27  A    between atoms: P3_50  and  O16_53 
ROOT
HETATM    1  C1  UNL     1       5.424   4.096 -16.674  1.00  0.00     0.104 C 
HETATM    2  C2  UNL     1       5.962   4.934 -17.793  1.00  0.00     0.182 C 
HETATM    3  O1  UNL     1       5.402   5.945 -18.208  1.00  0.00    -0.286 OA
ENDROOT
BRANCH   2   4
HETATM    4  S1  UNL     1       7.454   4.328 -18.499  1.00  0.00    -0.091 SA
BRANCH   4   5
HETATM    5  C3  UNL     1       8.631   4.735 -17.169  1.00  0.00     0.102 C 
BRANCH   5   6
HETATM    6  C4  UNL     1      10.076   4.750 -17.672  1.00  0.00     0.133 C 
BRANCH   6   7
HETATM    7  N1  UNL     1      10.632   6.086 -17.734  1.00  0.00    -0.360 N 
HETATM    8  C5  UNL     1      11.953   6.334 -17.440  1.00  0.00     0.219 C 
HETATM    9  O2  UNL     1      12.714   5.463 -17.034  1.00  0.00    -0.274 OA
HETATM   10  H8  UNL     1      10.031   6.851 -18.008  1.00  0.00     0.162 HD
BRANCH   8  11
HETATM   11  C6  UNL     1      12.344   7.785 -17.620  1.00  0.00     0.122 C 
BRANCH  11  12
HETATM   12  C7  UNL     1      11.310   8.558 -18.437  1.00  0.00     0.132 C 
BRANCH  12  13
HETATM   13  N2  UNL     1      10.791   9.718 -17.743  1.00  0.00    -0.358 N 
HETATM   14  C8  UNL     1       9.643   9.616 -16.977  1.00  0.00     0.247 C 
HETATM   15  O3  UNL     1       8.967   8.596 -16.950  1.00  0.00    -0.271 OA
HETATM   16  H13 UNL     1      11.486  10.402 -17.451  1.00  0.00     0.162 HD
BRANCH  14  17
HETATM   17  C9  UNL     1       9.303  10.869 -16.156  1.00  0.00     0.219 C 
BRANCH  17  18
HETATM   18  C10 UNL     1       9.938  10.902 -14.741  1.00  0.00     0.009 C 
HETATM   19  C11 UNL     1      11.473  10.874 -14.795  1.00  0.00     0.020 C 
HETATM   20  C12 UNL     1       9.513  12.162 -13.960  1.00  0.00     0.020 C 
BRANCH  18  21
HETATM   21  C13 UNL     1       9.418   9.631 -14.010  1.00  0.00     0.192 C 
BRANCH  21  22
HETATM   22  O4  UNL     1      10.443   8.955 -13.310  1.00  0.00    -0.296 OA
BRANCH  22  23
HETATM   23  P1  UNL     1      10.972   7.501 -13.730  1.00  0.00     0.401 P 
HETATM   24  O5  UNL     1      12.421   7.461 -14.101  1.00  0.00    -0.631 OA
BRANCH  23  25
HETATM   25  O6  UNL     1       9.990   6.966 -14.888  1.00  0.00    -0.307 OA
HETATM   26  H23 UNL     1       9.225   6.501 -14.526  1.00  0.00     0.222 HD
ENDBRANCH  23  25
BRANCH  23  27
HETATM   27  O7  UNL     1      10.569   6.552 -12.519  1.00  0.00    -0.195 OA
BRANCH  27  28
HETATM   28  P2  UNL     1      10.411   4.989 -12.786  1.00  0.00     0.401 P 
HETATM   29  O8  UNL     1      11.194   4.413 -13.921  1.00  0.00    -0.631 OA
BRANCH  28  30
HETATM   30  O9  UNL     1      10.748   4.339 -11.367  1.00  0.00    -0.307 OA
HETATM   31  H24 UNL     1      11.157   4.967 -10.722  1.00  0.00     0.222 HD
ENDBRANCH  28  30
BRANCH  28  32
HETATM   32  O10 UNL     1       8.831   4.765 -12.844  1.00  0.00    -0.294 OA
BRANCH  32  33
HETATM   33  C14 UNL     1       8.298   3.718 -13.612  1.00  0.00     0.215 C 
BRANCH  33  34
HETATM   34  C15 UNL     1       6.967   3.346 -12.960  1.00  0.00     0.180 C 
HETATM   35  C16 UNL     1       7.221   2.629 -11.641  1.00  0.00     0.197 C 
HETATM   36  C17 UNL     1       6.626   1.247 -11.832  1.00  0.00     0.199 C 
HETATM   37  C18 UNL     1       5.566   1.499 -12.907  1.00  0.00     0.262 C 
HETATM   38  O11 UNL     1       6.167   2.484 -13.777  1.00  0.00    -0.353 OA
BRANCH  35  39
HETATM   39  O13 UNL     1       6.564   3.358 -10.609  1.00  0.00    -0.286 OA
BRANCH  39  40
HETATM   40  P3  UNL     1       7.473   3.744  -9.351  1.00  0.00     0.391 P 
HETATM   41  O14 UNL     1       6.690   4.116  -8.134  1.00  0.00    -0.632 OA
BRANCH  40  42
HETATM   42  O15 UNL     1       8.416   4.864  -9.996  1.00  0.00    -0.307 OA
HETATM   43  H36 UNL     1       7.880   5.536 -10.478  1.00  0.00     0.222 HD
ENDBRANCH  40  42
BRANCH  40  44
HETATM   44  O16 UNL     1       8.430   2.478  -9.254  1.00  0.00    -0.307 OA
HETATM   45  H37 UNL     1       9.057   2.536  -8.516  1.00  0.00     0.222 HD
ENDBRANCH  40  44
ENDBRANCH  39  40
ENDBRANCH  35  39
BRANCH  36  46
HETATM   46  O12 UNL     1       6.180   0.722 -10.580  1.00  0.00    -0.388 OA
HETATM   47  H35 UNL     1       5.709  -0.122 -10.784  1.00  0.00     0.210 HD
ENDBRANCH  36  46
BRANCH  37  48
HETATM   48  N3  UNL     1       5.267   0.312 -13.683  1.00  0.00    -0.297 N 
HETATM   49  C19 UNL     1       4.930   0.253 -15.015  1.00  0.00     0.188 A 
HETATM   50  N4  UNL     1       4.845  -0.985 -15.453  1.00  0.00    -0.346 N 
HETATM   51  C20 UNL     1       5.147  -1.766 -14.352  1.00  0.00     0.116 A 
HETATM   52  H4  UNL     1       4.609  -1.298 -16.394  1.00  0.00     0.167 HD
HETATM   53  C21 UNL     1       5.268  -3.155 -14.174  1.00  0.00     0.109 A 
HETATM   54  C23 UNL     1       5.373  -0.977 -13.239  1.00  0.00     0.142 A 
HETATM   55  N5  UNL     1       5.573  -3.627 -12.940  1.00  0.00    -0.341 N 
HETATM   56  C22 UNL     1       5.743  -2.739 -11.941  1.00  0.00     0.183 A 
HETATM   57  H5  UNL     1       5.673  -4.629 -12.773  1.00  0.00     0.167 HD
HETATM   58  N6  UNL     1       5.662  -1.394 -11.994  1.00  0.00    -0.336 N 
HETATM   59  H6  UNL     1       5.802  -0.774 -11.195  1.00  0.00     0.168 HD
BRANCH  53  60
HETATM   60  N7  UNL     1       5.080  -4.074 -15.195  1.00  0.00    -0.287 NA
HETATM   61  H33 UNL     1       5.847  -4.732 -15.311  1.00  0.00     0.125 HD
HETATM   62  H34 UNL     1       4.705  -3.657 -16.036  1.00  0.00     0.125 HD
ENDBRANCH  53  60
ENDBRANCH  37  48
ENDBRANCH  33  34
ENDBRANCH  32  33
ENDBRANCH  28  32
ENDBRANCH  27  28
ENDBRANCH  23  27
ENDBRANCH  22  23
ENDBRANCH  21  22
ENDBRANCH  18  21
ENDBRANCH  17  18
BRANCH  17  63
HETATM   63  O17 UNL     1       9.707  12.046 -16.864  1.00  0.00    -0.385 OA
HETATM   64  H38 UNL     1      10.441  12.455 -16.375  1.00  0.00     0.210 HD
ENDBRANCH  17  63
ENDBRANCH  14  17
ENDBRANCH  12  13
ENDBRANCH  11  12
ENDBRANCH   8  11
ENDBRANCH   6   7
ENDBRANCH   5   6
ENDBRANCH   4   5
ENDBRANCH   2   4
TORSDOF 27
ENDMDL
MODEL 5
REMARK VINA RESULT:      -6.2      2.991      4.198
REMARK  27 active torsions:
REMARK  status: ('A' for Active; 'I' for Inactive)
REMARK    1  A    between atoms: C2_2  and  S1_4 
REMARK    2  A    between atoms: S1_4  and  C3_5 
REMARK    3  A    between atoms: C3_5  and  C4_6 
REMARK    4  A    between atoms: C4_6  and  N1_7 
REMARK       I    between atoms: N1_7  and  C5_8 
REMARK    5  A    between atoms: C5_8  and  C6_10 
REMARK    6  A    between atoms: C6_10  and  C7_11 
REMARK    7  A    between atoms: C7_11  and  N2_12 
REMARK       I    between atoms: N2_12  and  C8_13 
REMARK    8  A    between atoms: C8_13  and  C9_15 
REMARK    9  A    between atoms: C9_15  and  C10_16 
REMARK   10  A    between atoms: C9_15  and  O17_54 
REMARK   11  A    between atoms: C10_16  and  C13_19 
REMARK   12  A    between atoms: C13_19  and  O4_20 
REMARK   13  A    between atoms: O4_20  and  P1_21 
REMARK   14  A    between atoms: P1_21  and  O6_23 
REMARK   15  A    between atoms: P1_21  and  O7_24 
REMARK   16  A    between atoms: O7_24  and  P2_25 
REMARK   17  A    between atoms: P2_25  and  O9_27 
REMARK   18  A    between atoms: P2_25  and  O10_28 
REMARK   19  A    between atoms: O10_28  and  C14_29 
REMARK   20  A    between atoms: C14_29  and  C15_30 
REMARK   21  A    between atoms: C16_31  and  O13_49 
REMARK   22  A    between atoms: C17_32  and  O12_48 
REMARK   23  A    between atoms: C18_33  and  N3_35 
REMARK   24  A    between atoms: C21_40  and  N7_47 
REMARK   25  A    between atoms: O13_49  and  P3_50 
REMARK   26  A    between atoms: P3_50  and  O15_52 
REMARK   27  A    between atoms: P3_50  and  O16_53 
ROOT
HETATM    1  C1  UNL     1       6.768  -2.694 -15.480  1.00  0.00     0.104 C 
HETATM    2  C2  UNL     1       5.597  -3.090 -14.633  1.00  0.00     0.182 C 
HETATM    3  O1  UNL     1       4.464  -3.252 -15.080  1.00  0.00    -0.286 OA
ENDROOT
BRANCH   2   4
HETATM    4  S1  UNL     1       5.967  -3.268 -12.923  1.00  0.00    -0.091 SA
BRANCH   4   5
HETATM    5  C3  UNL     1       5.079  -1.827 -12.248  1.00  0.00     0.102 C 
BRANCH   5   6
HETATM    6  C4  UNL     1       5.585  -0.514 -12.848  1.00  0.00     0.133 C 
BRANCH   6   7
HETATM    7  N1  UNL     1       6.198   0.352 -11.863  1.00  0.00    -0.360 N 
HETATM    8  C5  UNL     1       6.545   1.651 -12.156  1.00  0.00     0.219 C 
HETATM    9  O2  UNL     1       6.432   2.126 -13.280  1.00  0.00    -0.274 OA
HETATM   10  H8  UNL     1       6.367  -0.011 -10.934  1.00  0.00     0.162 HD
BRANCH   8  11
HETATM   11  C6  UNL     1       7.120   2.399 -10.973  1.00  0.00     0.122 C 
BRANCH  11  12
HETATM   12  C7  UNL     1       8.559   2.846 -11.225  1.00  0.00     0.132 C 
BRANCH  12  13
HETATM   13  N2  UNL     1       8.721   3.563 -12.472  1.00  0.00    -0.358 N 
HETATM   14  C8  UNL     1       9.225   4.851 -12.476  1.00  0.00     0.247 C 
HETATM   15  O3  UNL     1       9.438   5.470 -11.442  1.00  0.00    -0.271 OA
HETATM   16  H13 UNL     1       8.914   2.985 -13.288  1.00  0.00     0.162 HD
BRANCH  14  17
HETATM   17  C9  UNL     1       9.510   5.426 -13.871  1.00  0.00     0.219 C 
BRANCH  17  18
HETATM   18  C10 UNL     1      11.017   5.547 -14.221  1.00  0.00     0.009 C 
HETATM   19  C11 UNL     1      11.895   4.683 -13.303  1.00  0.00     0.020 C 
HETATM   20  C12 UNL     1      11.295   5.126 -15.678  1.00  0.00     0.020 C 
BRANCH  18  21
HETATM   21  C13 UNL     1      11.380   7.048 -14.030  1.00  0.00     0.192 C 
BRANCH  21  22
HETATM   22  O4  UNL     1      10.250   7.841 -13.728  1.00  0.00    -0.296 OA
BRANCH  22  23
HETATM   23  P1  UNL     1       9.878   9.172 -14.541  1.00  0.00     0.401 P 
HETATM   24  O5  UNL     1      10.752   9.428 -15.728  1.00  0.00    -0.631 OA
BRANCH  23  25
HETATM   25  O6  UNL     1       9.861  10.378 -13.475  1.00  0.00    -0.307 OA
HETATM   26  H23 UNL     1       9.042  10.889 -13.519  1.00  0.00     0.222 HD
ENDBRANCH  23  25
BRANCH  23  27
HETATM   27  O7  UNL     1       8.329   9.031 -14.873  1.00  0.00    -0.195 OA
BRANCH  27  28
HETATM   28  P2  UNL     1       7.886   8.138 -16.116  1.00  0.00     0.401 P 
HETATM   29  O8  UNL     1       8.938   7.283 -16.743  1.00  0.00    -0.631 OA
BRANCH  28  30
HETATM   30  O9  UNL     1       6.634   7.323 -15.554  1.00  0.00    -0.307 OA
HETATM   31  H24 UNL     1       6.873   6.482 -15.092  1.00  0.00     0.222 HD
ENDBRANCH  28  30
BRANCH  28  32
HETATM   32  O10 UNL     1       7.152   9.169 -17.090  1.00  0.00    -0.294 OA
BRANCH  32  33
HETATM   33  C14 UNL     1       7.860  10.257 -17.623  1.00  0.00     0.215 C 
BRANCH  33  34
HETATM   34  C15 UNL     1       6.972  11.484 -17.422  1.00  0.00     0.180 C 
HETATM   35  C16 UNL     1       7.026  11.926 -15.965  1.00  0.00     0.197 C 
HETATM   36  C17 UNL     1       5.602  11.775 -15.465  1.00  0.00     0.199 C 
HETATM   37  C18 UNL     1       4.790  11.903 -16.756  1.00  0.00     0.262 C 
HETATM   38  O11 UNL     1       5.600  11.241 -17.753  1.00  0.00    -0.353 OA
BRANCH  35  39
HETATM   39  O13 UNL     1       7.466  13.280 -15.932  1.00  0.00    -0.286 OA
BRANCH  39  40
HETATM   40  P3  UNL     1       8.763  13.560 -15.039  1.00  0.00     0.391 P 
HETATM   41  O14 UNL     1       9.199  14.990 -15.043  1.00  0.00    -0.632 OA
BRANCH  40  42
HETATM   42  O15 UNL     1       9.776  12.475 -15.634  1.00  0.00    -0.307 OA
HETATM   43  H36 UNL     1      10.701  12.669 -15.352  1.00  0.00     0.222 HD
ENDBRANCH  40  42
BRANCH  40  44
HETATM   44  O16 UNL     1       8.330  12.926 -13.647  1.00  0.00    -0.307 OA
HETATM   45  H37 UNL     1       7.845  12.092 -13.747  1.00  0.00     0.222 HD
ENDBRANCH  40  44
ENDBRANCH  39  40
ENDBRANCH  35  39
BRANCH  36  46
HETATM   46  O12 UNL     1       5.338  12.723 -14.427  1.00  0.00    -0.388 OA
HETATM   47  H35 UNL     1       6.109  13.339 -14.410  1.00  0.00     0.210 HD
ENDBRANCH  36  46
BRANCH  37  48
HETATM   48  N3  UNL     1       3.508  11.233 -16.677  1.00  0.00    -0.297 N 
HETATM   49  C19 UNL     1       2.276  11.815 -16.489  1.00  0.00     0.188 A 
HETATM   50  N4  UNL     1       1.293  10.946 -16.591  1.00  0.00    -0.346 N 
HETATM   51  C20 UNL     1       1.919   9.742 -16.862  1.00  0.00     0.116 A 
HETATM   52  H4  UNL     1       0.294  11.121 -16.492  1.00  0.00     0.167 HD
HETATM   53  C21 UNL     1       1.429   8.450 -17.118  1.00  0.00     0.109 A 
HETATM   54  C23 UNL     1       3.293   9.898 -16.879  1.00  0.00     0.142 A 
HETATM   55  N5  UNL     1       2.317   7.451 -17.343  1.00  0.00    -0.341 N 
HETATM   56  C22 UNL     1       3.632   7.746 -17.306  1.00  0.00     0.183 A 
HETATM   57  H5  UNL     1       1.999   6.502 -17.537  1.00  0.00     0.167 HD
HETATM   58  N6  UNL     1       4.216   8.941 -17.080  1.00  0.00    -0.336 N 
HETATM   59  H6  UNL     1       5.224   9.098 -17.065  1.00  0.00     0.168 HD
BRANCH  53  60
HETATM   60  N7  UNL     1       0.078   8.138 -17.144  1.00  0.00    -0.287 NA
HETATM   61  H33 UNL     1      -0.172   7.417 -17.816  1.00  0.00     0.125 HD
HETATM   62  H34 UNL     1      -0.516   8.956 -17.109  1.00  0.00     0.125 HD
ENDBRANCH  53  60
ENDBRANCH  37  48
ENDBRANCH  33  34
ENDBRANCH  32  33
ENDBRANCH  28  32
ENDBRANCH  27  28
ENDBRANCH  23  27
ENDBRANCH  22  23
ENDBRANCH  21  22
ENDBRANCH  18  21
ENDBRANCH  17  18
BRANCH  17  63
HETATM   63  O17 UNL     1       8.874   4.627 -14.874  1.00  0.00    -0.385 OA
HETATM   64  H38 UNL     1       9.539   4.024 -15.247  1.00  0.00     0.210 HD
ENDBRANCH  17  63
ENDBRANCH  14  17
ENDBRANCH  12  13
ENDBRANCH  11  12
ENDBRANCH   8  11
ENDBRANCH   6   7
ENDBRANCH   5   6
ENDBRANCH   4   5
ENDBRANCH   2   4
TORSDOF 27
ENDMDL
MODEL 6
REMARK VINA RESULT:      -6.1      5.223      9.433
REMARK  27 active torsions:
REMARK  status: ('A' for Active; 'I' for Inactive)
REMARK    1  A    between atoms: C2_2  and  S1_4 
REMARK    2  A    between atoms: S1_4  and  C3_5 
REMARK    3  A    between atoms: C3_5  and  C4_6 
REMARK    4  A    between atoms: C4_6  and  N1_7 
REMARK       I    between atoms: N1_7  and  C5_8 
REMARK    5  A    between atoms: C5_8  and  C6_10 
REMARK    6  A    between atoms: C6_10  and  C7_11 
REMARK    7  A    between atoms: C7_11  and  N2_12 
REMARK       I    between atoms: N2_12  and  C8_13 
REMARK    8  A    between atoms: C8_13  and  C9_15 
REMARK    9  A    between atoms: C9_15  and  C10_16 
REMARK   10  A    between atoms: C9_15  and  O17_54 
REMARK   11  A    between atoms: C10_16  and  C13_19 
REMARK   12  A    between atoms: C13_19  and  O4_20 
REMARK   13  A    between atoms: O4_20  and  P1_21 
REMARK   14  A    between atoms: P1_21  and  O6_23 
REMARK   15  A    between atoms: P1_21  and  O7_24 
REMARK   16  A    between atoms: O7_24  and  P2_25 
REMARK   17  A    between atoms: P2_25  and  O9_27 
REMARK   18  A    between atoms: P2_25  and  O10_28 
REMARK   19  A    between atoms: O10_28  and  C14_29 
REMARK   20  A    between atoms: C14_29  and  C15_30 
REMARK   21  A    between atoms: C16_31  and  O13_49 
REMARK   22  A    between atoms: C17_32  and  O12_48 
REMARK   23  A    between atoms: C18_33  and  N3_35 
REMARK   24  A    between atoms: C21_40  and  N7_47 
REMARK   25  A    between atoms: O13_49  and  P3_50 
REMARK   26  A    between atoms: P3_50  and  O15_52 
REMARK   27  A    between atoms: P3_50  and  O16_53 
ROOT
HETATM    1  C1  UNL     1       4.836  -6.165 -17.781  1.00  0.00     0.104 C 
HETATM    2  C2  UNL     1       5.936  -5.849 -18.747  1.00  0.00     0.182 C 
HETATM    3  O1  UNL     1       6.905  -6.582 -18.929  1.00  0.00    -0.286 OA
ENDROOT
BRANCH   2   4
HETATM    4  S1  UNL     1       5.751  -4.312 -19.581  1.00  0.00    -0.091 SA
BRANCH   4   5
HETATM    5  C3  UNL     1       7.239  -3.442 -18.990  1.00  0.00     0.102 C 
BRANCH   5   6
HETATM    6  C4  UNL     1       6.906  -2.410 -17.911  1.00  0.00     0.133 C 
BRANCH   6   7
HETATM    7  N1  UNL     1       7.096  -2.922 -16.570  1.00  0.00    -0.360 N 
HETATM    8  C5  UNL     1       6.034  -3.292 -15.779  1.00  0.00     0.219 C 
HETATM    9  O2  UNL     1       4.868  -3.137 -16.124  1.00  0.00    -0.274 OA
HETATM   10  H8  UNL     1       8.038  -3.015 -16.214  1.00  0.00     0.162 HD
BRANCH   8  11
HETATM   11  C6  UNL     1       6.452  -3.852 -14.436  1.00  0.00     0.122 C 
BRANCH  11  12
HETATM   12  C7  UNL     1       6.032  -2.943 -13.282  1.00  0.00     0.132 C 
BRANCH  12  13
HETATM   13  N2  UNL     1       5.520  -1.663 -13.725  1.00  0.00    -0.358 N 
HETATM   14  C8  UNL     1       5.428  -0.605 -12.839  1.00  0.00     0.247 C 
HETATM   15  O3  UNL     1       5.656  -0.735 -11.643  1.00  0.00    -0.271 OA
HETATM   16  H13 UNL     1       5.690  -1.438 -14.703  1.00  0.00     0.162 HD
BRANCH  14  17
HETATM   17  C9  UNL     1       5.040   0.737 -13.477  1.00  0.00     0.219 C 
BRANCH  17  18
HETATM   18  C10 UNL     1       5.809   1.962 -12.916  1.00  0.00     0.009 C 
HETATM   19  C11 UNL     1       6.103   3.008 -14.002  1.00  0.00     0.020 C 
HETATM   20  C12 UNL     1       5.019   2.657 -11.788  1.00  0.00     0.020 C 
BRANCH  18  21
HETATM   21  C13 UNL     1       7.147   1.404 -12.352  1.00  0.00     0.192 C 
BRANCH  21  22
HETATM   22  O4  UNL     1       7.482   1.969 -11.101  1.00  0.00    -0.296 OA
BRANCH  22  23
HETATM   23  P1  UNL     1       8.660   3.041 -10.917  1.00  0.00     0.401 P 
HETATM   24  O5  UNL     1       9.433   2.888  -9.645  1.00  0.00    -0.631 OA
BRANCH  23  25
HETATM   25  O6  UNL     1       7.999   4.496 -11.105  1.00  0.00    -0.307 OA
HETATM   26  H23 UNL     1       7.566   4.589 -11.964  1.00  0.00     0.222 HD
ENDBRANCH  23  25
BRANCH  23  27
HETATM   27  O7  UNL     1       9.533   2.924 -12.242  1.00  0.00    -0.195 OA
BRANCH  27  28
HETATM   28  P2  UNL     1      10.270   4.223 -12.796  1.00  0.00     0.401 P 
HETATM   29  O8  UNL     1      10.519   5.327 -11.821  1.00  0.00    -0.631 OA
BRANCH  28  30
HETATM   30  O9  UNL     1      11.594   3.636 -13.467  1.00  0.00    -0.307 OA
HETATM   31  H24 UNL     1      12.043   2.938 -12.930  1.00  0.00     0.222 HD
ENDBRANCH  28  30
BRANCH  28  32
HETATM   32  O10 UNL     1       9.432   4.617 -14.097  1.00  0.00    -0.294 OA
BRANCH  32  33
HETATM   33  C14 UNL     1       8.905   5.911 -14.228  1.00  0.00     0.215 C 
BRANCH  33  34
HETATM   34  C15 UNL     1       9.614   6.542 -15.426  1.00  0.00     0.180 C 
HETATM   35  C16 UNL     1      10.004   5.458 -16.423  1.00  0.00     0.197 C 
HETATM   36  C17 UNL     1      11.518   5.516 -16.482  1.00  0.00     0.199 C 
HETATM   37  C18 UNL     1      11.803   6.962 -16.068  1.00  0.00     0.262 C 
HETATM   38  O11 UNL     1      10.806   7.247 -15.061  1.00  0.00    -0.353 OA
BRANCH  35  39
HETATM   39  O13 UNL     1       9.406   5.776 -17.675  1.00  0.00    -0.286 OA
BRANCH  39  40
HETATM   40  P3  UNL     1       8.440   4.655 -18.282  1.00  0.00     0.391 P 
HETATM   41  O14 UNL     1       7.330   5.205 -19.118  1.00  0.00    -0.632 OA
BRANCH  40  42
HETATM   42  O15 UNL     1       8.042   3.853 -16.956  1.00  0.00    -0.307 OA
HETATM   43  H36 UNL     1       8.738   3.957 -16.264  1.00  0.00     0.222 HD
ENDBRANCH  40  42
BRANCH  40  44
HETATM   44  O16 UNL     1       9.486   3.688 -18.990  1.00  0.00    -0.307 OA
HETATM   45  H37 UNL     1       9.532   2.814 -18.572  1.00  0.00     0.222 HD
ENDBRANCH  40  44
ENDBRANCH  39  40
ENDBRANCH  35  39
BRANCH  36  46
HETATM   46  O12 UNL     1      11.981   5.098 -17.768  1.00  0.00    -0.388 OA
HETATM   47  H35 UNL     1      12.863   4.679 -17.624  1.00  0.00     0.210 HD
ENDBRANCH  36  46
BRANCH  37  48
HETATM   48  N3  UNL     1      13.118   7.125 -15.481  1.00  0.00    -0.297 N 
HETATM   49  C19 UNL     1      13.854   6.174 -14.814  1.00  0.00     0.188 A 
HETATM   50  N4  UNL     1      15.062   6.598 -14.514  1.00  0.00    -0.346 N 
HETATM   51  C20 UNL     1      15.114   7.886 -15.017  1.00  0.00     0.116 A 
HETATM   52  H4  UNL     1      15.797   6.090 -14.022  1.00  0.00     0.167 HD
HETATM   53  C21 UNL     1      16.134   8.852 -15.058  1.00  0.00     0.109 A 
HETATM   54  C23 UNL     1      13.903   8.239 -15.584  1.00  0.00     0.142 A 
HETATM   55  N5  UNL     1      15.867  10.054 -15.624  1.00  0.00    -0.341 N 
HETATM   56  C22 UNL     1      14.630  10.267 -16.116  1.00  0.00     0.183 A 
HETATM   57  H5  UNL     1      16.583  10.779 -15.675  1.00  0.00     0.167 HD
HETATM   58  N6  UNL     1      13.582   9.420 -16.141  1.00  0.00    -0.336 N 
HETATM   59  H6  UNL     1      12.666   9.644 -16.532  1.00  0.00     0.168 HD
BRANCH  53  60
HETATM   60  N7  UNL     1      17.402   8.644 -14.540  1.00  0.00    -0.287 NA
HETATM   61  H33 UNL     1      18.157   8.800 -15.204  1.00  0.00     0.125 HD
HETATM   62  H34 UNL     1      17.464   7.812 -13.968  1.00  0.00     0.125 HD
ENDBRANCH  53  60
ENDBRANCH  37  48
ENDBRANCH  33  34
ENDBRANCH  32  33
ENDBRANCH  28  32
ENDBRANCH  27  28
ENDBRANCH  23  27
ENDBRANCH  22  23
ENDBRANCH  21  22
ENDBRANCH  18  21
ENDBRANCH  17  18
BRANCH  17  63
HETATM   63  O17 UNL     1       5.239   0.686 -14.894  1.00  0.00    -0.385 OA
HETATM   64  H38 UNL     1       5.215  -0.246 -15.168  1.00  0.00     0.210 HD
ENDBRANCH  17  63
ENDBRANCH  14  17
ENDBRANCH  12  13
ENDBRANCH  11  12
ENDBRANCH   8  11
ENDBRANCH   6   7
ENDBRANCH   5   6
ENDBRANCH   4   5
ENDBRANCH   2   4
TORSDOF 27
ENDMDL
MODEL 7
REMARK VINA RESULT:      -6.1      3.449      5.149
REMARK  27 active torsions:
REMARK  status: ('A' for Active; 'I' for Inactive)
REMARK    1  A    between atoms: C2_2  and  S1_4 
REMARK    2  A    between atoms: S1_4  and  C3_5 
REMARK    3  A    between atoms: C3_5  and  C4_6 
REMARK    4  A    between atoms: C4_6  and  N1_7 
REMARK       I    between atoms: N1_7  and  C5_8 
REMARK    5  A    between atoms: C5_8  and  C6_10 
REMARK    6  A    between atoms: C6_10  and  C7_11 
REMARK    7  A    between atoms: C7_11  and  N2_12 
REMARK       I    between atoms: N2_12  and  C8_13 
REMARK    8  A    between atoms: C8_13  and  C9_15 
REMARK    9  A    between atoms: C9_15  and  C10_16 
REMARK   10  A    between atoms: C9_15  and  O17_54 
REMARK   11  A    between atoms: C10_16  and  C13_19 
REMARK   12  A    between atoms: C13_19  and  O4_20 
REMARK   13  A    between atoms: O4_20  and  P1_21 
REMARK   14  A    between atoms: P1_21  and  O6_23 
REMARK   15  A    between atoms: P1_21  and  O7_24 
REMARK   16  A    between atoms: O7_24  and  P2_25 
REMARK   17  A    between atoms: P2_25  and  O9_27 
REMARK   18  A    between atoms: P2_25  and  O10_28 
REMARK   19  A    between atoms: O10_28  and  C14_29 
REMARK   20  A    between atoms: C14_29  and  C15_30 
REMARK   21  A    between atoms: C16_31  and  O13_49 
REMARK   22  A    between atoms: C17_32  and  O12_48 
REMARK   23  A    between atoms: C18_33  and  N3_35 
REMARK   24  A    between atoms: C21_40  and  N7_47 
REMARK   25  A    between atoms: O13_49  and  P3_50 
REMARK   26  A    between atoms: P3_50  and  O15_52 
REMARK   27  A    between atoms: P3_50  and  O16_53 
ROOT
HETATM    1  C1  UNL     1       6.693   1.725 -10.879  1.00  0.00     0.104 C 
HETATM    2  C2  UNL     1       7.300   2.080  -9.556  1.00  0.00     0.182 C 
HETATM    3  O1  UNL     1       7.073   1.457  -8.521  1.00  0.00    -0.286 OA
ENDROOT
BRANCH   2   4
HETATM    4  S1  UNL     1       8.341   3.497  -9.592  1.00  0.00    -0.091 SA
BRANCH   4   5
HETATM    5  C3  UNL     1       8.829   3.495 -11.348  1.00  0.00     0.102 C 
BRANCH   5   6
HETATM    6  C4  UNL     1      10.057   4.372 -11.599  1.00  0.00     0.133 C 
BRANCH   6   7
HETATM    7  N1  UNL     1       9.780   5.783 -11.430  1.00  0.00    -0.360 N 
HETATM    8  C5  UNL     1       9.369   6.572 -12.479  1.00  0.00     0.219 C 
HETATM    9  O2  UNL     1       9.289   6.153 -13.628  1.00  0.00    -0.274 OA
HETATM   10  H8  UNL     1       9.887   6.193 -10.511  1.00  0.00     0.162 HD
BRANCH   8  11
HETATM   11  C6  UNL     1       9.081   8.002 -12.077  1.00  0.00     0.122 C 
BRANCH  11  12
HETATM   12  C7  UNL     1      10.331   8.879 -12.152  1.00  0.00     0.132 C 
BRANCH  12  13
HETATM   13  N2  UNL     1      10.674   9.263 -13.504  1.00  0.00    -0.358 N 
HETATM   14  C8  UNL     1      11.983   9.177 -13.942  1.00  0.00     0.247 C 
HETATM   15  O3  UNL     1      12.905   8.894 -13.188  1.00  0.00    -0.271 OA
HETATM   16  H13 UNL     1       9.942   9.127 -14.198  1.00  0.00     0.162 HD
BRANCH  14  17
HETATM   17  C9  UNL     1      12.180   9.444 -15.442  1.00  0.00     0.219 C 
BRANCH  17  18
HETATM   18  C10 UNL     1      11.989   8.199 -16.347  1.00  0.00     0.009 C 
HETATM   19  C11 UNL     1      13.081   8.092 -17.421  1.00  0.00     0.020 C 
HETATM   20  C12 UNL     1      12.003   6.895 -15.524  1.00  0.00     0.020 C 
BRANCH  18  21
HETATM   21  C13 UNL     1      10.602   8.375 -17.028  1.00  0.00     0.192 C 
BRANCH  21  22
HETATM   22  O4  UNL     1       9.545   7.873 -16.235  1.00  0.00    -0.296 OA
BRANCH  22  23
HETATM   23  P1  UNL     1       8.179   8.677 -15.994  1.00  0.00     0.401 P 
HETATM   24  O5  UNL     1       8.368  10.045 -15.418  1.00  0.00    -0.631 OA
BRANCH  23  25
HETATM   25  O6  UNL     1       7.229   7.726 -15.108  1.00  0.00    -0.307 OA
HETATM   26  H23 UNL     1       7.647   7.473 -14.275  1.00  0.00     0.222 HD
ENDBRANCH  23  25
BRANCH  23  27
HETATM   27  O7  UNL     1       7.429   8.643 -17.396  1.00  0.00    -0.195 OA
BRANCH  27  28
HETATM   28  P2  UNL     1       6.260   9.691 -17.670  1.00  0.00     0.401 P 
HETATM   29  O8  UNL     1       6.664  11.042 -18.164  1.00  0.00    -0.631 OA
BRANCH  28  30
HETATM   30  O9  UNL     1       5.284   8.901 -18.656  1.00  0.00    -0.307 OA
HETATM   31  H24 UNL     1       4.326   8.990 -18.432  1.00  0.00     0.222 HD
ENDBRANCH  28  30
BRANCH  28  32
HETATM   32  O10 UNL     1       5.400   9.669 -16.325  1.00  0.00    -0.294 OA
BRANCH  32  33
HETATM   33  C14 UNL     1       4.822  10.853 -15.841  1.00  0.00     0.215 C 
BRANCH  33  34
HETATM   34  C15 UNL     1       3.460  10.973 -16.521  1.00  0.00     0.180 C 
HETATM   35  C16 UNL     1       2.675  12.123 -15.904  1.00  0.00     0.197 C 
HETATM   36  C17 UNL     1       1.448  11.469 -15.297  1.00  0.00     0.199 C 
HETATM   37  C18 UNL     1       1.306  10.201 -16.143  1.00  0.00     0.262 C 
HETATM   38  O11 UNL     1       2.667   9.787 -16.396  1.00  0.00    -0.353 OA
BRANCH  35  39
HETATM   39  O13 UNL     1       2.338  13.035 -16.943  1.00  0.00    -0.286 OA
BRANCH  39  40
HETATM   40  P3  UNL     1       2.794  14.549 -16.706  1.00  0.00     0.391 P 
HETATM   41  O14 UNL     1       2.878  15.356 -17.961  1.00  0.00    -0.632 OA
BRANCH  40  42
HETATM   42  O15 UNL     1       4.143  14.329 -15.875  1.00  0.00    -0.307 OA
HETATM   43  H36 UNL     1       3.984  14.463 -14.911  1.00  0.00     0.222 HD
ENDBRANCH  40  42
BRANCH  40  44
HETATM   44  O16 UNL     1       1.757  15.020 -15.596  1.00  0.00    -0.307 OA
HETATM   45  H37 UNL     1       1.652  15.984 -15.564  1.00  0.00     0.222 HD
ENDBRANCH  40  44
ENDBRANCH  39  40
ENDBRANCH  35  39
BRANCH  36  46
HETATM   46  O12 UNL     1       0.349  12.383 -15.294  1.00  0.00    -0.388 OA
HETATM   47  H35 UNL     1      -0.134  12.235 -14.446  1.00  0.00     0.210 HD
ENDBRANCH  36  46
BRANCH  37  48
HETATM   48  N3  UNL     1       0.617   9.137 -15.440  1.00  0.00    -0.297 N 
HETATM   49  C19 UNL     1       0.219   9.133 -14.124  1.00  0.00     0.188 A 
HETATM   50  N4  UNL     1      -0.495   8.070 -13.823  1.00  0.00    -0.346 N 
HETATM   51  C20 UNL     1      -0.567   7.352 -15.004  1.00  0.00     0.116 A 
HETATM   52  H4  UNL     1      -0.905   7.828 -12.921  1.00  0.00     0.167 HD
HETATM   53  C21 UNL     1      -1.217   6.155 -15.353  1.00  0.00     0.109 A 
HETATM   54  C23 UNL     1       0.151   7.983 -16.004  1.00  0.00     0.142 A 
HETATM   55  N5  UNL     1      -1.086   5.692 -16.620  1.00  0.00    -0.341 N 
HETATM   56  C22 UNL     1      -0.333   6.402 -17.485  1.00  0.00     0.183 A 
HETATM   57  H5  UNL     1      -1.545   4.829 -16.912  1.00  0.00     0.167 HD
HETATM   58  N6  UNL     1       0.325   7.559 -17.268  1.00  0.00    -0.336 N 
HETATM   59  H6  UNL     1       0.881   8.048 -17.970  1.00  0.00     0.168 HD
BRANCH  53  60
HETATM   60  N7  UNL     1      -1.979   5.415 -14.465  1.00  0.00    -0.287 NA
HETATM   61  H33 UNL     1      -1.805   4.412 -14.497  1.00  0.00     0.125 HD
HETATM   62  H34 UNL     1      -2.947   5.708 -14.435  1.00  0.00     0.125 HD
ENDBRANCH  53  60
ENDBRANCH  37  48
ENDBRANCH  33  34
ENDBRANCH  32  33
ENDBRANCH  28  32
ENDBRANCH  27  28
ENDBRANCH  23  27
ENDBRANCH  22  23
ENDBRANCH  21  22
ENDBRANCH  18  21
ENDBRANCH  17  18
BRANCH  17  63
HETATM   63  O17 UNL     1      11.281  10.468 -15.882  1.00  0.00    -0.385 OA
HETATM   64  H38 UNL     1      10.420  10.056 -16.063  1.00  0.00     0.210 HD
ENDBRANCH  17  63
ENDBRANCH  14  17
ENDBRANCH  12  13
ENDBRANCH  11  12
ENDBRANCH   8  11
ENDBRANCH   6   7
ENDBRANCH   5   6
ENDBRANCH   4   5
ENDBRANCH   2   4
TORSDOF 27
ENDMDL
MODEL 8
REMARK VINA RESULT:      -6.1      4.679      7.128
REMARK  27 active torsions:
REMARK  status: ('A' for Active; 'I' for Inactive)
REMARK    1  A    between atoms: C2_2  and  S1_4 
REMARK    2  A    between atoms: S1_4  and  C3_5 
REMARK    3  A    between atoms: C3_5  and  C4_6 
REMARK    4  A    between atoms: C4_6  and  N1_7 
REMARK       I    between atoms: N1_7  and  C5_8 
REMARK    5  A    between atoms: C5_8  and  C6_10 
REMARK    6  A    between atoms: C6_10  and  C7_11 
REMARK    7  A    between atoms: C7_11  and  N2_12 
REMARK       I    between atoms: N2_12  and  C8_13 
REMARK    8  A    between atoms: C8_13  and  C9_15 
REMARK    9  A    between atoms: C9_15  and  C10_16 
REMARK   10  A    between atoms: C9_15  and  O17_54 
REMARK   11  A    between atoms: C10_16  and  C13_19 
REMARK   12  A    between atoms: C13_19  and  O4_20 
REMARK   13  A    between atoms: O4_20  and  P1_21 
REMARK   14  A    between atoms: P1_21  and  O6_23 
REMARK   15  A    between atoms: P1_21  and  O7_24 
REMARK   16  A    between atoms: O7_24  and  P2_25 
REMARK   17  A    between atoms: P2_25  and  O9_27 
REMARK   18  A    between atoms: P2_25  and  O10_28 
REMARK   19  A    between atoms: O10_28  and  C14_29 
REMARK   20  A    between atoms: C14_29  and  C15_30 
REMARK   21  A    between atoms: C16_31  and  O13_49 
REMARK   22  A    between atoms: C17_32  and  O12_48 
REMARK   23  A    between atoms: C18_33  and  N3_35 
REMARK   24  A    between atoms: C21_40  and  N7_47 
REMARK   25  A    between atoms: O13_49  and  P3_50 
REMARK   26  A    between atoms: P3_50  and  O15_52 
REMARK   27  A    between atoms: P3_50  and  O16_53 
ROOT
HETATM    1  C1  UNL     1       4.834  -6.157 -17.778  1.00  0.00     0.104 C 
HETATM    2  C2  UNL     1       5.947  -5.837 -18.729  1.00  0.00     0.182 C 
HETATM    3  O1  UNL     1       6.910  -6.577 -18.913  1.00  0.00    -0.286 OA
ENDROOT
BRANCH   2   4
HETATM    4  S1  UNL     1       5.784  -4.286 -19.540  1.00  0.00    -0.091 SA
BRANCH   4   5
HETATM    5  C3  UNL     1       7.278  -3.441 -18.927  1.00  0.00     0.102 C 
BRANCH   5   6
HETATM    6  C4  UNL     1       6.947  -2.413 -17.844  1.00  0.00     0.133 C 
BRANCH   6   7
HETATM    7  N1  UNL     1       7.087  -2.946 -16.504  1.00  0.00    -0.360 N 
HETATM    8  C5  UNL     1       5.993  -3.280 -15.740  1.00  0.00     0.219 C 
HETATM    9  O2  UNL     1       4.842  -3.075 -16.109  1.00  0.00    -0.274 OA
HETATM   10  H8  UNL     1       8.016  -3.080 -16.129  1.00  0.00     0.162 HD
BRANCH   8  11
HETATM   11  C6  UNL     1       6.359  -3.870 -14.396  1.00  0.00     0.122 C 
BRANCH  11  12
HETATM   12  C7  UNL     1       5.984  -2.940 -13.243  1.00  0.00     0.132 C 
BRANCH  12  13
HETATM   13  N2  UNL     1       5.482  -1.658 -13.688  1.00  0.00    -0.358 N 
HETATM   14  C8  UNL     1       5.394  -0.599 -12.804  1.00  0.00     0.247 C 
HETATM   15  O3  UNL     1       5.617  -0.729 -11.607  1.00  0.00    -0.271 OA
HETATM   16  H13 UNL     1       5.657  -1.435 -14.666  1.00  0.00     0.162 HD
BRANCH  14  17
HETATM   17  C9  UNL     1       5.016   0.746 -13.444  1.00  0.00     0.219 C 
BRANCH  17  18
HETATM   18  C10 UNL     1       5.780   1.968 -12.871  1.00  0.00     0.009 C 
HETATM   19  C11 UNL     1       6.084   3.018 -13.950  1.00  0.00     0.020 C 
HETATM   20  C12 UNL     1       4.981   2.659 -11.748  1.00  0.00     0.020 C 
BRANCH  18  21
HETATM   21  C13 UNL     1       7.114   1.407 -12.299  1.00  0.00     0.192 C 
BRANCH  21  22
HETATM   22  O4  UNL     1       7.501   2.055 -11.104  1.00  0.00    -0.296 OA
BRANCH  22  23
HETATM   23  P1  UNL     1       8.719   3.096 -11.033  1.00  0.00     0.401 P 
HETATM   24  O5  UNL     1       9.705   2.811  -9.946  1.00  0.00    -0.631 OA
BRANCH  23  25
HETATM   25  O6  UNL     1       8.069   4.567 -10.952  1.00  0.00    -0.307 OA
HETATM   26  H23 UNL     1       7.587   4.704 -10.126  1.00  0.00     0.222 HD
ENDBRANCH  23  25
BRANCH  23  27
HETATM   27  O7  UNL     1       9.332   3.110 -12.501  1.00  0.00    -0.195 OA
BRANCH  27  28
HETATM   28  P2  UNL     1      10.303   4.303 -12.918  1.00  0.00     0.401 P 
HETATM   29  O8  UNL     1      10.506   5.393 -11.917  1.00  0.00    -0.631 OA
BRANCH  28  30
HETATM   30  O9  UNL     1      11.647   3.550 -13.342  1.00  0.00    -0.307 OA
HETATM   31  H24 UNL     1      12.269   3.382 -12.592  1.00  0.00     0.222 HD
ENDBRANCH  28  30
BRANCH  28  32
HETATM   32  O10 UNL     1       9.760   4.761 -14.348  1.00  0.00    -0.294 OA
BRANCH  32  33
HETATM   33  C14 UNL     1       8.678   5.651 -14.436  1.00  0.00     0.215 C 
BRANCH  33  34
HETATM   34  C15 UNL     1       9.106   6.747 -15.411  1.00  0.00     0.180 C 
HETATM   35  C16 UNL     1      10.333   7.468 -14.870  1.00  0.00     0.197 C 
HETATM   36  C17 UNL     1       9.880   8.901 -14.669  1.00  0.00     0.199 C 
HETATM   37  C18 UNL     1       8.730   9.020 -15.672  1.00  0.00     0.262 C 
HETATM   38  O11 UNL     1       8.086   7.728 -15.631  1.00  0.00    -0.353 OA
BRANCH  35  39
HETATM   39  O13 UNL     1      11.369   7.364 -15.841  1.00  0.00    -0.286 OA
BRANCH  39  40
HETATM   40  P3  UNL     1      12.700   6.624 -15.353  1.00  0.00     0.391 P 
HETATM   41  O14 UNL     1      13.959   7.268 -15.837  1.00  0.00    -0.632 OA
BRANCH  40  42
HETATM   42  O15 UNL     1      12.402   5.127 -15.832  1.00  0.00    -0.307 OA
HETATM   43  H36 UNL     1      12.756   4.476 -15.181  1.00  0.00     0.222 HD
ENDBRANCH  40  42
BRANCH  40  44
HETATM   44  O16 UNL     1      12.464   6.555 -13.782  1.00  0.00    -0.307 OA
HETATM   45  H37 UNL     1      13.279   6.376 -13.287  1.00  0.00     0.222 HD
ENDBRANCH  40  44
ENDBRANCH  39  40
ENDBRANCH  35  39
BRANCH  36  46
HETATM   46  O12 UNL     1      10.983   9.797 -14.825  1.00  0.00    -0.388 OA
HETATM   47  H35 UNL     1      11.519   9.726 -13.999  1.00  0.00     0.210 HD
ENDBRANCH  36  46
BRANCH  37  48
HETATM   48  N3  UNL     1       7.766  10.035 -15.296  1.00  0.00    -0.297 N 
HETATM   49  C19 UNL     1       7.916  11.010 -14.338  1.00  0.00     0.188 A 
HETATM   50  N4  UNL     1       6.909  11.856 -14.325  1.00  0.00    -0.346 N 
HETATM   51  C20 UNL     1       6.066  11.409 -15.328  1.00  0.00     0.116 A 
HETATM   52  H4  UNL     1       6.778  12.661 -13.713  1.00  0.00     0.167 HD
HETATM   53  C21 UNL     1       4.852  11.899 -15.840  1.00  0.00     0.109 A 
HETATM   54  C23 UNL     1       6.566  10.259 -15.911  1.00  0.00     0.142 A 
HETATM   55  N5  UNL     1       4.248  11.216 -16.842  1.00  0.00    -0.341 N 
HETATM   56  C22 UNL     1       4.841  10.094 -17.297  1.00  0.00     0.183 A 
HETATM   57  H5  UNL     1       3.368  11.542 -17.242  1.00  0.00     0.167 HD
HETATM   58  N6  UNL     1       6.000   9.536 -16.894  1.00  0.00    -0.336 N 
HETATM   59  H6  UNL     1       6.396   8.680 -17.282  1.00  0.00     0.168 HD
BRANCH  53  60
HETATM   60  N7  UNL     1       4.231  13.043 -15.365  1.00  0.00    -0.287 NA
HETATM   61  H33 UNL     1       3.608  12.886 -14.576  1.00  0.00     0.125 HD
HETATM   62  H34 UNL     1       3.887  13.641 -16.105  1.00  0.00     0.125 HD
ENDBRANCH  53  60
ENDBRANCH  37  48
ENDBRANCH  33  34
ENDBRANCH  32  33
ENDBRANCH  28  32
ENDBRANCH  27  28
ENDBRANCH  23  27
ENDBRANCH  22  23
ENDBRANCH  21  22
ENDBRANCH  18  21
ENDBRANCH  17  18
BRANCH  17  63
HETATM   63  O17 UNL     1       5.232   0.696 -14.858  1.00  0.00    -0.385 OA
HETATM   64  H38 UNL     1       5.017  -0.201 -15.165  1.00  0.00     0.210 HD
ENDBRANCH  17  63
ENDBRANCH  14  17
ENDBRANCH  12  13
ENDBRANCH  11  12
ENDBRANCH   8  11
ENDBRANCH   6   7
ENDBRANCH   5   6
ENDBRANCH   4   5
ENDBRANCH   2   4
TORSDOF 27
ENDMDL
MODEL 9
REMARK VINA RESULT:      -6.0      3.995      6.443
REMARK  27 active torsions:
REMARK  status: ('A' for Active; 'I' for Inactive)
REMARK    1  A    between atoms: C2_2  and  S1_4 
REMARK    2  A    between atoms: S1_4  and  C3_5 
REMARK    3  A    between atoms: C3_5  and  C4_6 
REMARK    4  A    between atoms: C4_6  and  N1_7 
REMARK       I    between atoms: N1_7  and  C5_8 
REMARK    5  A    between atoms: C5_8  and  C6_10 
REMARK    6  A    between atoms: C6_10  and  C7_11 
REMARK    7  A    between atoms: C7_11  and  N2_12 
REMARK       I    between atoms: N2_12  and  C8_13 
REMARK    8  A    between atoms: C8_13  and  C9_15 
REMARK    9  A    between atoms: C9_15  and  C10_16 
REMARK   10  A    between atoms: C9_15  and  O17_54 
REMARK   11  A    between atoms: C10_16  and  C13_19 
REMARK   12  A    between atoms: C13_19  and  O4_20 
REMARK   13  A    between atoms: O4_20  and  P1_21 
REMARK   14  A    between atoms: P1_21  and  O6_23 
REMARK   15  A    between atoms: P1_21  and  O7_24 
REMARK   16  A    between atoms: O7_24  and  P2_25 
REMARK   17  A    between atoms: P2_25  and  O9_27 
REMARK   18  A    between atoms: P2_25  and  O10_28 
REMARK   19  A    between atoms: O10_28  and  C14_29 
REMARK   20  A    between atoms: C14_29  and  C15_30 
REMARK   21  A    between atoms: C16_31  and  O13_49 
REMARK   22  A    between atoms: C17_32  and  O12_48 
REMARK   23  A    between atoms: C18_33  and  N3_35 
REMARK   24  A    between atoms: C21_40  and  N7_47 
REMARK   25  A    between atoms: O13_49  and  P3_50 
REMARK   26  A    between atoms: P3_50  and  O15_52 
REMARK   27  A    between atoms: P3_50  and  O16_53 
ROOT
HETATM    1  C1  UNL     1       7.007   4.355  -8.506  1.00  0.00     0.104 C 
HETATM    2  C2  UNL     1       5.882   3.415  -8.814  1.00  0.00     0.182 C 
HETATM    3  O1  UNL     1       4.719   3.621  -8.473  1.00  0.00    -0.286 OA
ENDROOT
BRANCH   2   4
HETATM    4  S1  UNL     1       6.366   1.961  -9.675  1.00  0.00    -0.091 SA
BRANCH   4   5
HETATM    5  C3  UNL     1       6.284   2.561 -11.394  1.00  0.00     0.102 C 
BRANCH   5   6
HETATM    6  C4  UNL     1       7.559   2.233 -12.173  1.00  0.00     0.133 C 
BRANCH   6   7
HETATM    7  N1  UNL     1       8.514   3.321 -12.167  1.00  0.00    -0.360 N 
HETATM    8  C5  UNL     1       8.657   4.165 -13.244  1.00  0.00     0.219 C 
HETATM    9  O2  UNL     1       8.050   4.002 -14.296  1.00  0.00    -0.274 OA
HETATM   10  H8  UNL     1       9.084   3.464 -11.343  1.00  0.00     0.162 HD
BRANCH   8  11
HETATM   11  C6  UNL     1       9.668   5.268 -13.011  1.00  0.00     0.122 C 
BRANCH  11  12
HETATM   12  C7  UNL     1       9.275   6.164 -11.837  1.00  0.00     0.132 C 
BRANCH  12  13
HETATM   13  N2  UNL     1       8.955   7.517 -12.238  1.00  0.00    -0.358 N 
HETATM   14  C8  UNL     1       9.909   8.305 -12.855  1.00  0.00     0.247 C 
HETATM   15  O3  UNL     1      11.073   7.944 -12.977  1.00  0.00    -0.271 OA
HETATM   16  H13 UNL     1       7.982   7.681 -12.490  1.00  0.00     0.162 HD
BRANCH  14  17
HETATM   17  C9  UNL     1       9.389   9.649 -13.387  1.00  0.00     0.219 C 
BRANCH  17  18
HETATM   18  C10 UNL     1       8.959   9.628 -14.877  1.00  0.00     0.009 C 
HETATM   19  C11 UNL     1      10.095  10.063 -15.814  1.00  0.00     0.020 C 
HETATM   20  C12 UNL     1       8.497   8.222 -15.311  1.00  0.00     0.020 C 
BRANCH  18  21
HETATM   21  C13 UNL     1       7.774  10.629 -14.993  1.00  0.00     0.192 C 
BRANCH  21  22
HETATM   22  O4  UNL     1       8.210  11.958 -15.192  1.00  0.00    -0.296 OA
BRANCH  22  23
HETATM   23  P1  UNL     1       7.561  13.211 -14.429  1.00  0.00     0.401 P 
HETATM   24  O5  UNL     1       8.017  14.541 -14.940  1.00  0.00    -0.631 OA
BRANCH  23  25
HETATM   25  O6  UNL     1       7.833  12.990 -12.858  1.00  0.00    -0.307 OA
HETATM   26  H23 UNL     1       7.034  12.719 -12.388  1.00  0.00     0.222 HD
ENDBRANCH  23  25
BRANCH  23  27
HETATM   27  O7  UNL     1       5.990  12.971 -14.508  1.00  0.00    -0.195 OA
BRANCH  27  28
HETATM   28  P2  UNL     1       5.187  13.535 -15.763  1.00  0.00     0.401 P 
HETATM   29  O8  UNL     1       4.630  14.916 -15.646  1.00  0.00    -0.631 OA
BRANCH  28  30
HETATM   30  O9  UNL     1       6.216  13.349 -16.970  1.00  0.00    -0.307 OA
HETATM   31  H24 UNL     1       6.113  12.497 -17.461  1.00  0.00     0.222 HD
ENDBRANCH  28  30
BRANCH  28  32
HETATM   32  O10 UNL     1       4.133  12.383 -16.096  1.00  0.00    -0.294 OA
BRANCH  32  33
HETATM   33  C14 UNL     1       3.562  12.302 -17.376  1.00  0.00     0.215 C 
BRANCH  33  34
HETATM   34  C15 UNL     1       2.129  11.812 -17.174  1.00  0.00     0.180 C 
HETATM   35  C16 UNL     1       1.841  11.661 -15.686  1.00  0.00     0.197 C 
HETATM   36  C17 UNL     1       1.547  10.185 -15.500  1.00  0.00     0.199 C 
HETATM   37  C18 UNL     1       1.060   9.774 -16.891  1.00  0.00     0.262 C 
HETATM   38  O11 UNL     1       1.877  10.548 -17.798  1.00  0.00    -0.353 OA
BRANCH  35  39
HETATM   39  O13 UNL     1       0.717  12.476 -15.370  1.00  0.00    -0.286 OA
BRANCH  39  40
HETATM   40  P3  UNL     1       1.027  13.754 -14.460  1.00  0.00     0.391 P 
HETATM   41  O14 UNL     1      -0.063  14.083 -13.492  1.00  0.00    -0.632 OA
BRANCH  40  42
HETATM   42  O15 UNL     1       1.376  14.841 -15.580  1.00  0.00    -0.307 OA
HETATM   43  H36 UNL     1       1.177  15.752 -15.256  1.00  0.00     0.222 HD
ENDBRANCH  40  42
BRANCH  40  44
HETATM   44  O16 UNL     1       2.453  13.378 -13.864  1.00  0.00    -0.307 OA
HETATM   45  H37 UNL     1       3.021  14.153 -13.730  1.00  0.00     0.222 HD
ENDBRANCH  40  44
ENDBRANCH  39  40
ENDBRANCH  35  39
BRANCH  36  46
HETATM   46  O12 UNL     1       0.646   9.992 -14.406  1.00  0.00    -0.388 OA
HETATM   47  H35 UNL     1       0.586   9.018 -14.263  1.00  0.00     0.210 HD
ENDBRANCH  36  46
BRANCH  37  48
HETATM   48  N3  UNL     1       1.271   8.366 -17.161  1.00  0.00    -0.297 N 
HETATM   49  C19 UNL     1       0.308   7.394 -17.304  1.00  0.00     0.188 A 
HETATM   50  N4  UNL     1       0.817   6.238 -17.670  1.00  0.00    -0.346 N 
HETATM   51  C20 UNL     1       2.176   6.473 -17.775  1.00  0.00     0.116 A 
HETATM   52  H4  UNL     1       0.321   5.363 -17.839  1.00  0.00     0.167 HD
HETATM   53  C21 UNL     1       3.256   5.661 -18.164  1.00  0.00     0.109 A 
HETATM   54  C23 UNL     1       2.476   7.777 -17.425  1.00  0.00     0.142 A 
HETATM   55  N5  UNL     1       4.504   6.192 -18.154  1.00  0.00    -0.341 N 
HETATM   56  C22 UNL     1       4.648   7.474 -17.765  1.00  0.00     0.183 A 
HETATM   57  H5  UNL     1       5.311   5.635 -18.433  1.00  0.00     0.167 HD
HETATM   58  N6  UNL     1       3.693   8.346 -17.382  1.00  0.00    -0.336 N 
HETATM   59  H6  UNL     1       3.870   9.310 -17.097  1.00  0.00     0.168 HD
BRANCH  53  60
HETATM   60  N7  UNL     1       3.115   4.338 -18.550  1.00  0.00    -0.287 NA
HETATM   61  H33 UNL     1       3.061   3.679 -17.777  1.00  0.00     0.125 HD
HETATM   62  H34 UNL     1       3.718   4.086 -19.322  1.00  0.00     0.125 HD
ENDBRANCH  53  60
ENDBRANCH  37  48
ENDBRANCH  33  34
ENDBRANCH  32  33
ENDBRANCH  28  32
ENDBRANCH  27  28
ENDBRANCH  23  27
ENDBRANCH  22  23
ENDBRANCH  21  22
ENDBRANCH  18  21
ENDBRANCH  17  18
BRANCH  17  63
HETATM   63  O17 UNL     1       8.280  10.095 -12.599  1.00  0.00    -0.385 OA
HETATM   64  H38 UNL     1       8.518  10.002 -11.662  1.00  0.00     0.210 HD
ENDBRANCH  17  63
ENDBRANCH  14  17
ENDBRANCH  12  13
ENDBRANCH  11  12
ENDBRANCH   8  11
ENDBRANCH   6   7
ENDBRANCH   5   6
ENDBRANCH   4   5
ENDBRANCH   2   4
TORSDOF 27
ENDMDL
MODEL 10
REMARK VINA RESULT:      -6.0      3.748      6.040
REMARK  27 active torsions:
REMARK  status: ('A' for Active; 'I' for Inactive)
REMARK    1  A    between atoms: C2_2  and  S1_4 
REMARK    2  A    between atoms: S1_4  and  C3_5 
REMARK    3  A    between atoms: C3_5  and  C4_6 
REMARK    4  A    between atoms: C4_6  and  N1_7 
REMARK       I    between atoms: N1_7  and  C5_8 
REMARK    5  A    between atoms: C5_8  and  C6_10 
REMARK    6  A    between atoms: C6_10  and  C7_11 
REMARK    7  A    between atoms: C7_11  and  N2_12 
REMARK       I    between atoms: N2_12  and  C8_13 
REMARK    8  A    between atoms: C8_13  and  C9_15 
REMARK    9  A    between atoms: C9_15  and  C10_16 
REMARK   10  A    between atoms: C9_15  and  O17_54 
REMARK   11  A    between atoms: C10_16  and  C13_19 
REMARK   12  A    between atoms: C13_19  and  O4_20 
REMARK   13  A    between atoms: O4_20  and  P1_21 
REMARK   14  A    between atoms: P1_21  and  O6_23 
REMARK   15  A    between atoms: P1_21  and  O7_24 
REMARK   16  A    between atoms: O7_24  and  P2_25 
REMARK   17  A    between atoms: P2_25  and  O9_27 
REMARK   18  A    between atoms: P2_25  and  O10_28 
REMARK   19  A    between atoms: O10_28  and  C14_29 
REMARK   20  A    between atoms: C14_29  and  C15_30 
REMARK   21  A    between atoms: C16_31  and  O13_49 
REMARK   22  A    between atoms: C17_32  and  O12_48 
REMARK   23  A    between atoms: C18_33  and  N3_35 
REMARK   24  A    between atoms: C21_40  and  N7_47 
REMARK   25  A    between atoms: O13_49  and  P3_50 
REMARK   26  A    between atoms: P3_50  and  O15_52 
REMARK   27  A    between atoms: P3_50  and  O16_53 
ROOT
HETATM    1  C1  UNL     1       6.878   3.942  -8.390  1.00  0.00     0.104 C 
HETATM    2  C2  UNL     1       6.602   2.631  -9.060  1.00  0.00     0.182 C 
HETATM    3  O1  UNL     1       6.935   1.547  -8.586  1.00  0.00    -0.286 OA
ENDROOT
BRANCH   2   4
HETATM    4  S1  UNL     1       5.792   2.768 -10.615  1.00  0.00    -0.091 SA
BRANCH   4   5
HETATM    5  C3  UNL     1       6.851   1.686 -11.628  1.00  0.00     0.102 C 
BRANCH   5   6
HETATM    6  C4  UNL     1       7.973   2.468 -12.315  1.00  0.00     0.133 C 
BRANCH   6   7
HETATM    7  N1  UNL     1       8.077   3.832 -11.839  1.00  0.00    -0.360 N 
HETATM    8  C5  UNL     1       9.275   4.507 -11.831  1.00  0.00     0.219 C 
HETATM    9  O2  UNL     1      10.334   3.976 -12.147  1.00  0.00    -0.274 OA
HETATM   10  H8  UNL     1       7.241   4.298 -11.511  1.00  0.00     0.162 HD
BRANCH   8  11
HETATM   11  C6  UNL     1       9.155   5.936 -11.348  1.00  0.00     0.122 C 
BRANCH  11  12
HETATM   12  C7  UNL     1       9.781   6.926 -12.330  1.00  0.00     0.132 C 
BRANCH  12  13
HETATM   13  N2  UNL     1       9.727   6.472 -13.704  1.00  0.00    -0.358 N 
HETATM   14  C8  UNL     1      10.889   6.353 -14.444  1.00  0.00     0.247 C 
HETATM   15  O3  UNL     1      11.973   6.732 -14.020  1.00  0.00    -0.271 OA
HETATM   16  H13 UNL     1       8.967   5.832 -13.925  1.00  0.00     0.162 HD
BRANCH  14  17
HETATM   17  C9  UNL     1      10.711   5.696 -15.821  1.00  0.00     0.219 C 
BRANCH  17  18
HETATM   18  C10 UNL     1      10.936   6.651 -17.023  1.00  0.00     0.009 C 
HETATM   19  C11 UNL     1      10.433   8.073 -16.734  1.00  0.00     0.020 C 
HETATM   20  C12 UNL     1      12.428   6.742 -17.401  1.00  0.00     0.020 C 
BRANCH  18  21
HETATM   21  C13 UNL     1      10.130   6.043 -18.207  1.00  0.00     0.192 C 
BRANCH  21  22
HETATM   22  O4  UNL     1       8.756   5.903 -17.908  1.00  0.00    -0.296 OA
BRANCH  22  23
HETATM   23  P1  UNL     1       7.908   4.600 -18.299  1.00  0.00     0.401 P 
HETATM   24  O5  UNL     1       7.790   3.594 -17.198  1.00  0.00    -0.631 OA
BRANCH  23  25
HETATM   25  O6  UNL     1       8.555   4.011 -19.650  1.00  0.00    -0.307 OA
HETATM   26  H23 UNL     1       7.975   4.134 -20.412  1.00  0.00     0.222 HD
ENDBRANCH  23  25
BRANCH  23  27
HETATM   27  O7  UNL     1       6.520   5.160 -18.839  1.00  0.00    -0.195 OA
BRANCH  27  28
HETATM   28  P2  UNL     1       5.294   5.284 -17.830  1.00  0.00     0.401 P 
HETATM   29  O8  UNL     1       4.433   4.076 -17.659  1.00  0.00    -0.631 OA
BRANCH  28  30
HETATM   30  O9  UNL     1       5.981   5.790 -16.480  1.00  0.00    -0.307 OA
HETATM   31  H24 UNL     1       5.377   5.799 -15.698  1.00  0.00     0.222 HD
ENDBRANCH  28  30
BRANCH  28  32
HETATM   32  O10 UNL     1       4.545   6.615 -18.294  1.00  0.00    -0.294 OA
BRANCH  32  33
HETATM   33  C14 UNL     1       3.220   6.852 -17.895  1.00  0.00     0.215 C 
BRANCH  33  34
HETATM   34  C15 UNL     1       3.302   7.538 -16.532  1.00  0.00     0.180 C 
HETATM   35  C16 UNL     1       1.997   8.268 -16.244  1.00  0.00     0.197 C 
HETATM   36  C17 UNL     1       2.389   9.730 -16.137  1.00  0.00     0.199 C 
HETATM   37  C18 UNL     1       3.861   9.639 -15.726  1.00  0.00     0.262 C 
HETATM   38  O11 UNL     1       4.364   8.495 -16.451  1.00  0.00    -0.353 OA
BRANCH  35  39
HETATM   39  O13 UNL     1       1.470   7.763 -15.022  1.00  0.00    -0.286 OA
BRANCH  39  40
HETATM   40  P3  UNL     1      -0.047   7.261 -15.081  1.00  0.00     0.391 P 
HETATM   41  O14 UNL     1      -0.561   7.058 -16.469  1.00  0.00    -0.632 OA
BRANCH  40  42
HETATM   42  O15 UNL     1      -0.765   8.371 -14.180  1.00  0.00    -0.307 OA
HETATM   43  H36 UNL     1      -1.127   7.970 -13.355  1.00  0.00     0.222 HD
ENDBRANCH  40  42
BRANCH  40  44
HETATM   44  O16 UNL     1       0.003   5.994 -14.121  1.00  0.00    -0.307 OA
HETATM   45  H37 UNL     1      -0.701   5.352 -14.308  1.00  0.00     0.222 HD
ENDBRANCH  40  44
ENDBRANCH  39  40
ENDBRANCH  35  39
BRANCH  36  46
HETATM   46  O12 UNL     1       1.502  10.418 -15.252  1.00  0.00    -0.388 OA
HETATM   47  H35 UNL     1       1.818  10.227 -14.337  1.00  0.00     0.210 HD
ENDBRANCH  36  46
BRANCH  37  48
HETATM   48  N3  UNL     1       4.621  10.810 -16.117  1.00  0.00    -0.297 N 
HETATM   49  C19 UNL     1       4.145  11.939 -16.742  1.00  0.00     0.188 A 
HETATM   50  N4  UNL     1       5.062  12.875 -16.845  1.00  0.00    -0.346 N 
HETATM   51  C20 UNL     1       6.188  12.329 -16.254  1.00  0.00     0.116 A 
HETATM   52  H4  UNL     1       4.966  13.799 -17.267  1.00  0.00     0.167 HD
HETATM   53  C21 UNL     1       7.476  12.834 -16.009  1.00  0.00     0.109 A 
HETATM   54  C23 UNL     1       5.939  11.035 -15.833  1.00  0.00     0.142 A 
HETATM   55  N5  UNL     1       8.385  12.029 -15.405  1.00  0.00    -0.341 N 
HETATM   56  C22 UNL     1       8.008  10.779 -15.071  1.00  0.00     0.183 A 
HETATM   57  H5  UNL     1       9.329  12.362 -15.208  1.00  0.00     0.167 HD
HETATM   58  N6  UNL     1       6.806  10.192 -15.245  1.00  0.00    -0.336 N 
HETATM   59  H6  UNL     1       6.584   9.235 -14.968  1.00  0.00     0.168 HD
BRANCH  53  60
HETATM   60  N7  UNL     1       7.874  14.113 -16.364  1.00  0.00    -0.287 NA
HETATM   61  H33 UNL     1       8.309  14.641 -15.611  1.00  0.00     0.125 HD
HETATM   62  H34 UNL     1       7.185  14.599 -16.922  1.00  0.00     0.125 HD
ENDBRANCH  53  60
ENDBRANCH  37  48
ENDBRANCH  33  34
ENDBRANCH  32  33
ENDBRANCH  28  32
ENDBRANCH  27  28
ENDBRANCH  23  27
ENDBRANCH  22  23
ENDBRANCH  21  22
ENDBRANCH  18  21
ENDBRANCH  17  18
BRANCH  17  63
HETATM   63  O17 UNL     1      11.600   4.582 -15.953  1.00  0.00    -0.385 OA
HETATM   64  H38 UNL     1      12.495   4.926 -16.112  1.00  0.00     0.210 HD
ENDBRANCH  17  63
ENDBRANCH  14  17
ENDBRANCH  12  13
ENDBRANCH  11  12
ENDBRANCH   8  11
ENDBRANCH   6   7
ENDBRANCH   5   6
ENDBRANCH   4   5
ENDBRANCH   2   4
TORSDOF 27
ENDMDL
MODEL 11
REMARK VINA RESULT:      -6.0      2.991      4.356
REMARK  27 active torsions:
REMARK  status: ('A' for Active; 'I' for Inactive)
REMARK    1  A    between atoms: C2_2  and  S1_4 
REMARK    2  A    between atoms: S1_4  and  C3_5 
REMARK    3  A    between atoms: C3_5  and  C4_6 
REMARK    4  A    between atoms: C4_6  and  N1_7 
REMARK       I    between atoms: N1_7  and  C5_8 
REMARK    5  A    between atoms: C5_8  and  C6_10 
REMARK    6  A    between atoms: C6_10  and  C7_11 
REMARK    7  A    between atoms: C7_11  and  N2_12 
REMARK       I    between atoms: N2_12  and  C8_13 
REMARK    8  A    between atoms: C8_13  and  C9_15 
REMARK    9  A    between atoms: C9_15  and  C10_16 
REMARK   10  A    between atoms: C9_15  and  O17_54 
REMARK   11  A    between atoms: C10_16  and  C13_19 
REMARK   12  A    between atoms: C13_19  and  O4_20 
REMARK   13  A    between atoms: O4_20  and  P1_21 
REMARK   14  A    between atoms: P1_21  and  O6_23 
REMARK   15  A    between atoms: P1_21  and  O7_24 
REMARK   16  A    between atoms: O7_24  and  P2_25 
REMARK   17  A    between atoms: P2_25  and  O9_27 
REMARK   18  A    between atoms: P2_25  and  O10_28 
REMARK   19  A    between atoms: O10_28  and  C14_29 
REMARK   20  A    between atoms: C14_29  and  C15_30 
REMARK   21  A    between atoms: C16_31  and  O13_49 
REMARK   22  A    between atoms: C17_32  and  O12_48 
REMARK   23  A    between atoms: C18_33  and  N3_35 
REMARK   24  A    between atoms: C21_40  and  N7_47 
REMARK   25  A    between atoms: O13_49  and  P3_50 
REMARK   26  A    between atoms: P3_50  and  O15_52 
REMARK   27  A    between atoms: P3_50  and  O16_53 
ROOT
HETATM    1  C1  UNL     1       7.089  -2.125 -16.234  1.00  0.00     0.104 C 
HETATM    2  C2  UNL     1       6.059  -2.019 -15.151  1.00  0.00     0.182 C 
HETATM    3  O1  UNL     1       6.026  -2.766 -14.176  1.00  0.00    -0.286 OA
ENDROOT
BRANCH   2   4
HETATM    4  S1  UNL     1       4.866  -0.753 -15.407  1.00  0.00    -0.091 SA
BRANCH   4   5
HETATM    5  C3  UNL     1       4.520  -0.988 -17.180  1.00  0.00     0.102 C 
BRANCH   5   6
HETATM    6  C4  UNL     1       4.837   0.268 -17.994  1.00  0.00     0.133 C 
BRANCH   6   7
HETATM    7  N1  UNL     1       5.261   1.379 -17.166  1.00  0.00    -0.360 N 
HETATM    8  C5  UNL     1       5.188   2.680 -17.608  1.00  0.00     0.219 C 
HETATM    9  O2  UNL     1       4.840   2.972 -18.746  1.00  0.00    -0.274 OA
HETATM   10  H8  UNL     1       5.611   1.188 -16.237  1.00  0.00     0.162 HD
BRANCH   8  11
HETATM   11  C6  UNL     1       5.626   3.690 -16.570  1.00  0.00     0.122 C 
BRANCH  11  12
HETATM   12  C7  UNL     1       6.980   4.311 -16.914  1.00  0.00     0.132 C 
BRANCH  12  13
HETATM   13  N2  UNL     1       7.308   5.452 -16.084  1.00  0.00    -0.358 N 
HETATM   14  C8  UNL     1       8.323   5.365 -15.150  1.00  0.00     0.247 C 
HETATM   15  O3  UNL     1       8.894   4.310 -14.905  1.00  0.00    -0.271 OA
HETATM   16  H13 UNL     1       7.141   6.363 -16.506  1.00  0.00     0.162 HD
BRANCH  14  17
HETATM   17  C9  UNL     1       8.685   6.692 -14.466  1.00  0.00     0.219 C 
BRANCH  17  18
HETATM   18  C10 UNL     1      10.082   7.249 -14.844  1.00  0.00     0.009 C 
HETATM   19  C11 UNL     1      11.206   6.601 -14.021  1.00  0.00     0.020 C 
HETATM   20  C12 UNL     1      10.396   7.024 -16.337  1.00  0.00     0.020 C 
BRANCH  18  21
HETATM   21  C13 UNL     1      10.029   8.775 -14.543  1.00  0.00     0.192 C 
BRANCH  21  22
HETATM   22  O4  UNL     1      10.066   9.557 -15.720  1.00  0.00    -0.296 OA
BRANCH  22  23
HETATM   23  P1  UNL     1       9.154  10.859 -15.928  1.00  0.00     0.401 P 
HETATM   24  O5  UNL     1       9.233  11.448 -17.302  1.00  0.00    -0.631 OA
BRANCH  23  25
HETATM   25  O6  UNL     1       9.543  11.892 -14.756  1.00  0.00    -0.307 OA
HETATM   26  H23 UNL     1       9.129  11.658 -13.916  1.00  0.00     0.222 HD
ENDBRANCH  23  25
BRANCH  23  27
HETATM   27  O7  UNL     1       7.694  10.416 -15.478  1.00  0.00    -0.195 OA
BRANCH  27  28
HETATM   28  P2  UNL     1       6.658  11.534 -15.017  1.00  0.00     0.401 P 
HETATM   29  O8  UNL     1       6.727  11.975 -13.591  1.00  0.00    -0.631 OA
BRANCH  28  30
HETATM   30  O9  UNL     1       6.891  12.708 -16.073  1.00  0.00    -0.307 OA
HETATM   31  H24 UNL     1       7.461  12.454 -16.840  1.00  0.00     0.222 HD
ENDBRANCH  28  30
BRANCH  28  32
HETATM   32  O10 UNL     1       5.244  10.976 -15.506  1.00  0.00    -0.294 OA
BRANCH  32  33
HETATM   33  C14 UNL     1       5.110   9.626 -15.869  1.00  0.00     0.215 C 
BRANCH  33  34
HETATM   34  C15 UNL     1       3.891   9.551 -16.786  1.00  0.00     0.180 C 
HETATM   35  C16 UNL     1       3.094  10.845 -16.693  1.00  0.00     0.197 C 
HETATM   36  C17 UNL     1       1.741  10.426 -16.149  1.00  0.00     0.199 C 
HETATM   37  C18 UNL     1       1.656   8.962 -16.588  1.00  0.00     0.262 C 
HETATM   38  O11 UNL     1       3.009   8.471 -16.457  1.00  0.00    -0.353 OA
BRANCH  35  39
HETATM   39  O13 UNL     1       2.998  11.400 -18.001  1.00  0.00    -0.286 OA
BRANCH  39  40
HETATM   40  P3  UNL     1       4.049  12.556 -18.338  1.00  0.00     0.391 P 
HETATM   41  O14 UNL     1       5.378  12.047 -18.797  1.00  0.00    -0.632 OA
BRANCH  40  42
HETATM   42  O15 UNL     1       4.009  13.403 -16.982  1.00  0.00    -0.307 OA
HETATM   43  H36 UNL     1       3.173  13.229 -16.487  1.00  0.00     0.222 HD
ENDBRANCH  40  42
BRANCH  40  44
HETATM   44  O16 UNL     1       3.216  13.454 -19.351  1.00  0.00    -0.307 OA
HETATM   45  H37 UNL     1       2.929  12.966 -20.139  1.00  0.00     0.222 HD
ENDBRANCH  40  44
ENDBRANCH  39  40
ENDBRANCH  35  39
BRANCH  36  46
HETATM   46  O12 UNL     1       0.722  11.312 -16.617  1.00  0.00    -0.388 OA
HETATM   47  H35 UNL     1       0.837  12.156 -16.119  1.00  0.00     0.210 HD
ENDBRANCH  36  46
BRANCH  37  48
HETATM   48  N3  UNL     1       0.790   8.174 -15.735  1.00  0.00    -0.297 N 
HETATM   49  C19 UNL     1       0.559   8.355 -14.391  1.00  0.00     0.188 A 
HETATM   50  N4  UNL     1      -0.378   7.553 -13.934  1.00  0.00    -0.346 N 
HETATM   51  C20 UNL     1      -0.778   6.819 -15.037  1.00  0.00     0.116 A 
HETATM   52  H4  UNL     1      -0.731   7.487 -12.980  1.00  0.00     0.167 HD
HETATM   53  C21 UNL     1      -1.764   5.835 -15.220  1.00  0.00     0.109 A 
HETATM   54  C23 UNL     1      -0.035   7.167 -16.151  1.00  0.00     0.142 A 
HETATM   55  N5  UNL     1      -1.911   5.283 -16.449  1.00  0.00    -0.341 N 
HETATM   56  C22 UNL     1      -1.098   5.704 -17.439  1.00  0.00     0.183 A 
HETATM   57  H5  UNL     1      -2.618   4.569 -16.621  1.00  0.00     0.167 HD
HETATM   58  N6  UNL     1      -0.129   6.641 -17.385  1.00  0.00    -0.336 N 
HETATM   59  H6  UNL     1       0.455   6.915 -18.176  1.00  0.00     0.168 HD
BRANCH  53  60
HETATM   60  N7  UNL     1      -2.593   5.388 -14.203  1.00  0.00    -0.287 NA
HETATM   61  H33 UNL     1      -2.653   6.016 -13.405  1.00  0.00     0.125 HD
HETATM   62  H34 UNL     1      -2.473   4.404 -14.000  1.00  0.00     0.125 HD
ENDBRANCH  53  60
ENDBRANCH  37  48
ENDBRANCH  33  34
ENDBRANCH  32  33
ENDBRANCH  28  32
ENDBRANCH  27  28
ENDBRANCH  23  27
ENDBRANCH  22  23
ENDBRANCH  21  22
ENDBRANCH  18  21
ENDBRANCH  17  18
BRANCH  17  63
HETATM   63  O17 UNL     1       7.701   7.687 -14.769  1.00  0.00    -0.385 OA
HETATM   64  H38 UNL     1       6.945   7.554 -14.174  1.00  0.00     0.210 HD
ENDBRANCH  17  63
ENDBRANCH  14  17
ENDBRANCH  12  13
ENDBRANCH  11  12
ENDBRANCH   8  11
ENDBRANCH   6   7
ENDBRANCH   5   6
ENDBRANCH   4   5
ENDBRANCH   2   4
TORSDOF 27
ENDMDL
MODEL 12
REMARK VINA RESULT:      -5.9      3.294      6.068
REMARK  27 active torsions:
REMARK  status: ('A' for Active; 'I' for Inactive)
REMARK    1  A    between atoms: C2_2  and  S1_4 
REMARK    2  A    between atoms: S1_4  and  C3_5 
REMARK    3  A    between atoms: C3_5  and  C4_6 
REMARK    4  A    between atoms: C4_6  and  N1_7 
REMARK       I    between atoms: N1_7  and  C5_8 
REMARK    5  A    between atoms: C5_8  and  C6_10 
REMARK    6  A    between atoms: C6_10  and  C7_11 
REMARK    7  A    between atoms: C7_11  and  N2_12 
REMARK       I    between atoms: N2_12  and  C8_13 
REMARK    8  A    between atoms: C8_13  and  C9_15 
REMARK    9  A    between atoms: C9_15  and  C10_16 
REMARK   10  A    between atoms: C9_15  and  O17_54 
REMARK   11  A    between atoms: C10_16  and  C13_19 
REMARK   12  A    between atoms: C13_19  and  O4_20 
REMARK   13  A    between atoms: O4_20  and  P1_21 
REMARK   14  A    between atoms: P1_21  and  O6_23 
REMARK   15  A    between atoms: P1_21  and  O7_24 
REMARK   16  A    between atoms: O7_24  and  P2_25 
REMARK   17  A    between atoms: P2_25  and  O9_27 
REMARK   18  A    between atoms: P2_25  and  O10_28 
REMARK   19  A    between atoms: O10_28  and  C14_29 
REMARK   20  A    between atoms: C14_29  and  C15_30 
REMARK   21  A    between atoms: C16_31  and  O13_49 
REMARK   22  A    between atoms: C17_32  and  O12_48 
REMARK   23  A    between atoms: C18_33  and  N3_35 
REMARK   24  A    between atoms: C21_40  and  N7_47 
REMARK   25  A    between atoms: O13_49  and  P3_50 
REMARK   26  A    between atoms: P3_50  and  O15_52 
REMARK   27  A    between atoms: P3_50  and  O16_53 
ROOT
HETATM    1  C1  UNL     1       4.833  -6.183 -17.783  1.00  0.00     0.104 C 
HETATM    2  C2  UNL     1       5.939  -5.848 -18.737  1.00  0.00     0.182 C 
HETATM    3  O1  UNL     1       6.909  -6.578 -18.928  1.00  0.00    -0.286 OA
ENDROOT
BRANCH   2   4
HETATM    4  S1  UNL     1       5.758  -4.295 -19.540  1.00  0.00    -0.091 SA
BRANCH   4   5
HETATM    5  C3  UNL     1       7.260  -3.449 -18.950  1.00  0.00     0.102 C 
BRANCH   5   6
HETATM    6  C4  UNL     1       6.943  -2.412 -17.870  1.00  0.00     0.133 C 
BRANCH   6   7
HETATM    7  N1  UNL     1       7.098  -2.937 -16.529  1.00  0.00    -0.360 N 
HETATM    8  C5  UNL     1       6.014  -3.296 -15.763  1.00  0.00     0.219 C 
HETATM    9  O2  UNL     1       4.858  -3.121 -16.131  1.00  0.00    -0.274 OA
HETATM   10  H8  UNL     1       8.031  -3.046 -16.154  1.00  0.00     0.162 HD
BRANCH   8  11
HETATM   11  C6  UNL     1       6.397  -3.872 -14.416  1.00  0.00     0.122 C 
BRANCH  11  12
HETATM   12  C7  UNL     1       6.028  -2.933 -13.268  1.00  0.00     0.132 C 
BRANCH  12  13
HETATM   13  N2  UNL     1       5.507  -1.661 -13.721  1.00  0.00    -0.358 N 
HETATM   14  C8  UNL     1       5.413  -0.595 -12.844  1.00  0.00     0.247 C 
HETATM   15  O3  UNL     1       5.648  -0.712 -11.648  1.00  0.00    -0.271 OA
HETATM   16  H13 UNL     1       5.671  -1.444 -14.701  1.00  0.00     0.162 HD
BRANCH  14  17
HETATM   17  C9  UNL     1       5.013   0.739 -13.493  1.00  0.00     0.219 C 
BRANCH  17  18
HETATM   18  C10 UNL     1       5.754   1.978 -12.924  1.00  0.00     0.009 C 
HETATM   19  C11 UNL     1       5.975   3.060 -13.991  1.00  0.00     0.020 C 
HETATM   20  C12 UNL     1       4.974   2.615 -11.756  1.00  0.00     0.020 C 
BRANCH  18  21
HETATM   21  C13 UNL     1       7.128   1.457 -12.415  1.00  0.00     0.192 C 
BRANCH  21  22
HETATM   22  O4  UNL     1       7.519   2.066 -11.201  1.00  0.00    -0.296 OA
BRANCH  22  23
HETATM   23  P1  UNL     1       8.721   3.123 -11.105  1.00  0.00     0.401 P 
HETATM   24  O5  UNL     1       9.725   2.812 -10.040  1.00  0.00    -0.631 OA
BRANCH  23  25
HETATM   25  O6  UNL     1       8.049   4.578 -10.959  1.00  0.00    -0.307 OA
HETATM   26  H23 UNL     1       8.618   5.192 -10.476  1.00  0.00     0.222 HD
ENDBRANCH  23  25
BRANCH  23  27
HETATM   27  O7  UNL     1       9.317   3.203 -12.578  1.00  0.00    -0.195 OA
BRANCH  27  28
HETATM   28  P2  UNL     1      10.356   4.359 -12.926  1.00  0.00     0.401 P 
HETATM   29  O8  UNL     1      10.556   5.422 -11.896  1.00  0.00    -0.631 OA
BRANCH  28  30
HETATM   30  O9  UNL     1      11.685   3.556 -13.299  1.00  0.00    -0.307 OA
HETATM   31  H24 UNL     1      12.507   4.106 -13.282  1.00  0.00     0.222 HD
ENDBRANCH  28  30
BRANCH  28  32
HETATM   32  O10 UNL     1       9.903   4.864 -14.371  1.00  0.00    -0.294 OA
BRANCH  32  33
HETATM   33  C14 UNL     1       8.542   4.883 -14.713  1.00  0.00     0.215 C 
BRANCH  33  34
HETATM   34  C15 UNL     1       8.391   5.938 -15.808  1.00  0.00     0.180 C 
HETATM   35  C16 UNL     1       8.390   7.329 -15.187  1.00  0.00     0.197 C 
HETATM   36  C17 UNL     1       7.026   7.900 -15.527  1.00  0.00     0.199 C 
HETATM   37  C18 UNL     1       6.657   7.121 -16.792  1.00  0.00     0.262 C 
HETATM   38  O11 UNL     1       7.181   5.795 -16.559  1.00  0.00    -0.353 OA
BRANCH  35  39
HETATM   39  O13 UNL     1       9.448   8.076 -15.777  1.00  0.00    -0.286 OA
BRANCH  39  40
HETATM   40  P3  UNL     1      10.425   8.816 -14.750  1.00  0.00     0.391 P 
HETATM   41  O14 UNL     1      11.639   9.406 -15.391  1.00  0.00    -0.632 OA
BRANCH  40  42
HETATM   42  O15 UNL     1      10.647   7.663 -13.664  1.00  0.00    -0.307 OA
HETATM   43  H36 UNL     1      10.029   6.910 -13.823  1.00  0.00     0.222 HD
ENDBRANCH  40  42
BRANCH  40  44
HETATM   44  O16 UNL     1       9.420   9.811 -14.021  1.00  0.00    -0.307 OA
HETATM   45  H37 UNL     1       9.320  10.655 -14.489  1.00  0.00     0.222 HD
ENDBRANCH  40  44
ENDBRANCH  39  40
ENDBRANCH  35  39
BRANCH  36  46
HETATM   46  O12 UNL     1       7.098   9.325 -15.631  1.00  0.00    -0.388 OA
HETATM   47  H35 UNL     1       7.210   9.665 -14.712  1.00  0.00     0.210 HD
ENDBRANCH  36  46
BRANCH  37  48
HETATM   48  N3  UNL     1       5.224   7.028 -16.989  1.00  0.00    -0.297 N 
HETATM   49  C19 UNL     1       4.465   5.882 -17.045  1.00  0.00     0.188 A 
HETATM   50  N4  UNL     1       3.177   6.140 -17.106  1.00  0.00    -0.346 N 
HETATM   51  C20 UNL     1       3.096   7.521 -17.085  1.00  0.00     0.116 A 
HETATM   52  H4  UNL     1       2.409   5.471 -17.158  1.00  0.00     0.167 HD
HETATM   53  C21 UNL     1       2.009   8.412 -17.083  1.00  0.00     0.109 A 
HETATM   54  C23 UNL     1       4.359   8.084 -17.052  1.00  0.00     0.142 A 
HETATM   55  N5  UNL     1       2.261   9.744 -17.069  1.00  0.00    -0.341 N 
HETATM   56  C22 UNL     1       3.546  10.150 -17.062  1.00  0.00     0.183 A 
HETATM   57  H5  UNL     1       1.498  10.420 -17.064  1.00  0.00     0.167 HD
HETATM   58  N6  UNL     1       4.663   9.394 -17.053  1.00  0.00    -0.336 N 
HETATM   59  H6  UNL     1       5.613   9.767 -17.048  1.00  0.00     0.168 HD
BRANCH  53  60
HETATM   60  N7  UNL     1       0.686   8.000 -17.106  1.00  0.00    -0.287 NA
HETATM   61  H33 UNL     1       0.051   8.653 -17.560  1.00  0.00     0.125 HD
HETATM   62  H34 UNL     1       0.380   7.605 -16.226  1.00  0.00     0.125 HD
ENDBRANCH  53  60
ENDBRANCH  37  48
ENDBRANCH  33  34
ENDBRANCH  32  33
ENDBRANCH  28  32
ENDBRANCH  27  28
ENDBRANCH  23  27
ENDBRANCH  22  23
ENDBRANCH  21  22
ENDBRANCH  18  21
ENDBRANCH  17  18
BRANCH  17  63
HETATM   63  O17 UNL     1       5.235   0.686 -14.906  1.00  0.00    -0.385 OA
HETATM   64  H38 UNL     1       5.738   1.477 -15.163  1.00  0.00     0.210 HD
ENDBRANCH  17  63
ENDBRANCH  14  17
ENDBRANCH  12  13
ENDBRANCH  11  12
ENDBRANCH   8  11
ENDBRANCH   6   7
ENDBRANCH   5   6
ENDBRANCH   4   5
ENDBRANCH   2   4
TORSDOF 27
ENDMDL
MODEL 13
REMARK VINA RESULT:      -5.8      4.390      7.113
REMARK  27 active torsions:
REMARK  status: ('A' for Active; 'I' for Inactive)
REMARK    1  A    between atoms: C2_2  and  S1_4 
REMARK    2  A    between atoms: S1_4  and  C3_5 
REMARK    3  A    between atoms: C3_5  and  C4_6 
REMARK    4  A    between atoms: C4_6  and  N1_7 
REMARK       I    between atoms: N1_7  and  C5_8 
REMARK    5  A    between atoms: C5_8  and  C6_10 
REMARK    6  A    between atoms: C6_10  and  C7_11 
REMARK    7  A    between atoms: C7_11  and  N2_12 
REMARK       I    between atoms: N2_12  and  C8_13 
REMARK    8  A    between atoms: C8_13  and  C9_15 
REMARK    9  A    between atoms: C9_15  and  C10_16 
REMARK   10  A    between atoms: C9_15  and  O17_54 
REMARK   11  A    between atoms: C10_16  and  C13_19 
REMARK   12  A    between atoms: C13_19  and  O4_20 
REMARK   13  A    between atoms: O4_20  and  P1_21 
REMARK   14  A    between atoms: P1_21  and  O6_23 
REMARK   15  A    between atoms: P1_21  and  O7_24 
REMARK   16  A    between atoms: O7_24  and  P2_25 
REMARK   17  A    between atoms: P2_25  and  O9_27 
REMARK   18  A    between atoms: P2_25  and  O10_28 
REMARK   19  A    between atoms: O10_28  and  C14_29 
REMARK   20  A    between atoms: C14_29  and  C15_30 
REMARK   21  A    between atoms: C16_31  and  O13_49 
REMARK   22  A    between atoms: C17_32  and  O12_48 
REMARK   23  A    between atoms: C18_33  and  N3_35 
REMARK   24  A    between atoms: C21_40  and  N7_47 
REMARK   25  A    between atoms: O13_49  and  P3_50 
REMARK   26  A    between atoms: P3_50  and  O15_52 
REMARK   27  A    between atoms: P3_50  and  O16_53 
ROOT
HETATM    1  C1  UNL     1       6.432   4.370  -8.439  1.00  0.00     0.104 C 
HETATM    2  C2  UNL     1       6.173   3.341  -9.497  1.00  0.00     0.182 C 
HETATM    3  O1  UNL     1       5.138   3.297 -10.156  1.00  0.00    -0.286 OA
ENDROOT
BRANCH   2   4
HETATM    4  S1  UNL     1       7.465   2.164  -9.695  1.00  0.00    -0.091 SA
BRANCH   4   5
HETATM    5  C3  UNL     1       7.763   2.309 -11.486  1.00  0.00     0.102 C 
BRANCH   5   6
HETATM    6  C4  UNL     1       8.050   3.754 -11.901  1.00  0.00     0.133 C 
BRANCH   6   7
HETATM    7  N1  UNL     1       9.223   3.871 -12.743  1.00  0.00    -0.360 N 
HETATM    8  C5  UNL     1      10.384   4.454 -12.291  1.00  0.00     0.219 C 
HETATM    9  O2  UNL     1      10.473   4.977 -11.186  1.00  0.00    -0.274 OA
HETATM   10  H8  UNL     1       9.183   3.507 -13.686  1.00  0.00     0.162 HD
BRANCH   8  11
HETATM   11  C6  UNL     1      11.504   4.426 -13.308  1.00  0.00     0.122 C 
BRANCH  11  12
HETATM   12  C7  UNL     1      11.622   5.749 -14.064  1.00  0.00     0.132 C 
BRANCH  12  13
HETATM   13  N2  UNL     1      10.747   6.780 -13.544  1.00  0.00    -0.358 N 
HETATM   14  C8  UNL     1       9.945   7.510 -14.402  1.00  0.00     0.247 C 
HETATM   15  O3  UNL     1      10.025   7.403 -15.619  1.00  0.00    -0.271 OA
HETATM   16  H13 UNL     1      10.400   6.624 -12.600  1.00  0.00     0.162 HD
BRANCH  14  17
HETATM   17  C9  UNL     1       8.941   8.442 -13.707  1.00  0.00     0.219 C 
BRANCH  17  18
HETATM   18  C10 UNL     1       9.587   9.632 -12.949  1.00  0.00     0.009 C 
HETATM   19  C11 UNL     1       9.877   9.292 -11.480  1.00  0.00     0.020 C 
HETATM   20  C12 UNL     1      10.911  10.069 -13.607  1.00  0.00     0.020 C 
BRANCH  18  21
HETATM   21  C13 UNL     1       8.556  10.794 -13.022  1.00  0.00     0.192 C 
BRANCH  21  22
HETATM   22  O4  UNL     1       9.009  11.866 -13.825  1.00  0.00    -0.296 OA
BRANCH  22  23
HETATM   23  P1  UNL     1       8.155  12.463 -15.043  1.00  0.00     0.401 P 
HETATM   24  O5  UNL     1       8.957  12.742 -16.275  1.00  0.00    -0.631 OA
BRANCH  23  25
HETATM   25  O6  UNL     1       7.370  13.749 -14.474  1.00  0.00    -0.307 OA
HETATM   26  H23 UNL     1       7.491  14.525 -15.037  1.00  0.00     0.222 HD
ENDBRANCH  23  25
BRANCH  23  27
HETATM   27  O7  UNL     1       6.957  11.436 -15.247  1.00  0.00    -0.195 OA
BRANCH  27  28
HETATM   28  P2  UNL     1       5.578  11.970 -15.840  1.00  0.00     0.401 P 
HETATM   29  O8  UNL     1       4.685  12.720 -14.906  1.00  0.00    -0.631 OA
BRANCH  28  30
HETATM   30  O9  UNL     1       6.029  12.807 -17.123  1.00  0.00    -0.307 OA
HETATM   31  H24 UNL     1       7.005  12.953 -17.186  1.00  0.00     0.222 HD
ENDBRANCH  28  30
BRANCH  28  32
HETATM   32  O10 UNL     1       4.935  10.686 -16.538  1.00  0.00    -0.294 OA
BRANCH  32  33
HETATM   33  C14 UNL     1       3.544  10.500 -16.523  1.00  0.00     0.215 C 
BRANCH  33  34
HETATM   34  C15 UNL     1       3.264   9.294 -17.418  1.00  0.00     0.180 C 
HETATM   35  C16 UNL     1       2.905   8.088 -16.560  1.00  0.00     0.197 C 
HETATM   36  C17 UNL     1       3.994   7.072 -16.850  1.00  0.00     0.199 C 
HETATM   37  C18 UNL     1       4.459   7.489 -18.248  1.00  0.00     0.262 C 
HETATM   38  O11 UNL     1       4.384   8.931 -18.233  1.00  0.00    -0.353 OA
BRANCH  35  39
HETATM   39  O13 UNL     1       1.620   7.627 -16.962  1.00  0.00    -0.286 OA
BRANCH  39  40
HETATM   40  P3  UNL     1       0.583   7.355 -15.776  1.00  0.00     0.391 P 
HETATM   41  O14 UNL     1       1.064   6.358 -14.773  1.00  0.00    -0.632 OA
BRANCH  40  42
HETATM   42  O15 UNL     1      -0.735   6.991 -16.608  1.00  0.00    -0.307 OA
HETATM   43  H36 UNL     1      -0.503   6.492 -17.427  1.00  0.00     0.222 HD
ENDBRANCH  40  42
BRANCH  40  44
HETATM   44  O16 UNL     1       0.292   8.832 -15.266  1.00  0.00    -0.307 OA
HETATM   45  H37 UNL     1       0.270   8.898 -14.298  1.00  0.00     0.222 HD
ENDBRANCH  40  44
ENDBRANCH  39  40
ENDBRANCH  35  39
BRANCH  36  46
HETATM   46  O12 UNL     1       3.486   5.744 -16.696  1.00  0.00    -0.388 OA
HETATM   47  H35 UNL     1       4.227   5.135 -16.927  1.00  0.00     0.210 HD
ENDBRANCH  36  46
BRANCH  37  48
HETATM   48  N3  UNL     1       5.828   7.096 -18.518  1.00  0.00    -0.297 N 
HETATM   49  C19 UNL     1       6.257   5.924 -19.096  1.00  0.00     0.188 A 
HETATM   50  N4  UNL     1       7.553   5.924 -19.320  1.00  0.00    -0.346 N 
HETATM   51  C20 UNL     1       7.985   7.159 -18.869  1.00  0.00     0.116 A 
HETATM   52  H4  UNL     1       8.115   5.181 -19.734  1.00  0.00     0.167 HD
HETATM   53  C21 UNL     1       9.243   7.786 -18.865  1.00  0.00     0.109 A 
HETATM   54  C23 UNL     1       6.933   7.879 -18.334  1.00  0.00     0.142 A 
HETATM   55  N5  UNL     1       9.349   9.027 -18.330  1.00  0.00    -0.341 N 
HETATM   56  C22 UNL     1       8.239   9.599 -17.821  1.00  0.00     0.183 A 
HETATM   57  H5  UNL     1      10.245   9.514 -18.312  1.00  0.00     0.167 HD
HETATM   58  N6  UNL     1       6.986   9.102 -17.777  1.00  0.00    -0.336 N 
HETATM   59  H6  UNL     1       6.185   9.590 -17.375  1.00  0.00     0.168 HD
BRANCH  53  60
HETATM   60  N7  UNL     1      10.390   7.196 -19.373  1.00  0.00    -0.287 NA
HETATM   61  H33 UNL     1      10.604   6.285 -18.975  1.00  0.00     0.125 HD
HETATM   62  H34 UNL     1      11.160   7.845 -19.465  1.00  0.00     0.125 HD
ENDBRANCH  53  60
ENDBRANCH  37  48
ENDBRANCH  33  34
ENDBRANCH  32  33
ENDBRANCH  28  32
ENDBRANCH  27  28
ENDBRANCH  23  27
ENDBRANCH  22  23
ENDBRANCH  21  22
ENDBRANCH  18  21
ENDBRANCH  17  18
BRANCH  17  63
HETATM   63  O17 UNL     1       8.010   8.963 -14.662  1.00  0.00    -0.385 OA
HETATM   64  H38 UNL     1       7.331   9.463 -14.179  1.00  0.00     0.210 HD
ENDBRANCH  17  63
ENDBRANCH  14  17
ENDBRANCH  12  13
ENDBRANCH  11  12
ENDBRANCH   8  11
ENDBRANCH   6   7
ENDBRANCH   5   6
ENDBRANCH   4   5
ENDBRANCH   2   4
TORSDOF 27
ENDMDL
MODEL 14
REMARK VINA RESULT:      -5.7      4.694      7.154
REMARK  27 active torsions:
REMARK  status: ('A' for Active; 'I' for Inactive)
REMARK    1  A    between atoms: C2_2  and  S1_4 
REMARK    2  A    between atoms: S1_4  and  C3_5 
REMARK    3  A    between atoms: C3_5  and  C4_6 
REMARK    4  A    between atoms: C4_6  and  N1_7 
REMARK       I    between atoms: N1_7  and  C5_8 
REMARK    5  A    between atoms: C5_8  and  C6_10 
REMARK    6  A    between atoms: C6_10  and  C7_11 
REMARK    7  A    between atoms: C7_11  and  N2_12 
REMARK       I    between atoms: N2_12  and  C8_13 
REMARK    8  A    between atoms: C8_13  and  C9_15 
REMARK    9  A    between atoms: C9_15  and  C10_16 
REMARK   10  A    between atoms: C9_15  and  O17_54 
REMARK   11  A    between atoms: C10_16  and  C13_19 
REMARK   12  A    between atoms: C13_19  and  O4_20 
REMARK   13  A    between atoms: O4_20  and  P1_21 
REMARK   14  A    between atoms: P1_21  and  O6_23 
REMARK   15  A    between atoms: P1_21  and  O7_24 
REMARK   16  A    between atoms: O7_24  and  P2_25 
REMARK   17  A    between atoms: P2_25  and  O9_27 
REMARK   18  A    between atoms: P2_25  and  O10_28 
REMARK   19  A    between atoms: O10_28  and  C14_29 
REMARK   20  A    between atoms: C14_29  and  C15_30 
REMARK   21  A    between atoms: C16_31  and  O13_49 
REMARK   22  A    between atoms: C17_32  and  O12_48 
REMARK   23  A    between atoms: C18_33  and  N3_35 
REMARK   24  A    between atoms: C21_40  and  N7_47 
REMARK   25  A    between atoms: O13_49  and  P3_50 
REMARK   26  A    between atoms: P3_50  and  O15_52 
REMARK   27  A    between atoms: P3_50  and  O16_53 
ROOT
HETATM    1  C1  UNL     1       6.866   4.129  -8.387  1.00  0.00     0.104 C 
HETATM    2  C2  UNL     1       6.496   2.801  -8.973  1.00  0.00     0.182 C 
HETATM    3  O1  UNL     1       6.800   1.728  -8.458  1.00  0.00    -0.286 OA
ENDROOT
BRANCH   2   4
HETATM    4  S1  UNL     1       5.618   2.899 -10.494  1.00  0.00    -0.091 SA
BRANCH   4   5
HETATM    5  C3  UNL     1       6.448   1.577 -11.433  1.00  0.00     0.102 C 
BRANCH   5   6
HETATM    6  C4  UNL     1       7.607   2.116 -12.273  1.00  0.00     0.133 C 
BRANCH   6   7
HETATM    7  N1  UNL     1       8.029   3.439 -11.861  1.00  0.00    -0.360 N 
HETATM    8  C5  UNL     1       9.299   3.906 -12.112  1.00  0.00     0.219 C 
HETATM    9  O2  UNL     1      10.168   3.210 -12.623  1.00  0.00    -0.274 OA
HETATM   10  H8  UNL     1       7.366   4.034 -11.382  1.00  0.00     0.162 HD
BRANCH   8  11
HETATM   11  C6  UNL     1       9.516   5.330 -11.649  1.00  0.00     0.122 C 
BRANCH  11  12
HETATM   12  C7  UNL     1      10.063   6.217 -12.768  1.00  0.00     0.132 C 
BRANCH  12  13
HETATM   13  N2  UNL     1       9.491   5.915 -14.063  1.00  0.00    -0.358 N 
HETATM   14  C8  UNL     1      10.305   5.793 -15.173  1.00  0.00     0.247 C 
HETATM   15  O3  UNL     1      11.502   6.048 -15.135  1.00  0.00    -0.271 OA
HETATM   16  H13 UNL     1       8.640   5.356 -14.046  1.00  0.00     0.162 HD
BRANCH  14  17
HETATM   17  C9  UNL     1       9.595   5.298 -16.442  1.00  0.00     0.219 C 
BRANCH  17  18
HETATM   18  C10 UNL     1       9.298   6.406 -17.487  1.00  0.00     0.009 C 
HETATM   19  C11 UNL     1       9.135   7.787 -16.835  1.00  0.00     0.020 C 
HETATM   20  C12 UNL     1      10.422   6.507 -18.538  1.00  0.00     0.020 C 
BRANCH  18  21
HETATM   21  C13 UNL     1       7.968   5.994 -18.180  1.00  0.00     0.192 C 
BRANCH  21  22
HETATM   22  O4  UNL     1       6.831   6.455 -17.478  1.00  0.00    -0.296 OA
BRANCH  22  23
HETATM   23  P1  UNL     1       5.339   5.987 -17.834  1.00  0.00     0.401 P 
HETATM   24  O5  UNL     1       4.683   5.169 -16.767  1.00  0.00    -0.631 OA
BRANCH  23  25
HETATM   25  O6  UNL     1       5.411   5.251 -19.264  1.00  0.00    -0.307 OA
HETATM   26  H23 UNL     1       6.196   4.693 -19.345  1.00  0.00     0.222 HD
ENDBRANCH  23  25
BRANCH  23  27
HETATM   27  O7  UNL     1       4.568   7.325 -18.214  1.00  0.00    -0.195 OA
BRANCH  27  28
HETATM   28  P2  UNL     1       3.881   8.174 -17.054  1.00  0.00     0.401 P 
HETATM   29  O8  UNL     1       2.496   7.782 -16.658  1.00  0.00    -0.631 OA
BRANCH  28  30
HETATM   30  O9  UNL     1       4.945   8.097 -15.866  1.00  0.00    -0.307 OA
HETATM   31  H24 UNL     1       5.591   7.355 -15.950  1.00  0.00     0.222 HD
ENDBRANCH  28  30
BRANCH  28  32
HETATM   32  O10 UNL     1       4.071   9.690 -17.521  1.00  0.00    -0.294 OA
BRANCH  32  33
HETATM   33  C14 UNL     1       3.133  10.663 -17.143  1.00  0.00     0.215 C 
BRANCH  33  34
HETATM   34  C15 UNL     1       3.719  11.369 -15.921  1.00  0.00     0.180 C 
HETATM   35  C16 UNL     1       3.623  12.878 -16.102  1.00  0.00     0.197 C 
HETATM   36  C17 UNL     1       5.062  13.357 -16.102  1.00  0.00     0.199 C 
HETATM   37  C18 UNL     1       5.767  12.260 -15.301  1.00  0.00     0.262 C 
HETATM   38  O11 UNL     1       5.095  11.043 -15.694  1.00  0.00    -0.353 OA
BRANCH  35  39
HETATM   39  O13 UNL     1       2.880  13.407 -15.008  1.00  0.00    -0.286 OA
BRANCH  39  40
HETATM   40  P3  UNL     1       1.622  14.310 -15.403  1.00  0.00     0.391 P 
HETATM   41  O14 UNL     1       0.493  14.230 -14.427  1.00  0.00    -0.632 OA
BRANCH  40  42
HETATM   42  O15 UNL     1       1.347  13.805 -16.896  1.00  0.00    -0.307 OA
HETATM   43  H36 UNL     1       1.843  12.972 -17.079  1.00  0.00     0.222 HD
ENDBRANCH  40  42
BRANCH  40  44
HETATM   44  O16 UNL     1       2.307  15.728 -15.621  1.00  0.00    -0.307 OA
HETATM   45  H37 UNL     1       1.710  16.469 -15.431  1.00  0.00     0.222 HD
ENDBRANCH  40  44
ENDBRANCH  39  40
ENDBRANCH  35  39
BRANCH  36  46
HETATM   46  O12 UNL     1       5.140  14.693 -15.596  1.00  0.00    -0.388 OA
HETATM   47  H35 UNL     1       5.521  14.624 -14.688  1.00  0.00     0.210 HD
ENDBRANCH  36  46
BRANCH  37  48
HETATM   48  N3  UNL     1       7.173  12.144 -15.634  1.00  0.00    -0.297 N 
HETATM   49  C19 UNL     1       7.875  12.894 -16.548  1.00  0.00     0.188 A 
HETATM   50  N4  UNL     1       9.163  12.629 -16.527  1.00  0.00    -0.346 N 
HETATM   51  C20 UNL     1       9.304  11.663 -15.546  1.00  0.00     0.116 A 
HETATM   52  H4  UNL     1       9.895  13.044 -17.103  1.00  0.00     0.167 HD
HETATM   53  C21 UNL     1      10.424  11.000 -15.016  1.00  0.00     0.109 A 
HETATM   54  C23 UNL     1       8.074  11.325 -15.013  1.00  0.00     0.142 A 
HETATM   55  N5  UNL     1      10.231  10.074 -14.045  1.00  0.00    -0.341 N 
HETATM   56  C22 UNL     1       8.970   9.830 -13.638  1.00  0.00     0.183 A 
HETATM   57  H5  UNL     1      11.020   9.575 -13.634  1.00  0.00     0.167 HD
HETATM   58  N6  UNL     1       7.826  10.405 -14.063  1.00  0.00    -0.336 N 
HETATM   59  H6  UNL     1       6.897  10.173 -13.712  1.00  0.00     0.168 HD
BRANCH  53  60
HETATM   60  N7  UNL     1      11.722  11.237 -15.441  1.00  0.00    -0.287 NA
HETATM   61  H33 UNL     1      12.404  11.299 -14.689  1.00  0.00     0.125 HD
HETATM   62  H34 UNL     1      11.778  11.939 -16.166  1.00  0.00     0.125 HD
ENDBRANCH  53  60
ENDBRANCH  37  48
ENDBRANCH  33  34
ENDBRANCH  32  33
ENDBRANCH  28  32
ENDBRANCH  27  28
ENDBRANCH  23  27
ENDBRANCH  22  23
ENDBRANCH  21  22
ENDBRANCH  18  21
ENDBRANCH  17  18
BRANCH  17  63
HETATM   63  O17 UNL     1      10.371   4.274 -17.073  1.00  0.00    -0.385 OA
HETATM   64  H38 UNL     1      10.479   3.544 -16.441  1.00  0.00     0.210 HD
ENDBRANCH  17  63
ENDBRANCH  14  17
ENDBRANCH  12  13
ENDBRANCH  11  12
ENDBRANCH   8  11
ENDBRANCH   6   7
ENDBRANCH   5   6
ENDBRANCH   4   5
ENDBRANCH   2   4
TORSDOF 27
ENDMDL
MODEL 15
REMARK VINA RESULT:      -5.6      4.360      6.447
REMARK  27 active torsions:
REMARK  status: ('A' for Active; 'I' for Inactive)
REMARK    1  A    between atoms: C2_2  and  S1_4 
REMARK    2  A    between atoms: S1_4  and  C3_5 
REMARK    3  A    between atoms: C3_5  and  C4_6 
REMARK    4  A    between atoms: C4_6  and  N1_7 
REMARK       I    between atoms: N1_7  and  C5_8 
REMARK    5  A    between atoms: C5_8  and  C6_10 
REMARK    6  A    between atoms: C6_10  and  C7_11 
REMARK    7  A    between atoms: C7_11  and  N2_12 
REMARK       I    between atoms: N2_12  and  C8_13 
REMARK    8  A    between atoms: C8_13  and  C9_15 
REMARK    9  A    between atoms: C9_15  and  C10_16 
REMARK   10  A    between atoms: C9_15  and  O17_54 
REMARK   11  A    between atoms: C10_16  and  C13_19 
REMARK   12  A    between atoms: C13_19  and  O4_20 
REMARK   13  A    between atoms: O4_20  and  P1_21 
REMARK   14  A    between atoms: P1_21  and  O6_23 
REMARK   15  A    between atoms: P1_21  and  O7_24 
REMARK   16  A    between atoms: O7_24  and  P2_25 
REMARK   17  A    between atoms: P2_25  and  O9_27 
REMARK   18  A    between atoms: P2_25  and  O10_28 
REMARK   19  A    between atoms: O10_28  and  C14_29 
REMARK   20  A    between atoms: C14_29  and  C15_30 
REMARK   21  A    between atoms: C16_31  and  O13_49 
REMARK   22  A    between atoms: C17_32  and  O12_48 
REMARK   23  A    between atoms: C18_33  and  N3_35 
REMARK   24  A    between atoms: C21_40  and  N7_47 
REMARK   25  A    between atoms: O13_49  and  P3_50 
REMARK   26  A    between atoms: P3_50  and  O15_52 
REMARK   27  A    between atoms: P3_50  and  O16_53 
ROOT
HETATM    1  C1  UNL     1       7.059   4.356  -8.767  1.00  0.00     0.104 C 
HETATM    2  C2  UNL     1       5.896   3.417  -8.869  1.00  0.00     0.182 C 
HETATM    3  O1  UNL     1       4.795   3.652  -8.378  1.00  0.00    -0.286 OA
ENDROOT
BRANCH   2   4
HETATM    4  S1  UNL     1       6.245   1.919  -9.721  1.00  0.00    -0.091 SA
BRANCH   4   5
HETATM    5  C3  UNL     1       6.138   2.496 -11.446  1.00  0.00     0.102 C 
BRANCH   5   6
HETATM    6  C4  UNL     1       7.380   2.114 -12.253  1.00  0.00     0.133 C 
BRANCH   6   7
HETATM    7  N1  UNL     1       8.381   3.161 -12.269  1.00  0.00    -0.360 N 
HETATM    8  C5  UNL     1       8.488   4.044 -13.318  1.00  0.00     0.219 C 
HETATM    9  O2  UNL     1       7.805   3.952 -14.331  1.00  0.00    -0.274 OA
HETATM   10  H8  UNL     1       9.009   3.245 -11.482  1.00  0.00     0.162 HD
BRANCH   8  11
HETATM   11  C6  UNL     1       9.559   5.093 -13.112  1.00  0.00     0.122 C 
BRANCH  11  12
HETATM   12  C7  UNL     1       9.326   5.904 -11.837  1.00  0.00     0.132 C 
BRANCH  12  13
HETATM   13  N2  UNL     1       9.159   7.320 -12.088  1.00  0.00    -0.358 N 
HETATM   14  C8  UNL     1      10.165   8.042 -12.704  1.00  0.00     0.247 C 
HETATM   15  O3  UNL     1      11.261   7.554 -12.949  1.00  0.00    -0.271 OA
HETATM   16  H13 UNL     1       8.201   7.626 -12.247  1.00  0.00     0.162 HD
BRANCH  14  17
HETATM   17  C9  UNL     1       9.790   9.486 -13.069  1.00  0.00     0.219 C 
BRANCH  17  18
HETATM   18  C10 UNL     1       9.575   9.730 -14.586  1.00  0.00     0.009 C 
HETATM   19  C11 UNL     1      10.830  10.300 -15.264  1.00  0.00     0.020 C 
HETATM   20  C12 UNL     1       9.189   8.429 -15.319  1.00  0.00     0.020 C 
BRANCH  18  21
HETATM   21  C13 UNL     1       8.412  10.757 -14.692  1.00  0.00     0.192 C 
BRANCH  21  22
HETATM   22  O4  UNL     1       8.866  12.094 -14.625  1.00  0.00    -0.296 OA
BRANCH  22  23
HETATM   23  P1  UNL     1       8.078  13.242 -13.830  1.00  0.00     0.401 P 
HETATM   24  O5  UNL     1       8.571  14.627 -14.108  1.00  0.00    -0.631 OA
BRANCH  23  25
HETATM   25  O6  UNL     1       8.117  12.840 -12.272  1.00  0.00    -0.307 OA
HETATM   26  H23 UNL     1       7.234  12.822 -11.881  1.00  0.00     0.222 HD
ENDBRANCH  23  25
BRANCH  23  27
HETATM   27  O7  UNL     1       6.544  13.001 -14.174  1.00  0.00    -0.195 OA
BRANCH  27  28
HETATM   28  P2  UNL     1       5.994  13.452 -15.599  1.00  0.00     0.401 P 
HETATM   29  O8  UNL     1       5.033  14.596 -15.622  1.00  0.00    -0.631 OA
BRANCH  28  30
HETATM   30  O9  UNL     1       7.325  13.703 -16.443  1.00  0.00    -0.307 OA
HETATM   31  H24 UNL     1       7.582  14.654 -16.519  1.00  0.00     0.222 HD
ENDBRANCH  28  30
BRANCH  28  32
HETATM   32  O10 UNL     1       5.477  12.094 -16.261  1.00  0.00    -0.294 OA
BRANCH  32  33
HETATM   33  C14 UNL     1       5.084  12.075 -17.609  1.00  0.00     0.215 C 
BRANCH  33  34
HETATM   34  C15 UNL     1       4.036  10.970 -17.731  1.00  0.00     0.180 C 
HETATM   35  C16 UNL     1       3.274  10.834 -16.420  1.00  0.00     0.197 C 
HETATM   36  C17 UNL     1       3.576   9.425 -15.944  1.00  0.00     0.199 C 
HETATM   37  C18 UNL     1       3.901   8.704 -17.255  1.00  0.00     0.262 C 
HETATM   38  O11 UNL     1       4.604   9.692 -18.040  1.00  0.00    -0.353 OA
BRANCH  35  39
HETATM   39  O13 UNL     1       1.889  11.023 -16.692  1.00  0.00    -0.286 OA
BRANCH  39  40
HETATM   40  P3  UNL     1       1.122  12.017 -15.703  1.00  0.00     0.391 P 
HETATM   41  O14 UNL     1       0.440  11.329 -14.566  1.00  0.00    -0.632 OA
BRANCH  40  42
HETATM   42  O15 UNL     1       0.205  12.821 -16.739  1.00  0.00    -0.307 OA
HETATM   43  H36 UNL     1       0.171  12.356 -17.609  1.00  0.00     0.222 HD
ENDBRANCH  40  42
BRANCH  40  44
HETATM   44  O16 UNL     1       2.270  13.060 -15.352  1.00  0.00    -0.307 OA
HETATM   45  H37 UNL     1       3.018  13.018 -15.968  1.00  0.00     0.222 HD
ENDBRANCH  40  44
ENDBRANCH  39  40
ENDBRANCH  35  39
BRANCH  36  46
HETATM   46  O12 UNL     1       2.486   8.919 -15.169  1.00  0.00    -0.388 OA
HETATM   47  H35 UNL     1       1.734   8.794 -15.795  1.00  0.00     0.210 HD
ENDBRANCH  36  46
BRANCH  37  48
HETATM   48  N3  UNL     1       4.767   7.559 -17.060  1.00  0.00    -0.297 N 
HETATM   49  C19 UNL     1       5.856   7.474 -16.225  1.00  0.00     0.188 A 
HETATM   50  N4  UNL     1       6.356   6.258 -16.180  1.00  0.00    -0.346 N 
HETATM   51  C20 UNL     1       5.548   5.518 -17.025  1.00  0.00     0.116 A 
HETATM   52  H4  UNL     1       7.160   5.933 -15.643  1.00  0.00     0.167 HD
HETATM   53  C21 UNL     1       5.529   4.156 -17.374  1.00  0.00     0.109 A 
HETATM   54  C23 UNL     1       4.584   6.320 -17.607  1.00  0.00     0.142 A 
HETATM   55  N5  UNL     1       4.597   3.726 -18.258  1.00  0.00    -0.341 N 
HETATM   56  C22 UNL     1       3.733   4.628 -18.764  1.00  0.00     0.183 A 
HETATM   57  H5  UNL     1       4.550   2.745 -18.533  1.00  0.00     0.167 HD
HETATM   58  N6  UNL     1       3.649   5.948 -18.499  1.00  0.00    -0.336 N 
HETATM   59  H6  UNL     1       2.967   6.580 -18.919  1.00  0.00     0.168 HD
BRANCH  53  60
HETATM   60  N7  UNL     1       6.425   3.227 -16.868  1.00  0.00    -0.287 NA
HETATM   61  H33 UNL     1       6.221   2.264 -17.128  1.00  0.00     0.125 HD
HETATM   62  H34 UNL     1       6.665   3.396 -15.901  1.00  0.00     0.125 HD
ENDBRANCH  53  60
ENDBRANCH  37  48
ENDBRANCH  33  34
ENDBRANCH  32  33
ENDBRANCH  28  32
ENDBRANCH  27  28
ENDBRANCH  23  27
ENDBRANCH  22  23
ENDBRANCH  21  22
ENDBRANCH  18  21
ENDBRANCH  17  18
BRANCH  17  63
HETATM   63  O17 UNL     1       8.602   9.878 -12.373  1.00  0.00    -0.385 OA
HETATM   64  H38 UNL     1       8.641   9.506 -11.476  1.00  0.00     0.210 HD
ENDBRANCH  17  63
ENDBRANCH  14  17
ENDBRANCH  12  13
ENDBRANCH  11  12
ENDBRANCH   8  11
ENDBRANCH   6   7
ENDBRANCH   5   6
ENDBRANCH   4   5
ENDBRANCH   2   4
TORSDOF 27
ENDMDL
MODEL 16
REMARK VINA RESULT:      -5.6      3.739      5.644
REMARK  27 active torsions:
REMARK  status: ('A' for Active; 'I' for Inactive)
REMARK    1  A    between atoms: C2_2  and  S1_4 
REMARK    2  A    between atoms: S1_4  and  C3_5 
REMARK    3  A    between atoms: C3_5  and  C4_6 
REMARK    4  A    between atoms: C4_6  and  N1_7 
REMARK       I    between atoms: N1_7  and  C5_8 
REMARK    5  A    between atoms: C5_8  and  C6_10 
REMARK    6  A    between atoms: C6_10  and  C7_11 
REMARK    7  A    between atoms: C7_11  and  N2_12 
REMARK       I    between atoms: N2_12  and  C8_13 
REMARK    8  A    between atoms: C8_13  and  C9_15 
REMARK    9  A    between atoms: C9_15  and  C10_16 
REMARK   10  A    between atoms: C9_15  and  O17_54 
REMARK   11  A    between atoms: C10_16  and  C13_19 
REMARK   12  A    between atoms: C13_19  and  O4_20 
REMARK   13  A    between atoms: O4_20  and  P1_21 
REMARK   14  A    between atoms: P1_21  and  O6_23 
REMARK   15  A    between atoms: P1_21  and  O7_24 
REMARK   16  A    between atoms: O7_24  and  P2_25 
REMARK   17  A    between atoms: P2_25  and  O9_27 
REMARK   18  A    between atoms: P2_25  and  O10_28 
REMARK   19  A    between atoms: O10_28  and  C14_29 
REMARK   20  A    between atoms: C14_29  and  C15_30 
REMARK   21  A    between atoms: C16_31  and  O13_49 
REMARK   22  A    between atoms: C17_32  and  O12_48 
REMARK   23  A    between atoms: C18_33  and  N3_35 
REMARK   24  A    between atoms: C21_40  and  N7_47 
REMARK   25  A    between atoms: O13_49  and  P3_50 
REMARK   26  A    between atoms: P3_50  and  O15_52 
REMARK   27  A    between atoms: P3_50  and  O16_53 
ROOT
HETATM    1  C1  UNL     1       7.009   4.122  -8.408  1.00  0.00     0.104 C 
HETATM    2  C2  UNL     1       6.615   2.781  -8.948  1.00  0.00     0.182 C 
HETATM    3  O1  UNL     1       6.972   1.720  -8.443  1.00  0.00    -0.286 OA
ENDROOT
BRANCH   2   4
HETATM    4  S1  UNL     1       5.625   2.846 -10.400  1.00  0.00    -0.091 SA
BRANCH   4   5
HETATM    5  C3  UNL     1       6.247   1.378 -11.281  1.00  0.00     0.102 C 
BRANCH   5   6
HETATM    6  C4  UNL     1       7.148   1.758 -12.458  1.00  0.00     0.133 C 
BRANCH   6   7
HETATM    7  N1  UNL     1       7.496   3.164 -12.464  1.00  0.00    -0.360 N 
HETATM    8  C5  UNL     1       8.802   3.588 -12.380  1.00  0.00     0.219 C 
HETATM    9  O2  UNL     1       9.737   2.813 -12.213  1.00  0.00    -0.274 OA
HETATM   10  H8  UNL     1       6.755   3.848 -12.541  1.00  0.00     0.162 HD
BRANCH   8  11
HETATM   11  C6  UNL     1       8.951   5.092 -12.460  1.00  0.00     0.122 C 
BRANCH  11  12
HETATM   12  C7  UNL     1      10.417   5.518 -12.523  1.00  0.00     0.132 C 
BRANCH  12  13
HETATM   13  N2  UNL     1      10.791   6.076 -13.806  1.00  0.00    -0.358 N 
HETATM   14  C8  UNL     1      12.006   5.750 -14.380  1.00  0.00     0.247 C 
HETATM   15  O3  UNL     1      12.849   5.087 -13.789  1.00  0.00    -0.271 OA
HETATM   16  H13 UNL     1      10.018   6.281 -14.436  1.00  0.00     0.162 HD
BRANCH  14  17
HETATM   17  C9  UNL     1      12.200   6.266 -15.814  1.00  0.00     0.219 C 
BRANCH  17  18
HETATM   18  C10 UNL     1      12.973   7.607 -15.915  1.00  0.00     0.009 C 
HETATM   19  C11 UNL     1      14.254   7.601 -15.069  1.00  0.00     0.020 C 
HETATM   20  C12 UNL     1      13.367   7.923 -17.372  1.00  0.00     0.020 C 
BRANCH  18  21
HETATM   21  C13 UNL     1      12.002   8.700 -15.385  1.00  0.00     0.192 C 
BRANCH  21  22
HETATM   22  O4  UNL     1      10.659   8.447 -15.744  1.00  0.00    -0.296 OA
BRANCH  22  23
HETATM   23  P1  UNL     1       9.895   9.264 -16.893  1.00  0.00     0.401 P 
HETATM   24  O5  UNL     1       9.717   8.503 -18.169  1.00  0.00    -0.631 OA
BRANCH  23  25
HETATM   25  O6  UNL     1      10.680  10.658 -17.072  1.00  0.00    -0.307 OA
HETATM   26  H23 UNL     1      10.475  11.282 -16.363  1.00  0.00     0.222 HD
ENDBRANCH  23  25
BRANCH  23  27
HETATM   27  O7  UNL     1       8.541   9.756 -16.218  1.00  0.00    -0.195 OA
BRANCH  27  28
HETATM   28  P2  UNL     1       7.517  10.615 -17.084  1.00  0.00     0.401 P 
HETATM   29  O8  UNL     1       7.958  11.983 -17.492  1.00  0.00    -0.631 OA
BRANCH  28  30
HETATM   30  O9  UNL     1       7.171   9.650 -18.308  1.00  0.00    -0.307 OA
HETATM   31  H24 UNL     1       7.721   9.808 -19.114  1.00  0.00     0.222 HD
ENDBRANCH  28  30
BRANCH  28  32
HETATM   32  O10 UNL     1       6.153  10.540 -16.256  1.00  0.00    -0.294 OA
BRANCH  32  33
HETATM   33  C14 UNL     1       5.159  11.512 -16.450  1.00  0.00     0.215 C 
BRANCH  33  34
HETATM   34  C15 UNL     1       3.966  10.784 -17.065  1.00  0.00     0.180 C 
HETATM   35  C16 UNL     1       2.887  10.578 -16.010  1.00  0.00     0.197 C 
HETATM   36  C17 UNL     1       2.753   9.072 -15.887  1.00  0.00     0.199 C 
HETATM   37  C18 UNL     1       3.235   8.592 -17.258  1.00  0.00     0.262 C 
HETATM   38  O11 UNL     1       4.308   9.499 -17.596  1.00  0.00    -0.353 OA
BRANCH  35  39
HETATM   39  O13 UNL     1       1.689  11.187 -16.478  1.00  0.00    -0.286 OA
BRANCH  39  40
HETATM   40  P3  UNL     1       1.079  12.324 -15.534  1.00  0.00     0.391 P 
HETATM   41  O14 UNL     1       2.097  13.292 -15.022  1.00  0.00    -0.632 OA
BRANCH  40  42
HETATM   42  O15 UNL     1       0.298  11.433 -14.459  1.00  0.00    -0.307 OA
HETATM   43  H36 UNL     1       0.184  10.510 -14.788  1.00  0.00     0.222 HD
ENDBRANCH  40  42
BRANCH  40  44
HETATM   44  O16 UNL     1      -0.090  12.898 -16.446  1.00  0.00    -0.307 OA
HETATM   45  H37 UNL     1      -0.942  12.464 -16.283  1.00  0.00     0.222 HD
ENDBRANCH  40  44
ENDBRANCH  39  40
ENDBRANCH  35  39
BRANCH  36  46
HETATM   46  O12 UNL     1       1.421   8.723 -15.500  1.00  0.00    -0.388 OA
HETATM   47  H35 UNL     1       0.894   9.557 -15.534  1.00  0.00     0.210 HD
ENDBRANCH  36  46
BRANCH  37  48
HETATM   48  N3  UNL     1       3.760   7.241 -17.221  1.00  0.00    -0.297 N 
HETATM   49  C19 UNL     1       3.197   6.115 -17.774  1.00  0.00     0.188 A 
HETATM   50  N4  UNL     1       3.983   5.066 -17.678  1.00  0.00    -0.346 N 
HETATM   51  C20 UNL     1       5.115   5.535 -17.034  1.00  0.00     0.116 A 
HETATM   52  H4  UNL     1       3.801   4.117 -18.004  1.00  0.00     0.167 HD
HETATM   53  C21 UNL     1       6.329   4.925 -16.674  1.00  0.00     0.109 A 
HETATM   54  C23 UNL     1       4.973   6.872 -16.710  1.00  0.00     0.142 A 
HETATM   55  N5  UNL     1       7.261   5.666 -16.027  1.00  0.00    -0.341 N 
HETATM   56  C22 UNL     1       6.975   6.955 -15.755  1.00  0.00     0.183 A 
HETATM   57  H5  UNL     1       8.155   5.259 -15.753  1.00  0.00     0.167 HD
HETATM   58  N6  UNL     1       5.857   7.647 -16.057  1.00  0.00    -0.336 N 
HETATM   59  H6  UNL     1       5.703   8.628 -15.822  1.00  0.00     0.168 HD
BRANCH  53  60
HETATM   60  N7  UNL     1       6.621   3.596 -16.937  1.00  0.00    -0.287 NA
HETATM   61  H33 UNL     1       7.435   3.240 -16.440  1.00  0.00     0.125 HD
HETATM   62  H34 UNL     1       6.549   3.363 -17.918  1.00  0.00     0.125 HD
ENDBRANCH  53  60
ENDBRANCH  37  48
ENDBRANCH  33  34
ENDBRANCH  32  33
ENDBRANCH  28  32
ENDBRANCH  27  28
ENDBRANCH  23  27
ENDBRANCH  22  23
ENDBRANCH  21  22
ENDBRANCH  18  21
ENDBRANCH  17  18
BRANCH  17  63
HETATM   63  O17 UNL     1      12.884   5.286 -16.602  1.00  0.00    -0.385 OA
HETATM   64  H38 UNL     1      12.355   4.470 -16.595  1.00  0.00     0.210 HD
ENDBRANCH  17  63
ENDBRANCH  14  17
ENDBRANCH  12  13
ENDBRANCH  11  12
ENDBRANCH   8  11
ENDBRANCH   6   7
ENDBRANCH   5   6
ENDBRANCH   4   5
ENDBRANCH   2   4
TORSDOF 27
ENDMDL
MODEL 17
REMARK VINA RESULT:      -5.5      4.062      6.587
REMARK  27 active torsions:
REMARK  status: ('A' for Active; 'I' for Inactive)
REMARK    1  A    between atoms: C2_2  and  S1_4 
REMARK    2  A    between atoms: S1_4  and  C3_5 
REMARK    3  A    between atoms: C3_5  and  C4_6 
REMARK    4  A    between atoms: C4_6  and  N1_7 
REMARK       I    between atoms: N1_7  and  C5_8 
REMARK    5  A    between atoms: C5_8  and  C6_10 
REMARK    6  A    between atoms: C6_10  and  C7_11 
REMARK    7  A    between atoms: C7_11  and  N2_12 
REMARK       I    between atoms: N2_12  and  C8_13 
REMARK    8  A    between atoms: C8_13  and  C9_15 
REMARK    9  A    between atoms: C9_15  and  C10_16 
REMARK   10  A    between atoms: C9_15  and  O17_54 
REMARK   11  A    between atoms: C10_16  and  C13_19 
REMARK   12  A    between atoms: C13_19  and  O4_20 
REMARK   13  A    between atoms: O4_20  and  P1_21 
REMARK   14  A    between atoms: P1_21  and  O6_23 
REMARK   15  A    between atoms: P1_21  and  O7_24 
REMARK   16  A    between atoms: O7_24  and  P2_25 
REMARK   17  A    between atoms: P2_25  and  O9_27 
REMARK   18  A    between atoms: P2_25  and  O10_28 
REMARK   19  A    between atoms: O10_28  and  C14_29 
REMARK   20  A    between atoms: C14_29  and  C15_30 
REMARK   21  A    between atoms: C16_31  and  O13_49 
REMARK   22  A    between atoms: C17_32  and  O12_48 
REMARK   23  A    between atoms: C18_33  and  N3_35 
REMARK   24  A    between atoms: C21_40  and  N7_47 
REMARK   25  A    between atoms: O13_49  and  P3_50 
REMARK   26  A    between atoms: P3_50  and  O15_52 
REMARK   27  A    between atoms: P3_50  and  O16_53 
ROOT
HETATM    1  C1  UNL     1       6.335   4.370  -8.408  1.00  0.00     0.104 C 
HETATM    2  C2  UNL     1       6.105   3.336  -9.468  1.00  0.00     0.182 C 
HETATM    3  O1  UNL     1       5.100   3.307 -10.175  1.00  0.00    -0.286 OA
ENDROOT
BRANCH   2   4
HETATM    4  S1  UNL     1       7.379   2.131  -9.595  1.00  0.00    -0.091 SA
BRANCH   4   5
HETATM    5  C3  UNL     1       7.769   2.259 -11.370  1.00  0.00     0.102 C 
BRANCH   5   6
HETATM    6  C4  UNL     1       8.066   3.700 -11.786  1.00  0.00     0.133 C 
BRANCH   6   7
HETATM    7  N1  UNL     1       9.206   3.803 -12.674  1.00  0.00    -0.360 N 
HETATM    8  C5  UNL     1      10.356   4.459 -12.302  1.00  0.00     0.219 C 
HETATM    9  O2  UNL     1      10.458   5.062 -11.240  1.00  0.00    -0.274 OA
HETATM   10  H8  UNL     1       9.152   3.372 -13.587  1.00  0.00     0.162 HD
BRANCH   8  11
HETATM   11  C6  UNL     1      11.445   4.402 -13.352  1.00  0.00     0.122 C 
BRANCH  11  12
HETATM   12  C7  UNL     1      11.451   5.649 -14.236  1.00  0.00     0.132 C 
BRANCH  12  13
HETATM   13  N2  UNL     1      10.635   6.722 -13.710  1.00  0.00    -0.358 N 
HETATM   14  C8  UNL     1       9.765   7.406 -14.539  1.00  0.00     0.247 C 
HETATM   15  O3  UNL     1       9.736   7.220 -15.749  1.00  0.00    -0.271 OA
HETATM   16  H13 UNL     1      10.371   6.632 -12.731  1.00  0.00     0.162 HD
BRANCH  14  17
HETATM   17  C9  UNL     1       8.834   8.395 -13.820  1.00  0.00     0.219 C 
BRANCH  17  18
HETATM   18  C10 UNL     1       9.559   9.600 -13.165  1.00  0.00     0.009 C 
HETATM   19  C11 UNL     1       9.374   9.627 -11.641  1.00  0.00     0.020 C 
HETATM   20  C12 UNL     1      11.073   9.578 -13.460  1.00  0.00     0.020 C 
BRANCH  18  21
HETATM   21  C13 UNL     1       8.922  10.873 -13.792  1.00  0.00     0.192 C 
BRANCH  21  22
HETATM   22  O4  UNL     1       9.525  11.229 -15.020  1.00  0.00    -0.296 OA
BRANCH  22  23
HETATM   23  P1  UNL     1       8.781  12.113 -16.131  1.00  0.00     0.401 P 
HETATM   24  O5  UNL     1       9.297  11.910 -17.521  1.00  0.00    -0.631 OA
BRANCH  23  25
HETATM   25  O6  UNL     1       8.848  13.642 -15.631  1.00  0.00    -0.307 OA
HETATM   26  H23 UNL     1       8.083  13.879 -15.090  1.00  0.00     0.222 HD
ENDBRANCH  23  25
BRANCH  23  27
HETATM   27  O7  UNL     1       7.234  11.794 -15.943  1.00  0.00    -0.195 OA
BRANCH  27  28
HETATM   28  P2  UNL     1       6.169  12.940 -16.242  1.00  0.00     0.401 P 
HETATM   29  O8  UNL     1       5.904  13.920 -15.146  1.00  0.00    -0.631 OA
BRANCH  28  30
HETATM   30  O9  UNL     1       6.712  13.603 -17.589  1.00  0.00    -0.307 OA
HETATM   31  H24 UNL     1       7.390  13.060 -18.061  1.00  0.00     0.222 HD
ENDBRANCH  28  30
BRANCH  28  32
HETATM   32  O10 UNL     1       4.896  12.150 -16.795  1.00  0.00    -0.294 OA
BRANCH  32  33
HETATM   33  C14 UNL     1       3.784  12.859 -17.275  1.00  0.00     0.215 C 
BRANCH  33  34
HETATM   34  C15 UNL     1       2.671  11.829 -17.464  1.00  0.00     0.180 C 
HETATM   35  C16 UNL     1       1.894  11.665 -16.164  1.00  0.00     0.197 C 
HETATM   36  C17 UNL     1       2.107  10.216 -15.769  1.00  0.00     0.199 C 
HETATM   37  C18 UNL     1       2.395   9.553 -17.119  1.00  0.00     0.262 C 
HETATM   38  O11 UNL     1       3.162  10.539 -17.844  1.00  0.00    -0.353 OA
BRANCH  35  39
HETATM   39  O13 UNL     1       0.526  11.954 -16.428  1.00  0.00    -0.286 OA
BRANCH  39  40
HETATM   40  P3  UNL     1      -0.008  13.348 -15.854  1.00  0.00     0.391 P 
HETATM   41  O14 UNL     1       0.948  14.482 -16.040  1.00  0.00    -0.632 OA
BRANCH  40  42
HETATM   42  O15 UNL     1      -0.381  12.931 -14.356  1.00  0.00    -0.307 OA
HETATM   43  H36 UNL     1      -0.962  12.134 -14.350  1.00  0.00     0.222 HD
ENDBRANCH  40  42
BRANCH  40  44
HETATM   44  O16 UNL     1      -1.427  13.458 -16.563  1.00  0.00    -0.307 OA
HETATM   45  H37 UNL     1      -2.163  13.248 -15.966  1.00  0.00     0.222 HD
ENDBRANCH  40  44
ENDBRANCH  39  40
ENDBRANCH  35  39
BRANCH  36  46
HETATM   46  O12 UNL     1       0.984   9.734 -15.027  1.00  0.00    -0.388 OA
HETATM   47  H35 UNL     1       1.106  10.052 -14.101  1.00  0.00     0.210 HD
ENDBRANCH  36  46
BRANCH  37  48
HETATM   48  N3  UNL     1       3.189   8.348 -16.988  1.00  0.00    -0.297 N 
HETATM   49  C19 UNL     1       2.728   7.066 -16.795  1.00  0.00     0.188 A 
HETATM   50  N4  UNL     1       3.695   6.176 -16.845  1.00  0.00    -0.346 N 
HETATM   51  C20 UNL     1       4.839   6.917 -17.088  1.00  0.00     0.116 A 
HETATM   52  H4  UNL     1       3.620   5.165 -16.731  1.00  0.00     0.167 HD
HETATM   53  C21 UNL     1       6.182   6.556 -17.290  1.00  0.00     0.109 A 
HETATM   54  C23 UNL     1       4.545   8.267 -17.140  1.00  0.00     0.142 A 
HETATM   55  N5  UNL     1       7.093   7.538 -17.500  1.00  0.00    -0.341 N 
HETATM   56  C22 UNL     1       6.665   8.816 -17.501  1.00  0.00     0.183 A 
HETATM   57  H5  UNL     1       8.076   7.315 -17.654  1.00  0.00     0.167 HD
HETATM   58  N6  UNL     1       5.410   9.279 -17.329  1.00  0.00    -0.336 N 
HETATM   59  H6  UNL     1       5.151  10.266 -17.340  1.00  0.00     0.168 HD
BRANCH  53  60
HETATM   60  N7  UNL     1       6.630   5.245 -17.276  1.00  0.00    -0.287 NA
HETATM   61  H33 UNL     1       6.198   4.662 -16.562  1.00  0.00     0.125 HD
HETATM   62  H34 UNL     1       7.633   5.169 -17.380  1.00  0.00     0.125 HD
ENDBRANCH  53  60
ENDBRANCH  37  48
ENDBRANCH  33  34
ENDBRANCH  32  33
ENDBRANCH  28  32
ENDBRANCH  27  28
ENDBRANCH  23  27
ENDBRANCH  22  23
ENDBRANCH  21  22
ENDBRANCH  18  21
ENDBRANCH  17  18
BRANCH  17  63
HETATM   63  O17 UNL     1       7.851   8.897 -14.732  1.00  0.00    -0.385 OA
HETATM   64  H38 UNL     1       8.302   9.461 -15.383  1.00  0.00     0.210 HD
ENDBRANCH  17  63
ENDBRANCH  14  17
ENDBRANCH  12  13
ENDBRANCH  11  12
ENDBRANCH   8  11
ENDBRANCH   6   7
ENDBRANCH   5   6
ENDBRANCH   4   5
ENDBRANCH   2   4
TORSDOF 27
ENDMDL
MODEL 18
REMARK VINA RESULT:      -5.5      4.947      7.863
REMARK  27 active torsions:
REMARK  status: ('A' for Active; 'I' for Inactive)
REMARK    1  A    between atoms: C2_2  and  S1_4 
REMARK    2  A    between atoms: S1_4  and  C3_5 
REMARK    3  A    between atoms: C3_5  and  C4_6 
REMARK    4  A    between atoms: C4_6  and  N1_7 
REMARK       I    between atoms: N1_7  and  C5_8 
REMARK    5  A    between atoms: C5_8  and  C6_10 
REMARK    6  A    between atoms: C6_10  and  C7_11 
REMARK    7  A    between atoms: C7_11  and  N2_12 
REMARK       I    between atoms: N2_12  and  C8_13 
REMARK    8  A    between atoms: C8_13  and  C9_15 
REMARK    9  A    between atoms: C9_15  and  C10_16 
REMARK   10  A    between atoms: C9_15  and  O17_54 
REMARK   11  A    between atoms: C10_16  and  C13_19 
REMARK   12  A    between atoms: C13_19  and  O4_20 
REMARK   13  A    between atoms: O4_20  and  P1_21 
REMARK   14  A    between atoms: P1_21  and  O6_23 
REMARK   15  A    between atoms: P1_21  and  O7_24 
REMARK   16  A    between atoms: O7_24  and  P2_25 
REMARK   17  A    between atoms: P2_25  and  O9_27 
REMARK   18  A    between atoms: P2_25  and  O10_28 
REMARK   19  A    between atoms: O10_28  and  C14_29 
REMARK   20  A    between atoms: C14_29  and  C15_30 
REMARK   21  A    between atoms: C16_31  and  O13_49 
REMARK   22  A    between atoms: C17_32  and  O12_48 
REMARK   23  A    between atoms: C18_33  and  N3_35 
REMARK   24  A    between atoms: C21_40  and  N7_47 
REMARK   25  A    between atoms: O13_49  and  P3_50 
REMARK   26  A    between atoms: P3_50  and  O15_52 
REMARK   27  A    between atoms: P3_50  and  O16_53 
ROOT
HETATM    1  C1  UNL     1      11.784  12.815 -16.398  1.00  0.00     0.104 C 
HETATM    2  C2  UNL     1      10.872  12.278 -15.337  1.00  0.00     0.182 C 
HETATM    3  O1  UNL     1      11.154  11.314 -14.629  1.00  0.00    -0.286 OA
ENDROOT
BRANCH   2   4
HETATM    4  S1  UNL     1       9.334  13.121 -15.209  1.00  0.00    -0.091 SA
BRANCH   4   5
HETATM    5  C3  UNL     1       8.188  11.769 -15.633  1.00  0.00     0.102 C 
BRANCH   5   6
HETATM    6  C4  UNL     1       7.432  11.256 -14.405  1.00  0.00     0.133 C 
BRANCH   6   7
HETATM    7  N1  UNL     1       8.210  10.320 -13.620  1.00  0.00    -0.360 N 
HETATM    8  C5  UNL     1       8.588  10.598 -12.327  1.00  0.00     0.219 C 
HETATM    9  O2  UNL     1       8.362  11.676 -11.791  1.00  0.00    -0.274 OA
HETATM   10  H8  UNL     1       8.474   9.437 -14.037  1.00  0.00     0.162 HD
BRANCH   8  11
HETATM   11  C6  UNL     1       9.346   9.466 -11.668  1.00  0.00     0.122 C 
BRANCH  11  12
HETATM   12  C7  UNL     1      10.052   8.579 -12.692  1.00  0.00     0.132 C 
BRANCH  12  13
HETATM   13  N2  UNL     1       9.976   7.169 -12.371  1.00  0.00    -0.358 N 
HETATM   14  C8  UNL     1      10.684   6.245 -13.117  1.00  0.00     0.247 C 
HETATM   15  O3  UNL     1      11.295   6.557 -14.131  1.00  0.00    -0.271 OA
HETATM   16  H13 UNL     1       9.817   6.952 -11.389  1.00  0.00     0.162 HD
BRANCH  14  17
HETATM   17  C9  UNL     1      10.656   4.813 -12.563  1.00  0.00     0.219 C 
BRANCH  17  18
HETATM   18  C10 UNL     1       9.234   4.217 -12.392  1.00  0.00     0.009 C 
HETATM   19  C11 UNL     1       9.247   2.681 -12.388  1.00  0.00     0.020 C 
HETATM   20  C12 UNL     1       8.578   4.690 -11.079  1.00  0.00     0.020 C 
BRANCH  18  21
HETATM   21  C13 UNL     1       8.407   4.729 -13.606  1.00  0.00     0.192 C 
BRANCH  21  22
HETATM   22  O4  UNL     1       8.965   4.334 -14.842  1.00  0.00    -0.296 OA
BRANCH  22  23
HETATM   23  P1  UNL     1       8.572   5.024 -16.235  1.00  0.00     0.401 P 
HETATM   24  O5  UNL     1       8.755   4.140 -17.429  1.00  0.00    -0.631 OA
BRANCH  23  25
HETATM   25  O6  UNL     1       9.394   6.406 -16.319  1.00  0.00    -0.307 OA
HETATM   26  H23 UNL     1       9.561   6.673 -17.232  1.00  0.00     0.222 HD
ENDBRANCH  23  25
BRANCH  23  27
HETATM   27  O7  UNL     1       7.089   5.559 -16.025  1.00  0.00    -0.195 OA
BRANCH  27  28
HETATM   28  P2  UNL     1       6.679   6.962 -16.658  1.00  0.00     0.401 P 
HETATM   29  O8  UNL     1       7.116   8.188 -15.926  1.00  0.00    -0.631 OA
BRANCH  28  30
HETATM   30  O9  UNL     1       7.231   6.865 -18.153  1.00  0.00    -0.307 OA
HETATM   31  H24 UNL     1       6.572   7.119 -18.844  1.00  0.00     0.222 HD
ENDBRANCH  28  30
BRANCH  28  32
HETATM   32  O10 UNL     1       5.109   6.826 -16.915  1.00  0.00    -0.294 OA
BRANCH  32  33
HETATM   33  C14 UNL     1       4.413   7.853 -17.572  1.00  0.00     0.215 C 
BRANCH  33  34
HETATM   34  C15 UNL     1       3.531   8.514 -16.515  1.00  0.00     0.180 C 
HETATM   35  C16 UNL     1       2.152   8.796 -17.097  1.00  0.00     0.197 C 
HETATM   36  C17 UNL     1       2.012  10.305 -17.041  1.00  0.00     0.199 C 
HETATM   37  C18 UNL     1       2.960  10.676 -15.898  1.00  0.00     0.262 C 
HETATM   38  O11 UNL     1       4.065   9.755 -16.038  1.00  0.00    -0.353 OA
BRANCH  35  39
HETATM   39  O13 UNL     1       1.187   8.137 -16.283  1.00  0.00    -0.286 OA
BRANCH  39  40
HETATM   40  P3  UNL     1       0.329   7.003 -17.013  1.00  0.00     0.391 P 
HETATM   41  O14 UNL     1       1.153   6.041 -17.807  1.00  0.00    -0.632 OA
BRANCH  40  42
HETATM   42  O15 UNL     1      -0.736   7.896 -17.805  1.00  0.00    -0.307 OA
HETATM   43  H36 UNL     1      -1.158   7.376 -18.529  1.00  0.00     0.222 HD
ENDBRANCH  40  42
BRANCH  40  44
HETATM   44  O16 UNL     1      -0.519   6.420 -15.801  1.00  0.00    -0.307 OA
HETATM   45  H37 UNL     1      -0.957   7.112 -15.280  1.00  0.00     0.222 HD
ENDBRANCH  40  44
ENDBRANCH  39  40
ENDBRANCH  35  39
BRANCH  36  46
HETATM   46  O12 UNL     1       0.637  10.671 -16.898  1.00  0.00    -0.388 OA
HETATM   47  H35 UNL     1       0.496  11.455 -17.480  1.00  0.00     0.210 HD
ENDBRANCH  36  46
BRANCH  37  48
HETATM   48  N3  UNL     1       3.464  12.030 -16.010  1.00  0.00    -0.297 N 
HETATM   49  C19 UNL     1       4.631  12.435 -16.613  1.00  0.00     0.188 A 
HETATM   50  N4  UNL     1       4.741  13.745 -16.658  1.00  0.00    -0.346 N 
HETATM   51  C20 UNL     1       3.585  14.212 -16.059  1.00  0.00     0.116 A 
HETATM   52  H4  UNL     1       5.507  14.294 -17.048  1.00  0.00     0.167 HD
HETATM   53  C21 UNL     1       3.083  15.506 -15.836  1.00  0.00     0.109 A 
HETATM   54  C23 UNL     1       2.803  13.160 -15.617  1.00  0.00     0.142 A 
HETATM   55  N5  UNL     1       1.896  15.641 -15.197  1.00  0.00    -0.341 N 
HETATM   56  C22 UNL     1       1.254  14.524 -14.801  1.00  0.00     0.183 A 
HETATM   57  H5  UNL     1       1.498  16.564 -15.020  1.00  0.00     0.167 HD
HETATM   58  N6  UNL     1       1.629  13.239 -14.966  1.00  0.00    -0.336 N 
HETATM   59  H6  UNL     1       1.094  12.434 -14.640  1.00  0.00     0.168 HD
BRANCH  53  60
HETATM   60  N7  UNL     1       3.746  16.659 -16.228  1.00  0.00    -0.287 NA
HETATM   61  H33 UNL     1       3.284  17.522 -15.952  1.00  0.00     0.125 HD
HETATM   62  H34 UNL     1       4.094  16.611 -17.176  1.00  0.00     0.125 HD
ENDBRANCH  53  60
ENDBRANCH  37  48
ENDBRANCH  33  34
ENDBRANCH  32  33
ENDBRANCH  28  32
ENDBRANCH  27  28
ENDBRANCH  23  27
ENDBRANCH  22  23
ENDBRANCH  21  22
ENDBRANCH  18  21
ENDBRANCH  17  18
BRANCH  17  63
HETATM   63  O17 UNL     1      11.414   3.942 -13.410  1.00  0.00    -0.385 OA
HETATM   64  H38 UNL     1      11.004   3.061 -13.382  1.00  0.00     0.210 HD
ENDBRANCH  17  63
ENDBRANCH  14  17
ENDBRANCH  12  13
ENDBRANCH  11  12
ENDBRANCH   8  11
ENDBRANCH   6   7
ENDBRANCH   5   6
ENDBRANCH   4   5
ENDBRANCH   2   4
TORSDOF 27
ENDMDL
MODEL 19
REMARK VINA RESULT:      -5.4      5.130      7.280
REMARK  27 active torsions:
REMARK  status: ('A' for Active; 'I' for Inactive)
REMARK    1  A    between atoms: C2_2  and  S1_4 
REMARK    2  A    between atoms: S1_4  and  C3_5 
REMARK    3  A    between atoms: C3_5  and  C4_6 
REMARK    4  A    between atoms: C4_6  and  N1_7 
REMARK       I    between atoms: N1_7  and  C5_8 
REMARK    5  A    between atoms: C5_8  and  C6_10 
REMARK    6  A    between atoms: C6_10  and  C7_11 
REMARK    7  A    between atoms: C7_11  and  N2_12 
REMARK       I    between atoms: N2_12  and  C8_13 
REMARK    8  A    between atoms: C8_13  and  C9_15 
REMARK    9  A    between atoms: C9_15  and  C10_16 
REMARK   10  A    between atoms: C9_15  and  O17_54 
REMARK   11  A    between atoms: C10_16  and  C13_19 
REMARK   12  A    between atoms: C13_19  and  O4_20 
REMARK   13  A    between atoms: O4_20  and  P1_21 
REMARK   14  A    between atoms: P1_21  and  O6_23 
REMARK   15  A    between atoms: P1_21  and  O7_24 
REMARK   16  A    between atoms: O7_24  and  P2_25 
REMARK   17  A    between atoms: P2_25  and  O9_27 
REMARK   18  A    between atoms: P2_25  and  O10_28 
REMARK   19  A    between atoms: O10_28  and  C14_29 
REMARK   20  A    between atoms: C14_29  and  C15_30 
REMARK   21  A    between atoms: C16_31  and  O13_49 
REMARK   22  A    between atoms: C17_32  and  O12_48 
REMARK   23  A    between atoms: C18_33  and  N3_35 
REMARK   24  A    between atoms: C21_40  and  N7_47 
REMARK   25  A    between atoms: O13_49  and  P3_50 
REMARK   26  A    between atoms: P3_50  and  O15_52 
REMARK   27  A    between atoms: P3_50  and  O16_53 
ROOT
HETATM    1  C1  UNL     1       7.081   4.344  -8.383  1.00  0.00     0.104 C 
HETATM    2  C2  UNL     1       5.808   3.559  -8.462  1.00  0.00     0.182 C 
HETATM    3  O1  UNL     1       4.734   3.969  -8.027  1.00  0.00    -0.286 OA
ENDROOT
BRANCH   2   4
HETATM    4  S1  UNL     1       5.979   1.972  -9.200  1.00  0.00    -0.091 SA
BRANCH   4   5
HETATM    5  C3  UNL     1       5.846   2.418 -10.962  1.00  0.00     0.102 C 
BRANCH   5   6
HETATM    6  C4  UNL     1       7.015   1.864 -11.779  1.00  0.00     0.133 C 
BRANCH   6   7
HETATM    7  N1  UNL     1       8.241   2.610 -11.579  1.00  0.00    -0.360 N 
HETATM    8  C5  UNL     1       8.730   3.469 -12.536  1.00  0.00     0.219 C 
HETATM    9  O2  UNL     1       8.209   3.595 -13.638  1.00  0.00    -0.274 OA
HETATM   10  H8  UNL     1       8.742   2.499 -10.708  1.00  0.00     0.162 HD
BRANCH   8  11
HETATM   11  C6  UNL     1       9.989   4.191 -12.106  1.00  0.00     0.122 C 
BRANCH  11  12
HETATM   12  C7  UNL     1       9.709   5.640 -11.710  1.00  0.00     0.132 C 
BRANCH  12  13
HETATM   13  N2  UNL     1       9.276   6.459 -12.822  1.00  0.00    -0.358 N 
HETATM   14  C8  UNL     1      10.203   7.152 -13.580  1.00  0.00     0.247 C 
HETATM   15  O3  UNL     1      11.389   7.198 -13.277  1.00  0.00    -0.271 OA
HETATM   16  H13 UNL     1       8.430   6.146 -13.294  1.00  0.00     0.162 HD
BRANCH  14  17
HETATM   17  C9  UNL     1       9.631   7.835 -14.831  1.00  0.00     0.219 C 
BRANCH  17  18
HETATM   18  C10 UNL     1       9.945   7.104 -16.163  1.00  0.00     0.009 C 
HETATM   19  C11 UNL     1      11.259   7.588 -16.793  1.00  0.00     0.020 C 
HETATM   20  C12 UNL     1      10.049   5.579 -15.959  1.00  0.00     0.020 C 
BRANCH  18  21
HETATM   21  C13 UNL     1       8.758   7.426 -17.116  1.00  0.00     0.192 C 
BRANCH  21  22
HETATM   22  O4  UNL     1       9.129   8.307 -18.158  1.00  0.00    -0.296 OA
BRANCH  22  23
HETATM   23  P1  UNL     1       8.541   9.793 -18.292  1.00  0.00     0.401 P 
HETATM   24  O5  UNL     1       7.253   9.875 -19.050  1.00  0.00    -0.631 OA
BRANCH  23  25
HETATM   25  O6  UNL     1       9.716  10.704 -18.907  1.00  0.00    -0.307 OA
HETATM   26  H23 UNL     1       9.886  11.487 -18.368  1.00  0.00     0.222 HD
ENDBRANCH  23  25
BRANCH  23  27
HETATM   27  O7  UNL     1       8.471  10.343 -16.801  1.00  0.00    -0.195 OA
BRANCH  27  28
HETATM   28  P2  UNL     1       8.682  11.901 -16.545  1.00  0.00     0.401 P 
HETATM   29  O8  UNL     1      10.088  12.373 -16.363  1.00  0.00    -0.631 OA
BRANCH  28  30
HETATM   30  O9  UNL     1       7.921  12.581 -17.773  1.00  0.00    -0.307 OA
HETATM   31  H24 UNL     1       8.403  12.512 -18.634  1.00  0.00     0.222 HD
ENDBRANCH  28  30
BRANCH  28  32
HETATM   32  O10 UNL     1       7.673  12.237 -15.353  1.00  0.00    -0.294 OA
BRANCH  32  33
HETATM   33  C14 UNL     1       7.036  11.197 -14.659  1.00  0.00     0.215 C 
BRANCH  33  34
HETATM   34  C15 UNL     1       5.536  11.470 -14.764  1.00  0.00     0.180 C 
HETATM   35  C16 UNL     1       5.023  11.011 -16.122  1.00  0.00     0.197 C 
HETATM   36  C17 UNL     1       4.512  12.275 -16.787  1.00  0.00     0.199 C 
HETATM   37  C18 UNL     1       4.177  13.160 -15.584  1.00  0.00     0.262 C 
HETATM   38  O11 UNL     1       5.210  12.857 -14.620  1.00  0.00    -0.353 OA
BRANCH  35  39
HETATM   39  O13 UNL     1       3.984  10.062 -15.902  1.00  0.00    -0.286 OA
BRANCH  39  40
HETATM   40  P3  UNL     1       4.211   8.625 -16.565  1.00  0.00     0.391 P 
HETATM   41  O14 UNL     1       3.056   7.693 -16.394  1.00  0.00    -0.632 OA
BRANCH  40  42
HETATM   42  O15 UNL     1       5.606   8.207 -15.902  1.00  0.00    -0.307 OA
HETATM   43  H36 UNL     1       5.965   8.944 -15.353  1.00  0.00     0.222 HD
ENDBRANCH  40  42
BRANCH  40  44
HETATM   44  O16 UNL     1       4.621   9.024 -18.049  1.00  0.00    -0.307 OA
HETATM   45  H37 UNL     1       5.363   9.649 -18.079  1.00  0.00     0.222 HD
ENDBRANCH  40  44
ENDBRANCH  39  40
ENDBRANCH  35  39
BRANCH  36  46
HETATM   46  O12 UNL     1       3.448  11.964 -17.690  1.00  0.00    -0.388 OA
HETATM   47  H35 UNL     1       3.134  11.060 -17.450  1.00  0.00     0.210 HD
ENDBRANCH  36  46
BRANCH  37  48
HETATM   48  N3  UNL     1       4.235  14.573 -15.901  1.00  0.00    -0.297 N 
HETATM   49  C19 UNL     1       3.173  15.433 -16.062  1.00  0.00     0.188 A 
HETATM   50  N4  UNL     1       3.561  16.680 -16.218  1.00  0.00    -0.346 N 
HETATM   51  C20 UNL     1       4.942  16.627 -16.150  1.00  0.00     0.116 A 
HETATM   52  H4  UNL     1       2.974  17.503 -16.358  1.00  0.00     0.167 HD
HETATM   53  C21 UNL     1       5.937  17.619 -16.202  1.00  0.00     0.109 A 
HETATM   54  C23 UNL     1       5.374  15.323 -15.993  1.00  0.00     0.142 A 
HETATM   55  N5  UNL     1       7.235  17.240 -16.116  1.00  0.00    -0.341 N 
HETATM   56  C22 UNL     1       7.510  15.926 -15.989  1.00  0.00     0.183 A 
HETATM   57  H5  UNL     1       7.985  17.931 -16.146  1.00  0.00     0.167 HD
HETATM   58  N6  UNL     1       6.646  14.893 -15.918  1.00  0.00    -0.336 N 
HETATM   59  H6  UNL     1       6.921  13.915 -15.822  1.00  0.00     0.168 HD
BRANCH  53  60
HETATM   60  N7  UNL     1       5.661  18.969 -16.348  1.00  0.00    -0.287 NA
HETATM   61  H33 UNL     1       4.766  19.168 -16.791  1.00  0.00     0.125 HD
HETATM   62  H34 UNL     1       6.457  19.502 -16.669  1.00  0.00     0.125 HD
ENDBRANCH  53  60
ENDBRANCH  37  48
ENDBRANCH  33  34
ENDBRANCH  32  33
ENDBRANCH  28  32
ENDBRANCH  27  28
ENDBRANCH  23  27
ENDBRANCH  22  23
ENDBRANCH  21  22
ENDBRANCH  18  21
ENDBRANCH  17  18
BRANCH  17  63
HETATM   63  O17 UNL     1       8.211   7.973 -14.711  1.00  0.00    -0.385 OA
HETATM   64  H38 UNL     1       8.027   8.551 -13.952  1.00  0.00     0.210 HD
ENDBRANCH  17  63
ENDBRANCH  14  17
ENDBRANCH  12  13
ENDBRANCH  11  12
ENDBRANCH   8  11
ENDBRANCH   6   7
ENDBRANCH   5   6
ENDBRANCH   4   5
ENDBRANCH   2   4
TORSDOF 27
ENDMDL
MODEL 20
REMARK VINA RESULT:      -5.4      3.798      5.493
REMARK  27 active torsions:
REMARK  status: ('A' for Active; 'I' for Inactive)
REMARK    1  A    between atoms: C2_2  and  S1_4 
REMARK    2  A    between atoms: S1_4  and  C3_5 
REMARK    3  A    between atoms: C3_5  and  C4_6 
REMARK    4  A    between atoms: C4_6  and  N1_7 
REMARK       I    between atoms: N1_7  and  C5_8 
REMARK    5  A    between atoms: C5_8  and  C6_10 
REMARK    6  A    between atoms: C6_10  and  C7_11 
REMARK    7  A    between atoms: C7_11  and  N2_12 
REMARK       I    between atoms: N2_12  and  C8_13 
REMARK    8  A    between atoms: C8_13  and  C9_15 
REMARK    9  A    between atoms: C9_15  and  C10_16 
REMARK   10  A    between atoms: C9_15  and  O17_54 
REMARK   11  A    between atoms: C10_16  and  C13_19 
REMARK   12  A    between atoms: C13_19  and  O4_20 
REMARK   13  A    between atoms: O4_20  and  P1_21 
REMARK   14  A    between atoms: P1_21  and  O6_23 
REMARK   15  A    between atoms: P1_21  and  O7_24 
REMARK   16  A    between atoms: O7_24  and  P2_25 
REMARK   17  A    between atoms: P2_25  and  O9_27 
REMARK   18  A    between atoms: P2_25  and  O10_28 
REMARK   19  A    between atoms: O10_28  and  C14_29 
REMARK   20  A    between atoms: C14_29  and  C15_30 
REMARK   21  A    between atoms: C16_31  and  O13_49 
REMARK   22  A    between atoms: C17_32  and  O12_48 
REMARK   23  A    between atoms: C18_33  and  N3_35 
REMARK   24  A    between atoms: C21_40  and  N7_47 
REMARK   25  A    between atoms: O13_49  and  P3_50 
REMARK   26  A    between atoms: P3_50  and  O15_52 
REMARK   27  A    between atoms: P3_50  and  O16_53 
ROOT
HETATM    1  C1  UNL     1       6.981  -2.407 -15.646  1.00  0.00     0.104 C 
HETATM    2  C2  UNL     1       5.974  -1.949 -14.635  1.00  0.00     0.182 C 
HETATM    3  O1  UNL     1       5.926  -2.382 -13.487  1.00  0.00    -0.286 OA
ENDROOT
BRANCH   2   4
HETATM    4  S1  UNL     1       4.829  -0.759 -15.240  1.00  0.00    -0.091 SA
BRANCH   4   5
HETATM    5  C3  UNL     1       5.107  -0.925 -17.033  1.00  0.00     0.102 C 
BRANCH   5   6
HETATM    6  C4  UNL     1       4.787   0.370 -17.782  1.00  0.00     0.133 C 
BRANCH   6   7
HETATM    7  N1  UNL     1       5.191   1.553 -17.051  1.00  0.00    -0.360 N 
HETATM    8  C5  UNL     1       5.127   2.808 -17.611  1.00  0.00     0.219 C 
HETATM    9  O2  UNL     1       4.804   2.993 -18.779  1.00  0.00    -0.274 OA
HETATM   10  H8  UNL     1       5.521   1.449 -16.101  1.00  0.00     0.162 HD
BRANCH   8  11
HETATM   11  C6  UNL     1       5.541   3.911 -16.661  1.00  0.00     0.122 C 
BRANCH  11  12
HETATM   12  C7  UNL     1       6.935   4.449 -16.985  1.00  0.00     0.132 C 
BRANCH  12  13
HETATM   13  N2  UNL     1       7.302   5.594 -16.179  1.00  0.00    -0.358 N 
HETATM   14  C8  UNL     1       8.213   5.456 -15.147  1.00  0.00     0.247 C 
HETATM   15  O3  UNL     1       8.646   4.365 -14.802  1.00  0.00    -0.271 OA
HETATM   16  H13 UNL     1       7.270   6.493 -16.655  1.00  0.00     0.162 HD
BRANCH  14  17
HETATM   17  C9  UNL     1       8.646   6.776 -14.491  1.00  0.00     0.219 C 
BRANCH  17  18
HETATM   18  C10 UNL     1      10.072   7.248 -14.878  1.00  0.00     0.009 C 
HETATM   19  C11 UNL     1      11.158   6.562 -14.036  1.00  0.00     0.020 C 
HETATM   20  C12 UNL     1      10.376   6.969 -16.364  1.00  0.00     0.020 C 
BRANCH  18  21
HETATM   21  C13 UNL     1      10.099   8.782 -14.617  1.00  0.00     0.192 C 
BRANCH  21  22
HETATM   22  O4  UNL     1       9.821   9.531 -15.782  1.00  0.00    -0.296 OA
BRANCH  22  23
HETATM   23  P1  UNL     1       9.242  11.026 -15.738  1.00  0.00     0.401 P 
HETATM   24  O5  UNL     1       9.556  11.839 -16.955  1.00  0.00    -0.631 OA
BRANCH  23  25
HETATM   25  O6  UNL     1       9.761  11.686 -14.365  1.00  0.00    -0.307 OA
HETATM   26  H23 UNL     1       9.448  12.593 -14.259  1.00  0.00     0.222 HD
ENDBRANCH  23  25
BRANCH  23  27
HETATM   27  O7  UNL     1       7.690  10.857 -15.434  1.00  0.00    -0.195 OA
BRANCH  27  28
HETATM   28  P2  UNL     1       6.923  12.026 -14.669  1.00  0.00     0.401 P 
HETATM   29  O8  UNL     1       6.976  12.006 -13.176  1.00  0.00    -0.631 OA
BRANCH  28  30
HETATM   30  O9  UNL     1       7.527  13.350 -15.325  1.00  0.00    -0.307 OA
HETATM   31  H24 UNL     1       7.748  14.059 -14.672  1.00  0.00     0.222 HD
ENDBRANCH  28  30
BRANCH  28  32
HETATM   32  O10 UNL     1       5.463  12.017 -15.316  1.00  0.00    -0.294 OA
BRANCH  32  33
HETATM   33  C14 UNL     1       4.622  13.130 -15.164  1.00  0.00     0.215 C 
BRANCH  33  34
HETATM   34  C15 UNL     1       3.409  12.873 -16.057  1.00  0.00     0.180 C 
HETATM   35  C16 UNL     1       2.271  13.805 -15.661  1.00  0.00     0.197 C 
HETATM   36  C17 UNL     1       1.158  12.880 -15.205  1.00  0.00     0.199 C 
HETATM   37  C18 UNL     1       1.479  11.590 -15.962  1.00  0.00     0.262 C 
HETATM   38  O11 UNL     1       2.923  11.529 -15.965  1.00  0.00    -0.353 OA
BRANCH  35  39
HETATM   39  O13 UNL     1       1.903  14.563 -16.809  1.00  0.00    -0.286 OA
BRANCH  39  40
HETATM   40  P3  UNL     1       2.092  16.145 -16.679  1.00  0.00     0.391 P 
HETATM   41  O14 UNL     1       1.110  16.937 -17.480  1.00  0.00    -0.632 OA
BRANCH  40  42
HETATM   42  O15 UNL     1       3.641  16.293 -17.050  1.00  0.00    -0.307 OA
HETATM   43  H36 UNL     1       3.918  17.239 -17.019  1.00  0.00     0.222 HD
ENDBRANCH  40  42
BRANCH  40  44
HETATM   44  O16 UNL     1       2.078  16.336 -15.101  1.00  0.00    -0.307 OA
HETATM   45  H37 UNL     1       2.500  17.162 -14.818  1.00  0.00     0.222 HD
ENDBRANCH  40  44
ENDBRANCH  39  40
ENDBRANCH  35  39
BRANCH  36  46
HETATM   46  O12 UNL     1      -0.117  13.483 -15.446  1.00  0.00    -0.388 OA
HETATM   47  H35 UNL     1      -0.774  12.956 -14.932  1.00  0.00     0.210 HD
ENDBRANCH  36  46
BRANCH  37  48
HETATM   48  N3  UNL     1       0.965  10.410 -15.295  1.00  0.00    -0.297 N 
HETATM   49  C19 UNL     1       0.252  10.365 -14.120  1.00  0.00     0.188 A 
HETATM   50  N4  UNL     1      -0.181   9.154 -13.846  1.00  0.00    -0.346 N 
HETATM   51  C20 UNL     1       0.269   8.376 -14.898  1.00  0.00     0.116 A 
HETATM   52  H4  UNL     1      -0.726   8.854 -13.038  1.00  0.00     0.167 HD
HETATM   53  C21 UNL     1       0.105   7.017 -15.217  1.00  0.00     0.109 A 
HETATM   54  C23 UNL     1       1.013   9.135 -15.783  1.00  0.00     0.142 A 
HETATM   55  N5  UNL     1       0.691   6.538 -16.341  1.00  0.00    -0.341 N 
HETATM   56  C22 UNL     1       1.409   7.391 -17.099  1.00  0.00     0.183 A 
HETATM   57  H5  UNL     1       0.592   5.559 -16.607  1.00  0.00     0.167 HD
HETATM   58  N6  UNL     1       1.628   8.707 -16.901  1.00  0.00    -0.336 N 
HETATM   59  H6  UNL     1       2.185   9.300 -17.516  1.00  0.00     0.168 HD
BRANCH  53  60
HETATM   60  N7  UNL     1      -0.620   6.132 -14.434  1.00  0.00    -0.287 NA
HETATM   61  H33 UNL     1      -1.439   6.541 -13.990  1.00  0.00     0.125 HD
HETATM   62  H34 UNL     1      -0.033   5.545 -13.856  1.00  0.00     0.125 HD
ENDBRANCH  53  60
ENDBRANCH  37  48
ENDBRANCH  33  34
ENDBRANCH  32  33
ENDBRANCH  28  32
ENDBRANCH  27  28
ENDBRANCH  23  27
ENDBRANCH  22  23
ENDBRANCH  21  22
ENDBRANCH  18  21
ENDBRANCH  17  18
BRANCH  17  63
HETATM   63  O17 UNL     1       7.718   7.816 -14.816  1.00  0.00    -0.385 OA
HETATM   64  H38 UNL     1       7.828   8.035 -15.756  1.00  0.00     0.210 HD
ENDBRANCH  17  63
ENDBRANCH  14  17
ENDBRANCH  12  13
ENDBRANCH  11  12
ENDBRANCH   8  11
ENDBRANCH   6   7
ENDBRANCH   5   6
ENDBRANCH   4   5
ENDBRANCH   2   4
TORSDOF 27
ENDMDL
