MODEL 1
REMARK VINA RESULT:      -4.3      0.000      0.000
REMARK  2 active torsions:
REMARK  status: ('A' for Active; 'I' for Inactive)
REMARK    1  A    between atoms: C3_3  and  O1_8 
REMARK    2  A    between atoms: C6_6  and  N1_7 
ROOT
HETATM    1  C1  UNL     1       8.149  12.902  -4.507  1.00  0.00     0.026 A 
HETATM    2  C2  UNL     1       7.143  12.023  -4.100  1.00  0.00     0.038 A 
HETATM    3  C3  UNL     1       6.808  10.942  -4.904  1.00  0.00     0.065 A 
HETATM    4  C4  UNL     1       7.477  10.717  -6.102  1.00  0.00     0.038 A 
HETATM    5  C5  UNL     1       8.482  11.602  -6.503  1.00  0.00     0.026 A 
HETATM    6  C6  UNL     1       8.793  12.730  -5.736  1.00  0.00     0.005 A 
ENDROOT
BRANCH   6   7
HETATM    7  N1  UNL     1       9.879  13.541  -6.084  1.00  0.00    -0.303 NA
HETATM    8  H5  UNL     1      10.782  13.113  -5.905  1.00  0.00     0.124 HD
HETATM    9  H6  UNL     1       9.819  14.485  -5.717  1.00  0.00     0.124 HD
ENDBRANCH   6   7
BRANCH   3  10
HETATM   10  O1  UNL     1       5.824  10.106  -4.471  1.00  0.00    -0.361 OA
HETATM   11  H7  UNL     1       4.980  10.586  -4.486  1.00  0.00     0.217 HD
ENDBRANCH   3  10
TORSDOF 2
ENDMDL
MODEL 2
REMARK VINA RESULT:      -4.0      2.778      3.681
REMARK  2 active torsions:
REMARK  status: ('A' for Active; 'I' for Inactive)
REMARK    1  A    between atoms: C3_3  and  O1_8 
REMARK    2  A    between atoms: C6_6  and  N1_7 
ROOT
HETATM    1  C1  UNL     1       7.544  10.779  -6.143  1.00  0.00     0.026 A 
HETATM    2  C2  UNL     1       8.534  11.664  -6.576  1.00  0.00     0.038 A 
HETATM    3  C3  UNL     1       8.861  12.765  -5.796  1.00  0.00     0.065 A 
HETATM    4  C4  UNL     1       8.223  12.986  -4.581  1.00  0.00     0.038 A 
HETATM    5  C5  UNL     1       7.232  12.096  -4.154  1.00  0.00     0.026 A 
HETATM    6  C6  UNL     1       6.848  11.014  -4.953  1.00  0.00     0.005 A 
ENDROOT
BRANCH   6   7
HETATM    7  N1  UNL     1       5.943  10.065  -4.466  1.00  0.00    -0.303 NA
HETATM    8  H5  UNL     1       5.768  10.142  -3.468  1.00  0.00     0.124 HD
HETATM    9  H6  UNL     1       6.154   9.114  -4.748  1.00  0.00     0.124 HD
ENDBRANCH   6   7
BRANCH   3  10
HETATM   10  O1  UNL     1       9.833  13.604  -6.252  1.00  0.00    -0.361 OA
HETATM   11  H7  UNL     1       9.621  13.859  -7.164  1.00  0.00     0.217 HD
ENDBRANCH   3  10
TORSDOF 2
ENDMDL
MODEL 3
REMARK VINA RESULT:      -3.6     16.604     17.622
REMARK  2 active torsions:
REMARK  status: ('A' for Active; 'I' for Inactive)
REMARK    1  A    between atoms: C3_3  and  O1_8 
REMARK    2  A    between atoms: C6_6  and  N1_7 
ROOT
HETATM    1  C1  UNL     1       6.343  -3.647 -15.738  1.00  0.00     0.026 A 
HETATM    2  C2  UNL     1       5.268  -2.782 -15.518  1.00  0.00     0.038 A 
HETATM    3  C3  UNL     1       5.258  -1.971 -14.392  1.00  0.00     0.065 A 
HETATM    4  C4  UNL     1       6.315  -1.999 -13.490  1.00  0.00     0.038 A 
HETATM    5  C5  UNL     1       7.387  -2.868 -13.716  1.00  0.00     0.026 A 
HETATM    6  C6  UNL     1       7.387  -3.735 -14.813  1.00  0.00     0.005 A 
ENDROOT
BRANCH   6   7
HETATM    7  N1  UNL     1       8.516  -4.513 -15.095  1.00  0.00    -0.303 NA
HETATM    8  H5  UNL     1       9.376  -4.140 -14.707  1.00  0.00     0.124 HD
HETATM    9  H6  UNL     1       8.610  -4.760 -16.075  1.00  0.00     0.124 HD
ENDBRANCH   6   7
BRANCH   3  10
HETATM   10  O1  UNL     1       4.193  -1.139 -14.215  1.00  0.00    -0.361 OA
HETATM   11  H7  UNL     1       4.519  -0.282 -13.897  1.00  0.00     0.217 HD
ENDBRANCH   3  10
TORSDOF 2
ENDMDL
MODEL 4
REMARK VINA RESULT:      -3.6     16.655     17.551
REMARK  2 active torsions:
REMARK  status: ('A' for Active; 'I' for Inactive)
REMARK    1  A    between atoms: C3_3  and  O1_8 
REMARK    2  A    between atoms: C6_6  and  N1_7 
ROOT
HETATM    1  C1  UNL     1       5.302  -4.021 -14.219  1.00  0.00     0.026 A 
HETATM    2  C2  UNL     1       6.695  -4.109 -14.159  1.00  0.00     0.038 A 
HETATM    3  C3  UNL     1       7.454  -2.950 -14.080  1.00  0.00     0.065 A 
HETATM    4  C4  UNL     1       6.841  -1.703 -14.044  1.00  0.00     0.038 A 
HETATM    5  C5  UNL     1       5.446  -1.623 -14.106  1.00  0.00     0.026 A 
HETATM    6  C6  UNL     1       4.667  -2.776 -14.245  1.00  0.00     0.005 A 
ENDROOT
BRANCH   6   7
HETATM    7  N1  UNL     1       3.271  -2.695 -14.186  1.00  0.00    -0.303 NA
HETATM    8  H5  UNL     1       2.888  -1.895 -14.680  1.00  0.00     0.124 HD
HETATM    9  H6  UNL     1       2.894  -2.787 -13.249  1.00  0.00     0.124 HD
ENDBRANCH   6   7
BRANCH   3  10
HETATM   10  O1  UNL     1       8.810  -3.078 -14.020  1.00  0.00    -0.361 OA
HETATM   11  H7  UNL     1       9.182  -2.830 -14.882  1.00  0.00     0.217 HD
ENDBRANCH   3  10
TORSDOF 2
ENDMDL
MODEL 5
REMARK VINA RESULT:      -3.5     16.754     17.547
REMARK  2 active torsions:
REMARK  status: ('A' for Active; 'I' for Inactive)
REMARK    1  A    between atoms: C3_3  and  O1_8 
REMARK    2  A    between atoms: C6_6  and  N1_7 
ROOT
HETATM    1  C1  UNL     1       5.274  -1.673 -14.128  1.00  0.00     0.026 A 
HETATM    2  C2  UNL     1       6.666  -1.773 -14.140  1.00  0.00     0.038 A 
HETATM    3  C3  UNL     1       7.266  -3.024 -14.093  1.00  0.00     0.065 A 
HETATM    4  C4  UNL     1       6.493  -4.178 -14.051  1.00  0.00     0.038 A 
HETATM    5  C5  UNL     1       5.099  -4.070 -14.038  1.00  0.00     0.026 A 
HETATM    6  C6  UNL     1       4.477  -2.817 -14.025  1.00  0.00     0.005 A 
ENDROOT
BRANCH   6   7
HETATM    7  N1  UNL     1       3.085  -2.721 -14.133  1.00  0.00    -0.303 NA
HETATM    8  H5  UNL     1       2.773  -2.266 -14.986  1.00  0.00     0.124 HD
HETATM    9  H6  UNL     1       2.635  -2.342 -13.306  1.00  0.00     0.124 HD
ENDBRANCH   6   7
BRANCH   3  10
HETATM   10  O1  UNL     1       8.628  -3.080 -14.109  1.00  0.00    -0.361 OA
HETATM   11  H7  UNL     1       8.925  -3.606 -13.349  1.00  0.00     0.217 HD
ENDBRANCH   3  10
TORSDOF 2
ENDMDL
MODEL 6
REMARK VINA RESULT:      -3.5     16.627     17.481
REMARK  2 active torsions:
REMARK  status: ('A' for Active; 'I' for Inactive)
REMARK    1  A    between atoms: C3_3  and  O1_8 
REMARK    2  A    between atoms: C6_6  and  N1_7 
ROOT
HETATM    1  C1  UNL     1       5.980  -1.781 -13.940  1.00  0.00     0.026 A 
HETATM    2  C2  UNL     1       4.690  -1.552 -14.425  1.00  0.00     0.038 A 
HETATM    3  C3  UNL     1       4.294  -2.130 -15.623  1.00  0.00     0.065 A 
HETATM    4  C4  UNL     1       5.163  -2.947 -16.337  1.00  0.00     0.038 A 
HETATM    5  C5  UNL     1       6.452  -3.170 -15.846  1.00  0.00     0.026 A 
HETATM    6  C6  UNL     1       6.890  -2.550 -14.671  1.00  0.00     0.005 A 
ENDROOT
BRANCH   6   7
HETATM    7  N1  UNL     1       8.138  -2.873 -14.127  1.00  0.00    -0.303 NA
HETATM    8  H5  UNL     1       8.917  -2.686 -14.751  1.00  0.00     0.124 HD
HETATM    9  H6  UNL     1       8.182  -3.803 -13.724  1.00  0.00     0.124 HD
ENDBRANCH   6   7
BRANCH   3  10
HETATM   10  O1  UNL     1       3.027  -1.885 -16.061  1.00  0.00    -0.361 OA
HETATM   11  H7  UNL     1       2.409  -2.047 -15.330  1.00  0.00     0.217 HD
ENDBRANCH   3  10
TORSDOF 2
ENDMDL
MODEL 7
REMARK VINA RESULT:      -3.5     12.999     13.325
REMARK  2 active torsions:
REMARK  status: ('A' for Active; 'I' for Inactive)
REMARK    1  A    between atoms: C3_3  and  O1_8 
REMARK    2  A    between atoms: C6_6  and  N1_7 
ROOT
HETATM    1  C1  UNL     1      -2.570  12.261 -14.043  1.00  0.00     0.026 A 
HETATM    2  C2  UNL     1      -2.023  11.091 -14.576  1.00  0.00     0.038 A 
HETATM    3  C3  UNL     1      -0.786  11.134 -15.202  1.00  0.00     0.065 A 
HETATM    4  C4  UNL     1      -0.077  12.327 -15.289  1.00  0.00     0.038 A 
HETATM    5  C5  UNL     1      -0.630  13.493 -14.754  1.00  0.00     0.026 A 
HETATM    6  C6  UNL     1      -1.902  13.482 -14.171  1.00  0.00     0.005 A 
ENDROOT
BRANCH   6   7
HETATM    7  N1  UNL     1      -2.395  14.626 -13.534  1.00  0.00    -0.303 NA
HETATM    8  H5  UNL     1      -2.754  14.450 -12.600  1.00  0.00     0.124 HD
HETATM    9  H6  UNL     1      -3.040  15.166 -14.100  1.00  0.00     0.124 HD
ENDBRANCH   6   7
BRANCH   3  10
HETATM   10  O1  UNL     1      -0.286   9.971 -15.708  1.00  0.00    -0.361 OA
HETATM   11  H7  UNL     1       0.354  10.186 -16.405  1.00  0.00     0.217 HD
ENDBRANCH   3  10
TORSDOF 2
ENDMDL
MODEL 8
REMARK VINA RESULT:      -3.5     13.022     13.348
REMARK  2 active torsions:
REMARK  status: ('A' for Active; 'I' for Inactive)
REMARK    1  A    between atoms: C3_3  and  O1_8 
REMARK    2  A    between atoms: C6_6  and  N1_7 
ROOT
HETATM    1  C1  UNL     1      -0.630  13.484 -14.771  1.00  0.00     0.026 A 
HETATM    2  C2  UNL     1      -0.102  12.298 -15.285  1.00  0.00     0.038 A 
HETATM    3  C3  UNL     1      -0.823  11.118 -15.172  1.00  0.00     0.065 A 
HETATM    4  C4  UNL     1      -2.074  11.109 -14.565  1.00  0.00     0.038 A 
HETATM    5  C5  UNL     1      -2.596  12.300 -14.051  1.00  0.00     0.026 A 
HETATM    6  C6  UNL     1      -1.858  13.487 -14.103  1.00  0.00     0.005 A 
ENDROOT
BRANCH   6   7
HETATM    7  N1  UNL     1      -2.436  14.695 -13.695  1.00  0.00    -0.303 NA
HETATM    8  H5  UNL     1      -1.771  15.457 -13.608  1.00  0.00     0.124 HD
HETATM    9  H6  UNL     1      -3.033  14.608 -12.879  1.00  0.00     0.124 HD
ENDBRANCH   6   7
BRANCH   3  10
HETATM   10  O1  UNL     1      -0.276   9.983 -15.689  1.00  0.00    -0.361 OA
HETATM   11  H7  UNL     1      -0.182   9.331 -14.975  1.00  0.00     0.217 HD
ENDBRANCH   3  10
TORSDOF 2
ENDMDL
MODEL 9
REMARK VINA RESULT:      -3.4     13.028     13.371
REMARK  2 active torsions:
REMARK  status: ('A' for Active; 'I' for Inactive)
REMARK    1  A    between atoms: C3_3  and  O1_8 
REMARK    2  A    between atoms: C6_6  and  N1_7 
ROOT
HETATM    1  C1  UNL     1      -0.069  12.422 -15.297  1.00  0.00     0.026 A 
HETATM    2  C2  UNL     1      -0.536  13.628 -14.772  1.00  0.00     0.038 A 
HETATM    3  C3  UNL     1      -1.766  13.668 -14.130  1.00  0.00     0.065 A 
HETATM    4  C4  UNL     1      -2.530  12.515 -13.991  1.00  0.00     0.038 A 
HETATM    5  C5  UNL     1      -2.056  11.311 -14.521  1.00  0.00     0.026 A 
HETATM    6  C6  UNL     1      -0.847  11.263 -15.222  1.00  0.00     0.005 A 
ENDROOT
BRANCH   6   7
HETATM    7  N1  UNL     1      -0.325  10.034 -15.644  1.00  0.00    -0.303 NA
HETATM    8  H5  UNL     1      -0.582   9.787 -16.594  1.00  0.00     0.124 HD
HETATM    9  H6  UNL     1      -0.485   9.275 -14.990  1.00  0.00     0.124 HD
ENDBRANCH   6   7
BRANCH   3  10
HETATM   10  O1  UNL     1      -2.186  14.864 -13.628  1.00  0.00    -0.361 OA
HETATM   11  H7  UNL     1      -1.494  15.526 -13.786  1.00  0.00     0.217 HD
ENDBRANCH   3  10
TORSDOF 2
ENDMDL
MODEL 10
REMARK VINA RESULT:      -3.2     16.713     17.568
REMARK  2 active torsions:
REMARK  status: ('A' for Active; 'I' for Inactive)
REMARK    1  A    between atoms: C3_3  and  O1_8 
REMARK    2  A    between atoms: C6_6  and  N1_7 
ROOT
HETATM    1  C1  UNL     1       4.178  -3.899 -14.035  1.00  0.00     0.026 A 
HETATM    2  C2  UNL     1       5.532  -3.932 -13.696  1.00  0.00     0.038 A 
HETATM    3  C3  UNL     1       6.291  -2.773 -13.780  1.00  0.00     0.065 A 
HETATM    4  C4  UNL     1       5.711  -1.575 -14.183  1.00  0.00     0.038 A 
HETATM    5  C5  UNL     1       4.355  -1.550 -14.522  1.00  0.00     0.026 A 
HETATM    6  C6  UNL     1       3.588  -2.720 -14.501  1.00  0.00     0.005 A 
ENDROOT
BRANCH   6   7
HETATM    7  N1  UNL     1       2.208  -2.663 -14.726  1.00  0.00    -0.303 NA
HETATM    8  H5  UNL     1       1.694  -2.190 -13.989  1.00  0.00     0.124 HD
HETATM    9  H6  UNL     1       1.795  -3.555 -14.974  1.00  0.00     0.124 HD
ENDBRANCH   6   7
BRANCH   3  10
HETATM   10  O1  UNL     1       7.608  -2.845 -13.438  1.00  0.00    -0.361 OA
HETATM   11  H7  UNL     1       7.971  -1.946 -13.412  1.00  0.00     0.217 HD
ENDBRANCH   3  10
TORSDOF 2
ENDMDL
MODEL 11
REMARK VINA RESULT:      -3.2     17.884     18.569
REMARK  2 active torsions:
REMARK  status: ('A' for Active; 'I' for Inactive)
REMARK    1  A    between atoms: C3_3  and  O1_8 
REMARK    2  A    between atoms: C6_6  and  N1_7 
ROOT
HETATM    1  C1  UNL     1       3.700  -2.604 -16.438  1.00  0.00     0.026 A 
HETATM    2  C2  UNL     1       4.799  -2.838 -17.268  1.00  0.00     0.038 A 
HETATM    3  C3  UNL     1       6.056  -3.020 -16.710  1.00  0.00     0.065 A 
HETATM    4  C4  UNL     1       6.229  -2.989 -15.331  1.00  0.00     0.038 A 
HETATM    5  C5  UNL     1       5.125  -2.753 -14.506  1.00  0.00     0.026 A 
HETATM    6  C6  UNL     1       3.861  -2.508 -15.052  1.00  0.00     0.005 A 
ENDROOT
BRANCH   6   7
HETATM    7  N1  UNL     1       2.743  -2.393 -14.218  1.00  0.00    -0.303 NA
HETATM    8  H5  UNL     1       2.161  -1.587 -14.426  1.00  0.00     0.124 HD
HETATM    9  H6  UNL     1       2.959  -2.469 -13.230  1.00  0.00     0.124 HD
ENDBRANCH   6   7
BRANCH   3  10
HETATM   10  O1  UNL     1       7.102  -3.248 -17.553  1.00  0.00    -0.361 OA
HETATM   11  H7  UNL     1       6.850  -3.948 -18.177  1.00  0.00     0.217 HD
ENDBRANCH   3  10
TORSDOF 2
ENDMDL
MODEL 12
REMARK VINA RESULT:      -3.1     17.537     18.232
REMARK  2 active torsions:
REMARK  status: ('A' for Active; 'I' for Inactive)
REMARK    1  A    between atoms: C3_3  and  O1_8 
REMARK    2  A    between atoms: C6_6  and  N1_7 
ROOT
HETATM    1  C1  UNL     1       6.530  -3.343 -16.309  1.00  0.00     0.026 A 
HETATM    2  C2  UNL     1       6.608  -3.204 -14.921  1.00  0.00     0.038 A 
HETATM    3  C3  UNL     1       5.536  -2.667 -14.223  1.00  0.00     0.065 A 
HETATM    4  C4  UNL     1       4.378  -2.282 -14.889  1.00  0.00     0.038 A 
HETATM    5  C5  UNL     1       4.308  -2.423 -16.278  1.00  0.00     0.026 A 
HETATM    6  C6  UNL     1       5.400  -2.907 -17.006  1.00  0.00     0.005 A 
ENDROOT
BRANCH   6   7
HETATM    7  N1  UNL     1       5.278  -3.156 -18.378  1.00  0.00    -0.303 NA
HETATM    8  H5  UNL     1       6.091  -3.608 -18.785  1.00  0.00     0.124 HD
HETATM    9  H6  UNL     1       4.973  -2.352 -18.916  1.00  0.00     0.124 HD
ENDBRANCH   6   7
BRANCH   3  10
HETATM   10  O1  UNL     1       5.650  -2.550 -12.870  1.00  0.00    -0.361 OA
HETATM   11  H7  UNL     1       5.966  -1.656 -12.662  1.00  0.00     0.217 HD
ENDBRANCH   3  10
TORSDOF 2
ENDMDL
MODEL 13
REMARK VINA RESULT:      -3.1     17.747     18.360
REMARK  2 active torsions:
REMARK  status: ('A' for Active; 'I' for Inactive)
REMARK    1  A    between atoms: C3_3  and  O1_8 
REMARK    2  A    between atoms: C6_6  and  N1_7 
ROOT
HETATM    1  C1  UNL     1       4.661  -2.778 -17.166  1.00  0.00     0.026 A 
HETATM    2  C2  UNL     1       3.579  -2.524 -16.320  1.00  0.00     0.038 A 
HETATM    3  C3  UNL     1       3.758  -2.559 -14.945  1.00  0.00     0.065 A 
HETATM    4  C4  UNL     1       5.009  -2.829 -14.400  1.00  0.00     0.038 A 
HETATM    5  C5  UNL     1       6.087  -3.083 -15.253  1.00  0.00     0.026 A 
HETATM    6  C6  UNL     1       5.913  -3.110 -16.640  1.00  0.00     0.005 A 
ENDROOT
BRANCH   6   7
HETATM    7  N1  UNL     1       7.019  -3.248 -17.487  1.00  0.00    -0.303 NA
HETATM    8  H5  UNL     1       7.412  -4.184 -17.496  1.00  0.00     0.124 HD
HETATM    9  H6  UNL     1       7.728  -2.533 -17.355  1.00  0.00     0.124 HD
ENDBRANCH   6   7
BRANCH   3  10
HETATM   10  O1  UNL     1       2.678  -2.303 -14.153  1.00  0.00    -0.361 OA
HETATM   11  H7  UNL     1       2.846  -1.487 -13.656  1.00  0.00     0.217 HD
ENDBRANCH   3  10
TORSDOF 2
ENDMDL
MODEL 14
REMARK VINA RESULT:      -3.1     17.703     18.384
REMARK  2 active torsions:
REMARK  status: ('A' for Active; 'I' for Inactive)
REMARK    1  A    between atoms: C3_3  and  O1_8 
REMARK    2  A    between atoms: C6_6  and  N1_7 
ROOT
HETATM    1  C1  UNL     1       6.605  -3.200 -15.167  1.00  0.00     0.026 A 
HETATM    2  C2  UNL     1       6.494  -3.301 -16.556  1.00  0.00     0.038 A 
HETATM    3  C3  UNL     1       5.319  -2.912 -17.182  1.00  0.00     0.065 A 
HETATM    4  C4  UNL     1       4.256  -2.406 -16.442  1.00  0.00     0.038 A 
HETATM    5  C5  UNL     1       4.374  -2.309 -15.052  1.00  0.00     0.026 A 
HETATM    6  C6  UNL     1       5.528  -2.751 -14.397  1.00  0.00     0.005 A 
ENDROOT
BRANCH   6   7
HETATM    7  N1  UNL     1       5.683  -2.540 -13.022  1.00  0.00    -0.303 NA
HETATM    8  H5  UNL     1       5.579  -1.569 -12.745  1.00  0.00     0.124 HD
HETATM    9  H6  UNL     1       6.517  -2.966 -12.633  1.00  0.00     0.124 HD
ENDBRANCH   6   7
BRANCH   3  10
HETATM   10  O1  UNL     1       5.251  -3.023 -18.539  1.00  0.00    -0.361 OA
HETATM   11  H7  UNL     1       4.889  -2.198 -18.899  1.00  0.00     0.217 HD
ENDBRANCH   3  10
TORSDOF 2
ENDMDL
MODEL 15
REMARK VINA RESULT:      -3.1     13.172     13.579
REMARK  2 active torsions:
REMARK  status: ('A' for Active; 'I' for Inactive)
REMARK    1  A    between atoms: C3_3  and  O1_8 
REMARK    2  A    between atoms: C6_6  and  N1_7 
ROOT
HETATM    1  C1  UNL     1      -2.469  12.744 -14.035  1.00  0.00     0.026 A 
HETATM    2  C2  UNL     1      -1.334  13.488 -14.363  1.00  0.00     0.038 A 
HETATM    3  C3  UNL     1      -0.274  12.874 -15.014  1.00  0.00     0.065 A 
HETATM    4  C4  UNL     1      -0.338  11.528 -15.358  1.00  0.00     0.038 A 
HETATM    5  C5  UNL     1      -1.478  10.789 -15.025  1.00  0.00     0.026 A 
HETATM    6  C6  UNL     1      -2.531  11.376 -14.317  1.00  0.00     0.005 A 
ENDROOT
BRANCH   6   7
HETATM    7  N1  UNL     1      -3.715  10.663 -14.094  1.00  0.00    -0.303 NA
HETATM    8  H5  UNL     1      -4.344  11.113 -13.436  1.00  0.00     0.124 HD
HETATM    9  H6  UNL     1      -3.568   9.682 -13.880  1.00  0.00     0.124 HD
ENDBRANCH   6   7
BRANCH   3  10
HETATM   10  O1  UNL     1       0.815  13.634 -15.319  1.00  0.00    -0.361 OA
HETATM   11  H7  UNL     1       1.088  13.433 -16.229  1.00  0.00     0.217 HD
ENDBRANCH   3  10
TORSDOF 2
ENDMDL
MODEL 16
REMARK VINA RESULT:      -2.9     17.693     18.603
REMARK  2 active torsions:
REMARK  status: ('A' for Active; 'I' for Inactive)
REMARK    1  A    between atoms: C3_3  and  O1_8 
REMARK    2  A    between atoms: C6_6  and  N1_7 
ROOT
HETATM    1  C1  UNL     1       4.591  -4.395 -14.930  1.00  0.00     0.026 A 
HETATM    2  C2  UNL     1       5.271  -4.135 -16.122  1.00  0.00     0.038 A 
HETATM    3  C3  UNL     1       6.398  -3.326 -16.109  1.00  0.00     0.065 A 
HETATM    4  C4  UNL     1       6.866  -2.784 -14.918  1.00  0.00     0.038 A 
HETATM    5  C5  UNL     1       6.180  -3.047 -13.728  1.00  0.00     0.026 A 
HETATM    6  C6  UNL     1       5.009  -3.812 -13.730  1.00  0.00     0.005 A 
ENDROOT
BRANCH   6   7
HETATM    7  N1  UNL     1       4.398  -4.168 -12.522  1.00  0.00    -0.303 NA
HETATM    8  H5  UNL     1       3.619  -4.810 -12.633  1.00  0.00     0.124 HD
HETATM    9  H6  UNL     1       4.165  -3.376 -11.931  1.00  0.00     0.124 HD
ENDBRANCH   6   7
BRANCH   3  10
HETATM   10  O1  UNL     1       7.035  -3.099 -17.292  1.00  0.00    -0.361 OA
HETATM   11  H7  UNL     1       7.221  -2.149 -17.367  1.00  0.00     0.217 HD
ENDBRANCH   3  10
TORSDOF 2
ENDMDL
MODEL 17
REMARK VINA RESULT:      -2.7     18.132     18.339
REMARK  2 active torsions:
REMARK  status: ('A' for Active; 'I' for Inactive)
REMARK    1  A    between atoms: C3_3  and  O1_8 
REMARK    2  A    between atoms: C6_6  and  N1_7 
ROOT
HETATM    1  C1  UNL     1       5.089  -3.492 -14.340  1.00  0.00     0.026 A 
HETATM    2  C2  UNL     1       3.727  -3.604 -14.053  1.00  0.00     0.038 A 
HETATM    3  C3  UNL     1       2.791  -3.176 -14.983  1.00  0.00     0.065 A 
HETATM    4  C4  UNL     1       3.196  -2.651 -16.206  1.00  0.00     0.038 A 
HETATM    5  C5  UNL     1       4.561  -2.541 -16.485  1.00  0.00     0.026 A 
HETATM    6  C6  UNL     1       5.520  -2.913 -15.537  1.00  0.00     0.005 A 
ENDROOT
BRANCH   6   7
HETATM    7  N1  UNL     1       6.879  -2.910 -15.871  1.00  0.00    -0.303 NA
HETATM    8  H5  UNL     1       7.108  -3.517 -16.652  1.00  0.00     0.124 HD
HETATM    9  H6  UNL     1       7.496  -3.051 -15.079  1.00  0.00     0.124 HD
ENDBRANCH   6   7
BRANCH   3  10
HETATM   10  O1  UNL     1       1.471  -3.304 -14.667  1.00  0.00    -0.361 OA
HETATM   11  H7  UNL     1       1.399  -3.785 -13.827  1.00  0.00     0.217 HD
ENDBRANCH   3  10
TORSDOF 2
ENDMDL
MODEL 18
REMARK VINA RESULT:      -2.7     17.405     18.325
REMARK  2 active torsions:
REMARK  status: ('A' for Active; 'I' for Inactive)
REMARK    1  A    between atoms: C3_3  and  O1_8 
REMARK    2  A    between atoms: C6_6  and  N1_7 
ROOT
HETATM    1  C1  UNL     1       5.203  -2.767 -14.043  1.00  0.00     0.026 A 
HETATM    2  C2  UNL     1       4.503  -1.796 -14.762  1.00  0.00     0.038 A 
HETATM    3  C3  UNL     1       4.193  -2.017 -16.096  1.00  0.00     0.065 A 
HETATM    4  C4  UNL     1       4.560  -3.204 -16.720  1.00  0.00     0.038 A 
HETATM    5  C5  UNL     1       5.263  -4.171 -15.995  1.00  0.00     0.026 A 
HETATM    6  C6  UNL     1       5.635  -3.942 -14.666  1.00  0.00     0.005 A 
ENDROOT
BRANCH   6   7
HETATM    7  N1  UNL     1       6.231  -4.961 -13.915  1.00  0.00    -0.303 NA
HETATM    8  H5  UNL     1       5.892  -5.890 -14.146  1.00  0.00     0.124 HD
HETATM    9  H6  UNL     1       6.232  -4.787 -12.916  1.00  0.00     0.124 HD
ENDBRANCH   6   7
BRANCH   3  10
HETATM   10  O1  UNL     1       3.506  -1.047 -16.762  1.00  0.00    -0.361 OA
HETATM   11  H7  UNL     1       2.919  -0.596 -16.134  1.00  0.00     0.217 HD
ENDBRANCH   3  10
TORSDOF 2
ENDMDL
MODEL 19
REMARK VINA RESULT:      -2.6     19.260     19.823
REMARK  2 active torsions:
REMARK  status: ('A' for Active; 'I' for Inactive)
REMARK    1  A    between atoms: C3_3  and  O1_8 
REMARK    2  A    between atoms: C6_6  and  N1_7 
ROOT
HETATM    1  C1  UNL     1       0.106   1.782 -19.722  1.00  0.00     0.026 A 
HETATM    2  C2  UNL     1      -1.213   1.324 -19.765  1.00  0.00     0.038 A 
HETATM    3  C3  UNL     1      -1.494   0.005 -19.439  1.00  0.00     0.065 A 
HETATM    4  C4  UNL     1      -0.477  -0.861 -19.053  1.00  0.00     0.038 A 
HETATM    5  C5  UNL     1       0.841  -0.396 -19.014  1.00  0.00     0.026 A 
HETATM    6  C6  UNL     1       1.152   0.913 -19.396  1.00  0.00     0.005 A 
ENDROOT
BRANCH   6   7
HETATM    7  N1  UNL     1       2.453   1.403 -19.239  1.00  0.00    -0.303 NA
HETATM    8  H5  UNL     1       2.608   2.300 -19.689  1.00  0.00     0.124 HD
HETATM    9  H6  UNL     1       3.176   0.728 -19.465  1.00  0.00     0.124 HD
ENDBRANCH   6   7
BRANCH   3  10
HETATM   10  O1  UNL     1      -2.793  -0.402 -19.490  1.00  0.00    -0.361 OA
HETATM   11  H7  UNL     1      -2.826  -1.281 -19.901  1.00  0.00     0.217 HD
ENDBRANCH   3  10
TORSDOF 2
ENDMDL
MODEL 20
REMARK VINA RESULT:      -2.6     19.765     20.623
REMARK  2 active torsions:
REMARK  status: ('A' for Active; 'I' for Inactive)
REMARK    1  A    between atoms: C3_3  and  O1_8 
REMARK    2  A    between atoms: C6_6  and  N1_7 
ROOT
HETATM    1  C1  UNL     1      -2.771   1.043 -20.031  1.00  0.00     0.026 A 
HETATM    2  C2  UNL     1      -1.797   2.028 -19.858  1.00  0.00     0.038 A 
HETATM    3  C3  UNL     1      -0.547   1.681 -19.367  1.00  0.00     0.065 A 
HETATM    4  C4  UNL     1      -0.250   0.358 -19.060  1.00  0.00     0.038 A 
HETATM    5  C5  UNL     1      -1.230  -0.623 -19.234  1.00  0.00     0.026 A 
HETATM    6  C6  UNL     1      -2.514  -0.284 -19.673  1.00  0.00     0.005 A 
ENDROOT
BRANCH   6   7
HETATM    7  N1  UNL     1      -3.450  -1.285 -19.957  1.00  0.00    -0.303 NA
HETATM    8  H5  UNL     1      -3.063  -2.224 -19.931  1.00  0.00     0.124 HD
HETATM    9  H6  UNL     1      -3.992  -1.114 -20.797  1.00  0.00     0.124 HD
ENDBRANCH   6   7
BRANCH   3  10
HETATM   10  O1  UNL     1       0.377   2.671 -19.215  1.00  0.00    -0.361 OA
HETATM   11  H7  UNL     1      -0.026   3.514 -19.478  1.00  0.00     0.217 HD
ENDBRANCH   3  10
TORSDOF 2
ENDMDL
