MODEL 1
REMARK VINA RESULT:      -3.0      0.000      0.000
REMARK  2 active torsions:
REMARK  status: ('A' for Active; 'I' for Inactive)
REMARK    1  A    between atoms: C3_3  and  O1_8 
REMARK    2  A    between atoms: C6_6  and  N1_7 
ROOT
HETATM    1  C1  UNL     1      -1.240   1.313 -19.795  1.00  0.00     0.026 A 
HETATM    2  C2  UNL     1      -2.549   1.725 -20.057  1.00  0.00     0.038 A 
HETATM    3  C3  UNL     1      -2.851   3.079 -20.083  1.00  0.00     0.065 A 
HETATM    4  C4  UNL     1      -1.860   4.030 -19.866  1.00  0.00     0.038 A 
HETATM    5  C5  UNL     1      -0.552   3.610 -19.604  1.00  0.00     0.026 A 
HETATM    6  C6  UNL     1      -0.240   2.250 -19.515  1.00  0.00     0.005 A 
ENDROOT
BRANCH   6   7
HETATM    7  N1  UNL     1       1.090   1.840 -19.371  1.00  0.00    -0.303 NA
HETATM    8  H5  UNL     1       1.225   1.140 -18.648  1.00  0.00     0.124 HD
HETATM    9  H6  UNL     1       1.750   2.607 -19.294  1.00  0.00     0.124 HD
ENDBRANCH   6   7
BRANCH   3  10
HETATM   10  O1  UNL     1      -4.138   3.441 -20.344  1.00  0.00    -0.361 OA
HETATM   11  H7  UNL     1      -4.586   3.625 -19.503  1.00  0.00     0.217 HD
ENDBRANCH   3  10
TORSDOF 2
ENDMDL
MODEL 2
REMARK VINA RESULT:      -3.0      2.778      3.263
REMARK  2 active torsions:
REMARK  status: ('A' for Active; 'I' for Inactive)
REMARK    1  A    between atoms: C3_3  and  O1_8 
REMARK    2  A    between atoms: C6_6  and  N1_7 
ROOT
HETATM    1  C1  UNL     1      -2.523   1.692 -20.031  1.00  0.00     0.026 A 
HETATM    2  C2  UNL     1      -1.213   1.294 -19.760  1.00  0.00     0.038 A 
HETATM    3  C3  UNL     1      -0.236   2.253 -19.534  1.00  0.00     0.065 A 
HETATM    4  C4  UNL     1      -0.553   3.607 -19.559  1.00  0.00     0.038 A 
HETATM    5  C5  UNL     1      -1.867   3.998 -19.833  1.00  0.00     0.026 A 
HETATM    6  C6  UNL     1      -2.852   3.048 -20.121  1.00  0.00     0.005 A 
ENDROOT
BRANCH   6   7
HETATM    7  N1  UNL     1      -4.187   3.442 -20.276  1.00  0.00    -0.303 NA
HETATM    8  H5  UNL     1      -4.754   2.770 -20.783  1.00  0.00     0.124 HD
HETATM    9  H6  UNL     1      -4.298   4.386 -20.630  1.00  0.00     0.124 HD
ENDBRANCH   6   7
BRANCH   3  10
HETATM   10  O1  UNL     1       1.031   1.825 -19.269  1.00  0.00    -0.361 OA
HETATM   11  H7  UNL     1       1.494   1.689 -20.111  1.00  0.00     0.217 HD
ENDBRANCH   3  10
TORSDOF 2
ENDMDL
MODEL 3
REMARK VINA RESULT:      -3.0      1.670      2.057
REMARK  2 active torsions:
REMARK  status: ('A' for Active; 'I' for Inactive)
REMARK    1  A    between atoms: C3_3  and  O1_8 
REMARK    2  A    between atoms: C6_6  and  N1_7 
ROOT
HETATM    1  C1  UNL     1      -0.197   2.129 -19.251  1.00  0.00     0.026 A 
HETATM    2  C2  UNL     1      -1.466   2.203 -19.830  1.00  0.00     0.038 A 
HETATM    3  C3  UNL     1      -1.595   2.153 -21.211  1.00  0.00     0.065 A 
HETATM    4  C4  UNL     1      -0.474   2.014 -22.022  1.00  0.00     0.038 A 
HETATM    5  C5  UNL     1       0.793   1.941 -21.435  1.00  0.00     0.026 A 
HETATM    6  C6  UNL     1       0.948   2.049 -20.049  1.00  0.00     0.005 A 
ENDROOT
BRANCH   6   7
HETATM    7  N1  UNL     1       2.204   1.856 -19.464  1.00  0.00    -0.303 NA
HETATM    8  H5  UNL     1       2.641   2.715 -19.144  1.00  0.00     0.124 HD
HETATM    9  H6  UNL     1       2.833   1.286 -20.020  1.00  0.00     0.124 HD
ENDBRANCH   6   7
BRANCH   3  10
HETATM   10  O1  UNL     1      -2.849   2.226 -21.738  1.00  0.00    -0.361 OA
HETATM   11  H7  UNL     1      -3.348   1.441 -21.460  1.00  0.00     0.217 HD
ENDBRANCH   3  10
TORSDOF 2
ENDMDL
MODEL 4
REMARK VINA RESULT:      -3.0      1.457      2.122
REMARK  2 active torsions:
REMARK  status: ('A' for Active; 'I' for Inactive)
REMARK    1  A    between atoms: C3_3  and  O1_8 
REMARK    2  A    between atoms: C6_6  and  N1_7 
ROOT
HETATM    1  C1  UNL     1       0.945   3.295 -20.940  1.00  0.00     0.026 A 
HETATM    2  C2  UNL     1      -0.237   3.884 -21.396  1.00  0.00     0.038 A 
HETATM    3  C3  UNL     1      -1.452   3.501 -20.847  1.00  0.00     0.065 A 
HETATM    4  C4  UNL     1      -1.503   2.548 -19.835  1.00  0.00     0.038 A 
HETATM    5  C5  UNL     1      -0.316   1.963 -19.384  1.00  0.00     0.026 A 
HETATM    6  C6  UNL     1       0.912   2.293 -19.966  1.00  0.00     0.005 A 
ENDROOT
BRANCH   6   7
HETATM    7  N1  UNL     1       2.104   1.791 -19.429  1.00  0.00    -0.303 NA
HETATM    8  H5  UNL     1       2.822   2.497 -19.300  1.00  0.00     0.124 HD
HETATM    9  H6  UNL     1       2.454   0.967 -19.906  1.00  0.00     0.124 HD
ENDBRANCH   6   7
BRANCH   3  10
HETATM   10  O1  UNL     1      -2.582   4.100 -21.316  1.00  0.00    -0.361 OA
HETATM   11  H7  UNL     1      -2.907   3.594 -22.078  1.00  0.00     0.217 HD
ENDBRANCH   3  10
TORSDOF 2
ENDMDL
MODEL 5
REMARK VINA RESULT:      -3.0      3.267      3.902
REMARK  2 active torsions:
REMARK  status: ('A' for Active; 'I' for Inactive)
REMARK    1  A    between atoms: C3_3  and  O1_8 
REMARK    2  A    between atoms: C6_6  and  N1_7 
ROOT
HETATM    1  C1  UNL     1       0.067   2.808 -21.992  1.00  0.00     0.026 A 
HETATM    2  C2  UNL     1       1.229   2.423 -21.321  1.00  0.00     0.038 A 
HETATM    3  C3  UNL     1       1.172   2.107 -19.971  1.00  0.00     0.065 A 
HETATM    4  C4  UNL     1      -0.036   2.155 -19.284  1.00  0.00     0.038 A 
HETATM    5  C5  UNL     1      -1.196   2.543 -19.962  1.00  0.00     0.026 A 
HETATM    6  C6  UNL     1      -1.147   2.921 -21.307  1.00  0.00     0.005 A 
ENDROOT
BRANCH   6   7
HETATM    7  N1  UNL     1      -2.329   3.191 -22.006  1.00  0.00    -0.303 NA
HETATM    8  H5  UNL     1      -2.987   3.766 -21.488  1.00  0.00     0.124 HD
HETATM    9  H6  UNL     1      -2.767   2.368 -22.406  1.00  0.00     0.124 HD
ENDBRANCH   6   7
BRANCH   3  10
HETATM   10  O1  UNL     1       2.327   1.733 -19.353  1.00  0.00    -0.361 OA
HETATM   11  H7  UNL     1       2.696   0.968 -19.822  1.00  0.00     0.217 HD
ENDBRANCH   3  10
TORSDOF 2
ENDMDL
MODEL 6
REMARK VINA RESULT:      -2.9      3.227      3.794
REMARK  2 active torsions:
REMARK  status: ('A' for Active; 'I' for Inactive)
REMARK    1  A    between atoms: C3_3  and  O1_8 
REMARK    2  A    between atoms: C6_6  and  N1_7 
ROOT
HETATM    1  C1  UNL     1      -1.162   2.754 -19.956  1.00  0.00     0.026 A 
HETATM    2  C2  UNL     1      -0.046   2.160 -19.363  1.00  0.00     0.038 A 
HETATM    3  C3  UNL     1       1.199   2.280 -19.965  1.00  0.00     0.065 A 
HETATM    4  C4  UNL     1       1.348   3.001 -21.144  1.00  0.00     0.038 A 
HETATM    5  C5  UNL     1       0.227   3.592 -21.733  1.00  0.00     0.026 A 
HETATM    6  C6  UNL     1      -1.045   3.433 -21.173  1.00  0.00     0.005 A 
ENDROOT
BRANCH   6   7
HETATM    7  N1  UNL     1      -2.140   4.126 -21.702  1.00  0.00    -0.303 NA
HETATM    8  H5  UNL     1      -2.950   3.539 -21.872  1.00  0.00     0.124 HD
HETATM    9  H6  UNL     1      -1.910   4.709 -22.500  1.00  0.00     0.124 HD
ENDBRANCH   6   7
BRANCH   3  10
HETATM   10  O1  UNL     1       2.263   1.687 -19.354  1.00  0.00    -0.361 OA
HETATM   11  H7  UNL     1       3.043   1.789 -19.923  1.00  0.00     0.217 HD
ENDBRANCH   3  10
TORSDOF 2
ENDMDL
MODEL 7
REMARK VINA RESULT:      -2.9      2.483      3.514
REMARK  2 active torsions:
REMARK  status: ('A' for Active; 'I' for Inactive)
REMARK    1  A    between atoms: C3_3  and  O1_8 
REMARK    2  A    between atoms: C6_6  and  N1_7 
ROOT
HETATM    1  C1  UNL     1      -3.062   1.678 -20.110  1.00  0.00     0.026 A 
HETATM    2  C2  UNL     1      -4.351   1.220 -20.390  1.00  0.00     0.038 A 
HETATM    3  C3  UNL     1      -4.637  -0.135 -20.289  1.00  0.00     0.065 A 
HETATM    4  C4  UNL     1      -3.655  -1.038 -19.896  1.00  0.00     0.038 A 
HETATM    5  C5  UNL     1      -2.366  -0.572 -19.619  1.00  0.00     0.026 A 
HETATM    6  C6  UNL     1      -2.044   0.781 -19.772  1.00  0.00     0.005 A 
ENDROOT
BRANCH   6   7
HETATM    7  N1  UNL     1      -0.788   1.255 -19.379  1.00  0.00    -0.303 NA
HETATM    8  H5  UNL     1      -0.012   0.743 -19.788  1.00  0.00     0.124 HD
HETATM    9  H6  UNL     1      -0.688   1.370 -18.376  1.00  0.00     0.124 HD
ENDBRANCH   6   7
BRANCH   3  10
HETATM   10  O1  UNL     1      -5.907  -0.542 -20.567  1.00  0.00    -0.361 OA
HETATM   11  H7  UNL     1      -5.945  -0.825 -21.495  1.00  0.00     0.217 HD
ENDBRANCH   3  10
TORSDOF 2
ENDMDL
MODEL 8
REMARK VINA RESULT:      -2.8      2.972      3.270
REMARK  2 active torsions:
REMARK  status: ('A' for Active; 'I' for Inactive)
REMARK    1  A    between atoms: C3_3  and  O1_8 
REMARK    2  A    between atoms: C6_6  and  N1_7 
ROOT
HETATM    1  C1  UNL     1       0.278   1.774 -20.754  1.00  0.00     0.026 A 
HETATM    2  C2  UNL     1      -0.449   2.181 -21.874  1.00  0.00     0.038 A 
HETATM    3  C3  UNL     1       0.102   3.101 -22.755  1.00  0.00     0.065 A 
HETATM    4  C4  UNL     1       1.378   3.610 -22.540  1.00  0.00     0.038 A 
HETATM    5  C5  UNL     1       2.099   3.199 -21.416  1.00  0.00     0.026 A 
HETATM    6  C6  UNL     1       1.538   2.318 -20.486  1.00  0.00     0.005 A 
ENDROOT
BRANCH   6   7
HETATM    7  N1  UNL     1       2.311   1.822 -19.430  1.00  0.00    -0.303 NA
HETATM    8  H5  UNL     1       3.232   1.502 -19.713  1.00  0.00     0.124 HD
HETATM    9  H6  UNL     1       1.827   1.143 -18.851  1.00  0.00     0.124 HD
ENDBRANCH   6   7
BRANCH   3  10
HETATM   10  O1  UNL     1      -0.638   3.470 -23.838  1.00  0.00    -0.361 OA
HETATM   11  H7  UNL     1      -0.746   4.435 -23.825  1.00  0.00     0.217 HD
ENDBRANCH   3  10
TORSDOF 2
ENDMDL
MODEL 9
REMARK VINA RESULT:      -2.7      1.235      2.173
REMARK  2 active torsions:
REMARK  status: ('A' for Active; 'I' for Inactive)
REMARK    1  A    between atoms: C3_3  and  O1_8 
REMARK    2  A    between atoms: C6_6  and  N1_7 
ROOT
HETATM    1  C1  UNL     1      -2.091   3.375 -19.998  1.00  0.00     0.026 A 
HETATM    2  C2  UNL     1      -3.389   2.940 -20.279  1.00  0.00     0.038 A 
HETATM    3  C3  UNL     1      -3.684   1.585 -20.240  1.00  0.00     0.065 A 
HETATM    4  C4  UNL     1      -2.703   0.656 -19.908  1.00  0.00     0.038 A 
HETATM    5  C5  UNL     1      -1.407   1.099 -19.630  1.00  0.00     0.026 A 
HETATM    6  C6  UNL     1      -1.076   2.455 -19.721  1.00  0.00     0.005 A 
ENDROOT
BRANCH   6   7
HETATM    7  N1  UNL     1       0.191   2.899 -19.325  1.00  0.00    -0.303 NA
HETATM    8  H5  UNL     1       0.190   3.836 -18.933  1.00  0.00     0.124 HD
HETATM    9  H6  UNL     1       0.908   2.777 -20.032  1.00  0.00     0.124 HD
ENDBRANCH   6   7
BRANCH   3  10
HETATM   10  O1  UNL     1      -4.961   1.201 -20.518  1.00  0.00    -0.361 OA
HETATM   11  H7  UNL     1      -4.942   0.573 -21.257  1.00  0.00     0.217 HD
ENDBRANCH   3  10
TORSDOF 2
ENDMDL
MODEL 10
REMARK VINA RESULT:      -2.7      2.994      3.743
REMARK  2 active torsions:
REMARK  status: ('A' for Active; 'I' for Inactive)
REMARK    1  A    between atoms: C3_3  and  O1_8 
REMARK    2  A    between atoms: C6_6  and  N1_7 
ROOT
HETATM    1  C1  UNL     1       1.790   3.281 -22.008  1.00  0.00     0.026 A 
HETATM    2  C2  UNL     1       1.189   3.818 -20.867  1.00  0.00     0.038 A 
HETATM    3  C3  UNL     1       0.204   3.099 -20.206  1.00  0.00     0.065 A 
HETATM    4  C4  UNL     1      -0.179   1.842 -20.659  1.00  0.00     0.038 A 
HETATM    5  C5  UNL     1       0.426   1.311 -21.802  1.00  0.00     0.026 A 
HETATM    6  C6  UNL     1       1.378   2.045 -22.516  1.00  0.00     0.005 A 
ENDROOT
BRANCH   6   7
HETATM    7  N1  UNL     1       2.062   1.459 -23.586  1.00  0.00    -0.303 NA
HETATM    8  H5  UNL     1       1.915   1.933 -24.473  1.00  0.00     0.124 HD
HETATM    9  H6  UNL     1       1.930   0.456 -23.658  1.00  0.00     0.124 HD
ENDBRANCH   6   7
BRANCH   3  10
HETATM   10  O1  UNL     1      -0.356   3.656 -19.095  1.00  0.00    -0.361 OA
HETATM   11  H7  UNL     1       0.271   3.577 -18.359  1.00  0.00     0.217 HD
ENDBRANCH   3  10
TORSDOF 2
ENDMDL
MODEL 11
REMARK VINA RESULT:      -2.6      2.438      3.064
REMARK  2 active torsions:
REMARK  status: ('A' for Active; 'I' for Inactive)
REMARK    1  A    between atoms: C3_3  and  O1_8 
REMARK    2  A    between atoms: C6_6  and  N1_7 
ROOT
HETATM    1  C1  UNL     1       0.133   1.387 -21.442  1.00  0.00     0.026 A 
HETATM    2  C2  UNL     1      -0.611   0.316 -21.941  1.00  0.00     0.038 A 
HETATM    3  C3  UNL     1      -1.674  -0.185 -21.203  1.00  0.00     0.065 A 
HETATM    4  C4  UNL     1      -2.016   0.379 -19.979  1.00  0.00     0.038 A 
HETATM    5  C5  UNL     1      -1.265   1.450 -19.485  1.00  0.00     0.026 A 
HETATM    6  C6  UNL     1      -0.154   1.931 -20.186  1.00  0.00     0.005 A 
ENDROOT
BRANCH   6   7
HETATM    7  N1  UNL     1       0.516   3.077 -19.743  1.00  0.00    -0.303 NA
HETATM    8  H5  UNL     1       1.295   2.880 -19.122  1.00  0.00     0.124 HD
HETATM    9  H6  UNL     1      -0.098   3.796 -19.376  1.00  0.00     0.124 HD
ENDBRANCH   6   7
BRANCH   3  10
HETATM   10  O1  UNL     1      -2.378  -1.229 -21.726  1.00  0.00    -0.361 OA
HETATM   11  H7  UNL     1      -1.983  -2.057 -21.410  1.00  0.00     0.217 HD
ENDBRANCH   3  10
TORSDOF 2
ENDMDL
MODEL 12
REMARK VINA RESULT:      -2.6      2.696      3.472
REMARK  2 active torsions:
REMARK  status: ('A' for Active; 'I' for Inactive)
REMARK    1  A    between atoms: C3_3  and  O1_8 
REMARK    2  A    between atoms: C6_6  and  N1_7 
ROOT
HETATM    1  C1  UNL     1       0.114   0.945 -21.821  1.00  0.00     0.026 A 
HETATM    2  C2  UNL     1       0.422   1.919 -20.868  1.00  0.00     0.038 A 
HETATM    3  C3  UNL     1      -0.389   2.069 -19.752  1.00  0.00     0.065 A 
HETATM    4  C4  UNL     1      -1.496   1.248 -19.565  1.00  0.00     0.038 A 
HETATM    5  C5  UNL     1      -1.798   0.276 -20.524  1.00  0.00     0.026 A 
HETATM    6  C6  UNL     1      -1.027   0.148 -21.684  1.00  0.00     0.005 A 
ENDROOT
BRANCH   6   7
HETATM    7  N1  UNL     1      -1.265  -0.903 -22.576  1.00  0.00    -0.303 NA
HETATM    8  H5  UNL     1      -0.425  -1.400 -22.855  1.00  0.00     0.124 HD
HETATM    9  H6  UNL     1      -1.842  -0.644 -23.370  1.00  0.00     0.124 HD
ENDBRANCH   6   7
BRANCH   3  10
HETATM   10  O1  UNL     1      -0.054   3.029 -18.844  1.00  0.00    -0.361 OA
HETATM   11  H7  UNL     1       0.356   2.599 -18.077  1.00  0.00     0.217 HD
ENDBRANCH   3  10
TORSDOF 2
ENDMDL
MODEL 13
REMARK VINA RESULT:      -2.6     12.545     13.001
REMARK  2 active torsions:
REMARK  status: ('A' for Active; 'I' for Inactive)
REMARK    1  A    between atoms: C3_3  and  O1_8 
REMARK    2  A    between atoms: C6_6  and  N1_7 
ROOT
HETATM    1  C1  UNL     1       2.204  -9.565 -18.145  1.00  0.00     0.026 A 
HETATM    2  C2  UNL     1       1.407  -8.958 -17.172  1.00  0.00     0.038 A 
HETATM    3  C3  UNL     1       1.982  -8.521 -15.987  1.00  0.00     0.065 A 
HETATM    4  C4  UNL     1       3.347  -8.668 -15.767  1.00  0.00     0.038 A 
HETATM    5  C5  UNL     1       4.138  -9.278 -16.745  1.00  0.00     0.026 A 
HETATM    6  C6  UNL     1       3.567  -9.777 -17.920  1.00  0.00     0.005 A 
ENDROOT
BRANCH   6   7
HETATM    7  N1  UNL     1       4.382 -10.277 -18.942  1.00  0.00    -0.303 NA
HETATM    8  H5  UNL     1       4.808 -11.172 -18.723  1.00  0.00     0.124 HD
HETATM    9  H6  UNL     1       5.055  -9.606 -19.296  1.00  0.00     0.124 HD
ENDBRANCH   6   7
BRANCH   3  10
HETATM   10  O1  UNL     1       1.172  -7.931 -15.064  1.00  0.00    -0.361 OA
HETATM   11  H7  UNL     1       0.459  -8.549 -14.838  1.00  0.00     0.217 HD
ENDBRANCH   3  10
TORSDOF 2
ENDMDL
MODEL 14
REMARK VINA RESULT:      -2.5     12.767     13.281
REMARK  2 active torsions:
REMARK  status: ('A' for Active; 'I' for Inactive)
REMARK    1  A    between atoms: C3_3  and  O1_8 
REMARK    2  A    between atoms: C6_6  and  N1_7 
ROOT
HETATM    1  C1  UNL     1       1.515  -9.038 -17.267  1.00  0.00     0.026 A 
HETATM    2  C2  UNL     1       2.376  -9.622 -18.199  1.00  0.00     0.038 A 
HETATM    3  C3  UNL     1       3.730  -9.730 -17.911  1.00  0.00     0.065 A 
HETATM    4  C4  UNL     1       4.233  -9.277 -16.697  1.00  0.00     0.038 A 
HETATM    5  C5  UNL     1       3.365  -8.693 -15.770  1.00  0.00     0.026 A 
HETATM    6  C6  UNL     1       2.009  -8.522 -16.065  1.00  0.00     0.005 A 
ENDROOT
BRANCH   6   7
HETATM    7  N1  UNL     1       1.129  -8.047 -15.087  1.00  0.00    -0.303 NA
HETATM    8  H5  UNL     1       1.374  -8.332 -14.144  1.00  0.00     0.124 HD
HETATM    9  H6  UNL     1       0.151  -8.214 -15.298  1.00  0.00     0.124 HD
ENDBRANCH   6   7
BRANCH   3  10
HETATM   10  O1  UNL     1       4.537 -10.307 -18.845  1.00  0.00    -0.361 OA
HETATM   11  H7  UNL     1       5.354 -10.599 -18.410  1.00  0.00     0.217 HD
ENDBRANCH   3  10
TORSDOF 2
ENDMDL
MODEL 15
REMARK VINA RESULT:      -2.5      3.548      4.290
REMARK  2 active torsions:
REMARK  status: ('A' for Active; 'I' for Inactive)
REMARK    1  A    between atoms: C3_3  and  O1_8 
REMARK    2  A    between atoms: C6_6  and  N1_7 
ROOT
HETATM    1  C1  UNL     1       1.672   2.920 -20.757  1.00  0.00     0.026 A 
HETATM    2  C2  UNL     1       2.114   2.701 -22.063  1.00  0.00     0.038 A 
HETATM    3  C3  UNL     1       1.363   1.908 -22.919  1.00  0.00     0.065 A 
HETATM    4  C4  UNL     1       0.167   1.342 -22.493  1.00  0.00     0.038 A 
HETATM    5  C5  UNL     1      -0.268   1.564 -21.183  1.00  0.00     0.026 A 
HETATM    6  C6  UNL     1       0.503   2.312 -20.288  1.00  0.00     0.005 A 
ENDROOT
BRANCH   6   7
HETATM    7  N1  UNL     1       0.004   2.627 -19.020  1.00  0.00    -0.303 NA
HETATM    8  H5  UNL     1      -0.690   3.368 -19.027  1.00  0.00     0.124 HD
HETATM    9  H6  UNL     1       0.723   2.779 -18.321  1.00  0.00     0.124 HD
ENDBRANCH   6   7
BRANCH   3  10
HETATM   10  O1  UNL     1       1.826   1.721 -24.187  1.00  0.00    -0.361 OA
HETATM   11  H7  UNL     1       1.789   2.568 -24.659  1.00  0.00     0.217 HD
ENDBRANCH   3  10
TORSDOF 2
ENDMDL
MODEL 16
REMARK VINA RESULT:      -2.4      3.135      3.992
REMARK  2 active torsions:
REMARK  status: ('A' for Active; 'I' for Inactive)
REMARK    1  A    between atoms: C3_3  and  O1_8 
REMARK    2  A    between atoms: C6_6  and  N1_7 
ROOT
HETATM    1  C1  UNL     1      -1.430   1.287 -19.657  1.00  0.00     0.026 A 
HETATM    2  C2  UNL     1      -0.270   1.844 -20.200  1.00  0.00     0.038 A 
HETATM    3  C3  UNL     1       0.261   1.322 -21.370  1.00  0.00     0.065 A 
HETATM    4  C4  UNL     1      -0.359   0.258 -22.016  1.00  0.00     0.038 A 
HETATM    5  C5  UNL     1      -1.519  -0.295 -21.466  1.00  0.00     0.026 A 
HETATM    6  C6  UNL     1      -2.037   0.179 -20.257  1.00  0.00     0.005 A 
ENDROOT
BRANCH   6   7
HETATM    7  N1  UNL     1      -3.261  -0.300 -19.778  1.00  0.00    -0.303 NA
HETATM    8  H5  UNL     1      -4.051  -0.069 -20.373  1.00  0.00     0.124 HD
HETATM    9  H6  UNL     1      -3.435  -0.081 -18.803  1.00  0.00     0.124 HD
ENDBRANCH   6   7
BRANCH   3  10
HETATM   10  O1  UNL     1       1.392   1.895 -21.869  1.00  0.00    -0.361 OA
HETATM   11  H7  UNL     1       2.158   1.372 -21.581  1.00  0.00     0.217 HD
ENDBRANCH   3  10
TORSDOF 2
ENDMDL
MODEL 17
REMARK VINA RESULT:      -2.4      8.595      8.970
REMARK  2 active torsions:
REMARK  status: ('A' for Active; 'I' for Inactive)
REMARK    1  A    between atoms: C3_3  and  O1_8 
REMARK    2  A    between atoms: C6_6  and  N1_7 
ROOT
HETATM    1  C1  UNL     1       5.578  -1.343 -24.023  1.00  0.00     0.026 A 
HETATM    2  C2  UNL     1       5.536  -0.227 -24.862  1.00  0.00     0.038 A 
HETATM    3  C3  UNL     1       4.412   0.004 -25.643  1.00  0.00     0.065 A 
HETATM    4  C4  UNL     1       3.321  -0.856 -25.586  1.00  0.00     0.038 A 
HETATM    5  C5  UNL     1       3.371  -1.972 -24.744  1.00  0.00     0.026 A 
HETATM    6  C6  UNL     1       4.517  -2.253 -23.994  1.00  0.00     0.005 A 
ENDROOT
BRANCH   6   7
HETATM    7  N1  UNL     1       4.513  -3.302 -23.067  1.00  0.00    -0.303 NA
HETATM    8  H5  UNL     1       5.206  -4.019 -23.259  1.00  0.00     0.124 HD
HETATM    9  H6  UNL     1       3.592  -3.691 -22.892  1.00  0.00     0.124 HD
ENDBRANCH   6   7
BRANCH   3  10
HETATM   10  O1  UNL     1       4.408   1.104 -26.447  1.00  0.00    -0.361 OA
HETATM   11  H7  UNL     1       3.598   1.095 -26.981  1.00  0.00     0.217 HD
ENDBRANCH   3  10
TORSDOF 2
ENDMDL
MODEL 18
REMARK VINA RESULT:      -2.3      2.545      2.918
REMARK  2 active torsions:
REMARK  status: ('A' for Active; 'I' for Inactive)
REMARK    1  A    between atoms: C3_3  and  O1_8 
REMARK    2  A    between atoms: C6_6  and  N1_7 
ROOT
HETATM    1  C1  UNL     1      -1.182   1.386 -21.469  1.00  0.00     0.026 A 
HETATM    2  C2  UNL     1      -0.524   2.576 -21.784  1.00  0.00     0.038 A 
HETATM    3  C3  UNL     1      -0.025   3.377 -20.767  1.00  0.00     0.065 A 
HETATM    4  C4  UNL     1      -0.160   2.997 -19.436  1.00  0.00     0.038 A 
HETATM    5  C5  UNL     1      -0.821   1.804 -19.128  1.00  0.00     0.026 A 
HETATM    6  C6  UNL     1      -1.382   1.014 -20.136  1.00  0.00     0.005 A 
ENDROOT
BRANCH   6   7
HETATM    7  N1  UNL     1      -1.935  -0.234 -19.827  1.00  0.00    -0.303 NA
HETATM    8  H5  UNL     1      -1.316  -0.833 -19.290  1.00  0.00     0.124 HD
HETATM    9  H6  UNL     1      -2.340  -0.712 -20.625  1.00  0.00     0.124 HD
ENDBRANCH   6   7
BRANCH   3  10
HETATM   10  O1  UNL     1       0.613   4.529 -21.116  1.00  0.00    -0.361 OA
HETATM   11  H7  UNL     1       0.584   5.140 -20.362  1.00  0.00     0.217 HD
ENDBRANCH   3  10
TORSDOF 2
ENDMDL
MODEL 19
REMARK VINA RESULT:      -2.3      3.050      3.396
REMARK  2 active torsions:
REMARK  status: ('A' for Active; 'I' for Inactive)
REMARK    1  A    between atoms: C3_3  and  O1_8 
REMARK    2  A    between atoms: C6_6  and  N1_7 
ROOT
HETATM    1  C1  UNL     1       0.444   1.788 -22.577  1.00  0.00     0.026 A 
HETATM    2  C2  UNL     1      -0.038   1.220 -21.395  1.00  0.00     0.038 A 
HETATM    3  C3  UNL     1      -0.072   1.977 -20.233  1.00  0.00     0.065 A 
HETATM    4  C4  UNL     1       0.354   3.301 -20.237  1.00  0.00     0.038 A 
HETATM    5  C5  UNL     1       0.836   3.862 -21.423  1.00  0.00     0.026 A 
HETATM    6  C6  UNL     1       0.933   3.098 -22.590  1.00  0.00     0.005 A 
ENDROOT
BRANCH   6   7
HETATM    7  N1  UNL     1       1.304   3.700 -23.798  1.00  0.00    -0.303 NA
HETATM    8  H5  UNL     1       2.090   4.337 -23.712  1.00  0.00     0.124 HD
HETATM    9  H6  UNL     1       0.528   4.110 -24.307  1.00  0.00     0.124 HD
ENDBRANCH   6   7
BRANCH   3  10
HETATM   10  O1  UNL     1      -0.552   1.388 -19.101  1.00  0.00    -0.361 OA
HETATM   11  H7  UNL     1       0.195   1.191 -18.514  1.00  0.00     0.217 HD
ENDBRANCH   3  10
TORSDOF 2
ENDMDL
MODEL 20
REMARK VINA RESULT:      -2.3      3.692      4.147
REMARK  2 active torsions:
REMARK  status: ('A' for Active; 'I' for Inactive)
REMARK    1  A    between atoms: C3_3  and  O1_8 
REMARK    2  A    between atoms: C6_6  and  N1_7 
ROOT
HETATM    1  C1  UNL     1      -0.752   2.637 -21.720  1.00  0.00     0.026 A 
HETATM    2  C2  UNL     1       0.199   1.940 -22.468  1.00  0.00     0.038 A 
HETATM    3  C3  UNL     1       1.532   2.318 -22.410  1.00  0.00     0.065 A 
HETATM    4  C4  UNL     1       1.933   3.375 -21.600  1.00  0.00     0.038 A 
HETATM    5  C5  UNL     1       0.976   4.070 -20.855  1.00  0.00     0.026 A 
HETATM    6  C6  UNL     1      -0.380   3.741 -20.946  1.00  0.00     0.005 A 
ENDROOT
BRANCH   6   7
HETATM    7  N1  UNL     1      -1.314   4.362 -20.108  1.00  0.00    -0.303 NA
HETATM    8  H5  UNL     1      -1.042   5.295 -19.816  1.00  0.00     0.124 HD
HETATM    9  H6  UNL     1      -1.613   3.785 -19.329  1.00  0.00     0.124 HD
ENDBRANCH   6   7
BRANCH   3  10
HETATM   10  O1  UNL     1       2.430   1.611 -23.152  1.00  0.00    -0.361 OA
HETATM   11  H7  UNL     1       2.824   0.925 -22.591  1.00  0.00     0.217 HD
ENDBRANCH   3  10
TORSDOF 2
ENDMDL
