MODEL 1
REMARK VINA RESULT:      -3.1      0.000      0.000
REMARK  2 active torsions:
REMARK  status: ('A' for Active; 'I' for Inactive)
REMARK    1  A    between atoms: C3_3  and  O1_8 
REMARK    2  A    between atoms: C6_6  and  N1_7 
ROOT
HETATM    1  C1  UNL     1      16.760   4.400 -15.980  1.00  0.00     0.026 A 
HETATM    2  C2  UNL     1      17.674   4.472 -14.926  1.00  0.00     0.038 A 
HETATM    3  C3  UNL     1      17.473   5.387 -13.903  1.00  0.00     0.065 A 
HETATM    4  C4  UNL     1      16.361   6.222 -13.908  1.00  0.00     0.038 A 
HETATM    5  C5  UNL     1      15.451   6.145 -14.966  1.00  0.00     0.026 A 
HETATM    6  C6  UNL     1      15.668   5.270 -16.036  1.00  0.00     0.005 A 
ENDROOT
BRANCH   6   7
HETATM    7  N1  UNL     1      14.693   5.116 -17.029  1.00  0.00    -0.303 NA
HETATM    8  H5  UNL     1      14.580   4.157 -17.343  1.00  0.00     0.124 HD
HETATM    9  H6  UNL     1      14.787   5.767 -17.801  1.00  0.00     0.124 HD
ENDBRANCH   6   7
BRANCH   3  10
HETATM   10  O1  UNL     1      18.386   5.424 -12.891  1.00  0.00    -0.361 OA
HETATM   11  H7  UNL     1      19.264   5.240 -13.260  1.00  0.00     0.217 HD
ENDBRANCH   3  10
TORSDOF 2
ENDMDL
MODEL 2
REMARK VINA RESULT:      -3.1      2.778      3.262
REMARK  2 active torsions:
REMARK  status: ('A' for Active; 'I' for Inactive)
REMARK    1  A    between atoms: C3_3  and  O1_8 
REMARK    2  A    between atoms: C6_6  and  N1_7 
ROOT
HETATM    1  C1  UNL     1      17.634   4.452 -15.066  1.00  0.00     0.026 A 
HETATM    2  C2  UNL     1      16.648   4.424 -16.055  1.00  0.00     0.038 A 
HETATM    3  C3  UNL     1      15.554   5.271 -15.959  1.00  0.00     0.065 A 
HETATM    4  C4  UNL     1      15.437   6.160 -14.895  1.00  0.00     0.038 A 
HETATM    5  C5  UNL     1      16.427   6.181 -13.909  1.00  0.00     0.026 A 
HETATM    6  C6  UNL     1      17.507   5.294 -13.957  1.00  0.00     0.005 A 
ENDROOT
BRANCH   6   7
HETATM    7  N1  UNL     1      18.552   5.404 -13.032  1.00  0.00    -0.303 NA
HETATM    8  H5  UNL     1      18.238   5.472 -12.069  1.00  0.00     0.124 HD
HETATM    9  H6  UNL     1      19.235   6.116 -13.267  1.00  0.00     0.124 HD
ENDBRANCH   6   7
BRANCH   3  10
HETATM   10  O1  UNL     1      14.615   5.216 -16.945  1.00  0.00    -0.361 OA
HETATM   11  H7  UNL     1      14.846   5.865 -17.629  1.00  0.00     0.217 HD
ENDBRANCH   3  10
TORSDOF 2
ENDMDL
MODEL 3
REMARK VINA RESULT:      -2.8     14.033     14.728
REMARK  2 active torsions:
REMARK  status: ('A' for Active; 'I' for Inactive)
REMARK    1  A    between atoms: C3_3  and  O1_8 
REMARK    2  A    between atoms: C6_6  and  N1_7 
ROOT
HETATM    1  C1  UNL     1       7.390   1.864 -25.476  1.00  0.00     0.026 A 
HETATM    2  C2  UNL     1       6.103   1.353 -25.291  1.00  0.00     0.038 A 
HETATM    3  C3  UNL     1       5.933   0.134 -24.650  1.00  0.00     0.065 A 
HETATM    4  C4  UNL     1       7.030  -0.576 -24.176  1.00  0.00     0.038 A 
HETATM    5  C5  UNL     1       8.315  -0.059 -24.366  1.00  0.00     0.026 A 
HETATM    6  C6  UNL     1       8.511   1.139 -25.061  1.00  0.00     0.005 A 
ENDROOT
BRANCH   6   7
HETATM    7  N1  UNL     1       9.788   1.707 -25.141  1.00  0.00    -0.303 NA
HETATM    8  H5  UNL     1       9.780   2.719 -25.221  1.00  0.00     0.124 HD
HETATM    9  H6  UNL     1      10.388   1.270 -25.832  1.00  0.00     0.124 HD
ENDBRANCH   6   7
BRANCH   3  10
HETATM   10  O1  UNL     1       4.662  -0.329 -24.486  1.00  0.00    -0.361 OA
HETATM   11  H7  UNL     1       4.626  -1.250 -24.791  1.00  0.00     0.217 HD
ENDBRANCH   3  10
TORSDOF 2
ENDMDL
MODEL 4
REMARK VINA RESULT:      -2.8     13.564     14.225
REMARK  2 active torsions:
REMARK  status: ('A' for Active; 'I' for Inactive)
REMARK    1  A    between atoms: C3_3  and  O1_8 
REMARK    2  A    between atoms: C6_6  and  N1_7 
ROOT
HETATM    1  C1  UNL     1       6.575  -0.380 -23.938  1.00  0.00     0.026 A 
HETATM    2  C2  UNL     1       7.964  -0.487 -23.835  1.00  0.00     0.038 A 
HETATM    3  C3  UNL     1       8.775   0.425 -24.495  1.00  0.00     0.065 A 
HETATM    4  C4  UNL     1       8.217   1.454 -25.246  1.00  0.00     0.038 A 
HETATM    5  C5  UNL     1       6.826   1.554 -25.346  1.00  0.00     0.026 A 
HETATM    6  C6  UNL     1       5.994   0.610 -24.736  1.00  0.00     0.005 A 
ENDROOT
BRANCH   6   7
HETATM    7  N1  UNL     1       4.605   0.786 -24.743  1.00  0.00    -0.303 NA
HETATM    8  H5  UNL     1       4.127   0.233 -25.447  1.00  0.00     0.124 HD
HETATM    9  H6  UNL     1       4.315   1.758 -24.752  1.00  0.00     0.124 HD
ENDBRANCH   6   7
BRANCH   3  10
HETATM   10  O1  UNL     1      10.124   0.289 -24.367  1.00  0.00    -0.361 OA
HETATM   11  H7  UNL     1      10.311  -0.190 -23.543  1.00  0.00     0.217 HD
ENDBRANCH   3  10
TORSDOF 2
ENDMDL
MODEL 5
REMARK VINA RESULT:      -2.8      6.883      7.668
REMARK  2 active torsions:
REMARK  status: ('A' for Active; 'I' for Inactive)
REMARK    1  A    between atoms: C3_3  and  O1_8 
REMARK    2  A    between atoms: C6_6  and  N1_7 
ROOT
HETATM    1  C1  UNL     1      17.117  -0.594 -18.796  1.00  0.00     0.026 A 
HETATM    2  C2  UNL     1      16.822  -0.569 -17.431  1.00  0.00     0.038 A 
HETATM    3  C3  UNL     1      15.719  -1.263 -16.953  1.00  0.00     0.065 A 
HETATM    4  C4  UNL     1      14.915  -1.997 -17.818  1.00  0.00     0.038 A 
HETATM    5  C5  UNL     1      15.216  -2.017 -19.183  1.00  0.00     0.026 A 
HETATM    6  C6  UNL     1      16.288  -1.276 -19.692  1.00  0.00     0.005 A 
ENDROOT
BRANCH   6   7
HETATM    7  N1  UNL     1      16.652  -1.397 -21.038  1.00  0.00    -0.303 NA
HETATM    8  H5  UNL     1      16.207  -2.177 -21.512  1.00  0.00     0.124 HD
HETATM    9  H6  UNL     1      17.653  -1.369 -21.196  1.00  0.00     0.124 HD
ENDBRANCH   6   7
BRANCH   3  10
HETATM   10  O1  UNL     1      15.467  -1.216 -15.615  1.00  0.00    -0.361 OA
HETATM   11  H7  UNL     1      15.105  -2.072 -15.337  1.00  0.00     0.217 HD
ENDBRANCH   3  10
TORSDOF 2
ENDMDL
MODEL 6
REMARK VINA RESULT:      -2.8     13.811     14.499
REMARK  2 active torsions:
REMARK  status: ('A' for Active; 'I' for Inactive)
REMARK    1  A    between atoms: C3_3  and  O1_8 
REMARK    2  A    between atoms: C6_6  and  N1_7 
ROOT
HETATM    1  C1  UNL     1       6.239   1.381 -25.382  1.00  0.00     0.026 A 
HETATM    2  C2  UNL     1       7.556   1.828 -25.509  1.00  0.00     0.038 A 
HETATM    3  C3  UNL     1       8.591   1.086 -24.957  1.00  0.00     0.065 A 
HETATM    4  C4  UNL     1       8.330  -0.108 -24.293  1.00  0.00     0.038 A 
HETATM    5  C5  UNL     1       7.009  -0.548 -24.168  1.00  0.00     0.026 A 
HETATM    6  C6  UNL     1       5.948   0.216 -24.666  1.00  0.00     0.005 A 
ENDROOT
BRANCH   6   7
HETATM    7  N1  UNL     1       4.643  -0.289 -24.642  1.00  0.00    -0.303 NA
HETATM    8  H5  UNL     1       4.211  -0.347 -25.558  1.00  0.00     0.124 HD
HETATM    9  H6  UNL     1       4.042   0.159 -23.958  1.00  0.00     0.124 HD
ENDBRANCH   6   7
BRANCH   3  10
HETATM   10  O1  UNL     1       9.862   1.554 -25.105  1.00  0.00    -0.361 OA
HETATM   11  H7  UNL     1      10.023   1.721 -26.048  1.00  0.00     0.217 HD
ENDBRANCH   3  10
TORSDOF 2
ENDMDL
MODEL 7
REMARK VINA RESULT:      -2.8      3.053      3.569
REMARK  2 active torsions:
REMARK  status: ('A' for Active; 'I' for Inactive)
REMARK    1  A    between atoms: C3_3  and  O1_8 
REMARK    2  A    between atoms: C6_6  and  N1_7 
ROOT
HETATM    1  C1  UNL     1      17.092   7.647 -16.429  1.00  0.00     0.026 A 
HETATM    2  C2  UNL     1      16.160   6.703 -16.865  1.00  0.00     0.038 A 
HETATM    3  C3  UNL     1      15.616   5.804 -15.959  1.00  0.00     0.065 A 
HETATM    4  C4  UNL     1      15.978   5.845 -14.617  1.00  0.00     0.038 A 
HETATM    5  C5  UNL     1      16.913   6.792 -14.188  1.00  0.00     0.026 A 
HETATM    6  C6  UNL     1      17.515   7.668 -15.097  1.00  0.00     0.005 A 
ENDROOT
BRANCH   6   7
HETATM    7  N1  UNL     1      18.358   8.688 -14.640  1.00  0.00    -0.303 NA
HETATM    8  H5  UNL     1      17.871   9.552 -14.422  1.00  0.00     0.124 HD
HETATM    9  H6  UNL     1      19.173   8.840 -15.224  1.00  0.00     0.124 HD
ENDBRANCH   6   7
BRANCH   3  10
HETATM   10  O1  UNL     1      14.708   4.900 -16.423  1.00  0.00    -0.361 OA
HETATM   11  H7  UNL     1      14.616   4.190 -15.769  1.00  0.00     0.217 HD
ENDBRANCH   3  10
TORSDOF 2
ENDMDL
MODEL 8
REMARK VINA RESULT:      -2.6     14.626     15.521
REMARK  2 active torsions:
REMARK  status: ('A' for Active; 'I' for Inactive)
REMARK    1  A    between atoms: C3_3  and  O1_8 
REMARK    2  A    between atoms: C6_6  and  N1_7 
ROOT
HETATM    1  C1  UNL     1       6.981  -1.663 -26.260  1.00  0.00     0.026 A 
HETATM    2  C2  UNL     1       7.756  -1.599 -25.100  1.00  0.00     0.038 A 
HETATM    3  C3  UNL     1       7.447  -0.668 -24.118  1.00  0.00     0.065 A 
HETATM    4  C4  UNL     1       6.365   0.191 -24.272  1.00  0.00     0.038 A 
HETATM    5  C5  UNL     1       5.595   0.122 -25.437  1.00  0.00     0.026 A 
HETATM    6  C6  UNL     1       5.925  -0.769 -26.463  1.00  0.00     0.005 A 
ENDROOT
BRANCH   6   7
HETATM    7  N1  UNL     1       5.081  -0.914 -27.570  1.00  0.00    -0.303 NA
HETATM    8  H5  UNL     1       5.394  -0.404 -28.390  1.00  0.00     0.124 HD
HETATM    9  H6  UNL     1       4.102  -0.750 -27.363  1.00  0.00     0.124 HD
ENDBRANCH   6   7
BRANCH   3  10
HETATM   10  O1  UNL     1       8.225  -0.639 -22.999  1.00  0.00    -0.361 OA
HETATM   11  H7  UNL     1       8.339  -1.547 -22.678  1.00  0.00     0.217 HD
ENDBRANCH   3  10
TORSDOF 2
ENDMDL
MODEL 9
REMARK VINA RESULT:      -2.5     14.874     15.349
REMARK  2 active torsions:
REMARK  status: ('A' for Active; 'I' for Inactive)
REMARK    1  A    between atoms: C3_3  and  O1_8 
REMARK    2  A    between atoms: C6_6  and  N1_7 
ROOT
HETATM    1  C1  UNL     1       6.322  14.146 -20.476  1.00  0.00     0.026 A 
HETATM    2  C2  UNL     1       5.158  13.468 -20.846  1.00  0.00     0.038 A 
HETATM    3  C3  UNL     1       4.100  13.380 -19.952  1.00  0.00     0.065 A 
HETATM    4  C4  UNL     1       4.182  13.975 -18.698  1.00  0.00     0.038 A 
HETATM    5  C5  UNL     1       5.350  14.651 -18.335  1.00  0.00     0.026 A 
HETATM    6  C6  UNL     1       6.449  14.700 -19.199  1.00  0.00     0.005 A 
ENDROOT
BRANCH   6   7
HETATM    7  N1  UNL     1       7.566  15.478 -18.876  1.00  0.00    -0.303 NA
HETATM    8  H5  UNL     1       7.621  15.724 -17.892  1.00  0.00     0.124 HD
HETATM    9  H6  UNL     1       7.696  16.281 -19.482  1.00  0.00     0.124 HD
ENDBRANCH   6   7
BRANCH   3  10
HETATM   10  O1  UNL     1       2.981  12.712 -20.350  1.00  0.00    -0.361 OA
HETATM   11  H7  UNL     1       3.232  12.064 -21.028  1.00  0.00     0.217 HD
ENDBRANCH   3  10
TORSDOF 2
ENDMDL
MODEL 10
REMARK VINA RESULT:      -2.5     14.722     15.713
REMARK  2 active torsions:
REMARK  status: ('A' for Active; 'I' for Inactive)
REMARK    1  A    between atoms: C3_3  and  O1_8 
REMARK    2  A    between atoms: C6_6  and  N1_7 
ROOT
HETATM    1  C1  UNL     1       6.085   0.249 -24.028  1.00  0.00     0.026 A 
HETATM    2  C2  UNL     1       7.252  -0.516 -24.092  1.00  0.00     0.038 A 
HETATM    3  C3  UNL     1       7.508  -1.286 -25.218  1.00  0.00     0.065 A 
HETATM    4  C4  UNL     1       6.622  -1.290 -26.290  1.00  0.00     0.038 A 
HETATM    5  C5  UNL     1       5.456  -0.522 -26.217  1.00  0.00     0.026 A 
HETATM    6  C6  UNL     1       5.152   0.214 -25.068  1.00  0.00     0.005 A 
ENDROOT
BRANCH   6   7
HETATM    7  N1  UNL     1       4.045   1.071 -25.052  1.00  0.00    -0.303 NA
HETATM    8  H5  UNL     1       3.231   0.678 -24.589  1.00  0.00     0.124 HD
HETATM    9  H6  UNL     1       3.820   1.467 -25.958  1.00  0.00     0.124 HD
ENDBRANCH   6   7
BRANCH   3  10
HETATM   10  O1  UNL     1       8.658  -2.017 -25.243  1.00  0.00    -0.361 OA
HETATM   11  H7  UNL     1       9.224  -1.679 -25.956  1.00  0.00     0.217 HD
ENDBRANCH   3  10
TORSDOF 2
ENDMDL
MODEL 11
REMARK VINA RESULT:      -2.5     13.146     13.913
REMARK  2 active torsions:
REMARK  status: ('A' for Active; 'I' for Inactive)
REMARK    1  A    between atoms: C3_3  and  O1_8 
REMARK    2  A    between atoms: C6_6  and  N1_7 
ROOT
HETATM    1  C1  UNL     1       6.045  13.289 -21.395  1.00  0.00     0.026 A 
HETATM    2  C2  UNL     1       6.006  14.175 -20.316  1.00  0.00     0.038 A 
HETATM    3  C3  UNL     1       7.172  14.465 -19.622  1.00  0.00     0.065 A 
HETATM    4  C4  UNL     1       8.382  13.895 -20.001  1.00  0.00     0.038 A 
HETATM    5  C5  UNL     1       8.413  13.008 -21.081  1.00  0.00     0.026 A 
HETATM    6  C6  UNL     1       7.239  12.658 -21.756  1.00  0.00     0.005 A 
ENDROOT
BRANCH   6   7
HETATM    7  N1  UNL     1       7.298  11.865 -22.908  1.00  0.00    -0.303 NA
HETATM    8  H5  UNL     1       6.428  11.839 -23.430  1.00  0.00     0.124 HD
HETATM    9  H6  UNL     1       7.681  10.939 -22.749  1.00  0.00     0.124 HD
ENDBRANCH   6   7
BRANCH   3  10
HETATM   10  O1  UNL     1       7.092  15.336 -18.577  1.00  0.00    -0.361 OA
HETATM   11  H7  UNL     1       7.419  14.892 -17.778  1.00  0.00     0.217 HD
ENDBRANCH   3  10
TORSDOF 2
ENDMDL
MODEL 12
REMARK VINA RESULT:      -2.5      1.733      2.260
REMARK  2 active torsions:
REMARK  status: ('A' for Active; 'I' for Inactive)
REMARK    1  A    between atoms: C3_3  and  O1_8 
REMARK    2  A    between atoms: C6_6  and  N1_7 
ROOT
HETATM    1  C1  UNL     1      16.153   7.251 -17.288  1.00  0.00     0.026 A 
HETATM    2  C2  UNL     1      16.789   7.673 -16.118  1.00  0.00     0.038 A 
HETATM    3  C3  UNL     1      16.783   6.854 -14.998  1.00  0.00     0.065 A 
HETATM    4  C4  UNL     1      16.165   5.609 -15.035  1.00  0.00     0.038 A 
HETATM    5  C5  UNL     1      15.530   5.193 -16.208  1.00  0.00     0.026 A 
HETATM    6  C6  UNL     1      15.474   6.029 -17.328  1.00  0.00     0.005 A 
ENDROOT
BRANCH   6   7
HETATM    7  N1  UNL     1      14.941   5.558 -18.534  1.00  0.00    -0.303 NA
HETATM    8  H5  UNL     1      15.626   5.110 -19.135  1.00  0.00     0.124 HD
HETATM    9  H6  UNL     1      14.380   6.242 -19.030  1.00  0.00     0.124 HD
ENDBRANCH   6   7
BRANCH   3  10
HETATM   10  O1  UNL     1      17.417   7.301 -13.877  1.00  0.00    -0.361 OA
HETATM   11  H7  UNL     1      16.832   7.926 -13.420  1.00  0.00     0.217 HD
ENDBRANCH   3  10
TORSDOF 2
ENDMDL
MODEL 13
REMARK VINA RESULT:      -2.5      2.380      3.096
REMARK  2 active torsions:
REMARK  status: ('A' for Active; 'I' for Inactive)
REMARK    1  A    between atoms: C3_3  and  O1_8 
REMARK    2  A    between atoms: C6_6  and  N1_7 
ROOT
HETATM    1  C1  UNL     1      15.251   4.913 -16.800  1.00  0.00     0.026 A 
HETATM    2  C2  UNL     1      15.974   3.918 -17.460  1.00  0.00     0.038 A 
HETATM    3  C3  UNL     1      17.152   3.439 -16.904  1.00  0.00     0.065 A 
HETATM    4  C4  UNL     1      17.610   3.930 -15.686  1.00  0.00     0.038 A 
HETATM    5  C5  UNL     1      16.881   4.928 -15.032  1.00  0.00     0.026 A 
HETATM    6  C6  UNL     1      15.724   5.464 -15.605  1.00  0.00     0.005 A 
ENDROOT
BRANCH   6   7
HETATM    7  N1  UNL     1      14.939   6.375 -14.889  1.00  0.00    -0.303 NA
HETATM    8  H5  UNL     1      14.226   5.935 -14.315  1.00  0.00     0.124 HD
HETATM    9  H6  UNL     1      14.568   7.131 -15.455  1.00  0.00     0.124 HD
ENDBRANCH   6   7
BRANCH   3  10
HETATM   10  O1  UNL     1      17.827   2.466 -17.577  1.00  0.00    -0.361 OA
HETATM   11  H7  UNL     1      17.190   1.798 -17.878  1.00  0.00     0.217 HD
ENDBRANCH   3  10
TORSDOF 2
ENDMDL
MODEL 14
REMARK VINA RESULT:      -2.4     13.967     14.902
REMARK  2 active torsions:
REMARK  status: ('A' for Active; 'I' for Inactive)
REMARK    1  A    between atoms: C3_3  and  O1_8 
REMARK    2  A    between atoms: C6_6  and  N1_7 
ROOT
HETATM    1  C1  UNL     1       6.802  -0.518 -24.105  1.00  0.00     0.026 A 
HETATM    2  C2  UNL     1       6.335  -0.305 -25.404  1.00  0.00     0.038 A 
HETATM    3  C3  UNL     1       7.194   0.202 -26.369  1.00  0.00     0.065 A 
HETATM    4  C4  UNL     1       8.519   0.485 -26.059  1.00  0.00     0.038 A 
HETATM    5  C5  UNL     1       8.979   0.270 -24.756  1.00  0.00     0.026 A 
HETATM    6  C6  UNL     1       8.114  -0.185 -23.756  1.00  0.00     0.005 A 
ENDROOT
BRANCH   6   7
HETATM    7  N1  UNL     1       8.611  -0.509 -22.488  1.00  0.00    -0.303 NA
HETATM    8  H5  UNL     1       9.312   0.140 -22.147  1.00  0.00     0.124 HD
HETATM    9  H6  UNL     1       8.903  -1.476 -22.397  1.00  0.00     0.124 HD
ENDBRANCH   6   7
BRANCH   3  10
HETATM   10  O1  UNL     1       6.701   0.394 -27.625  1.00  0.00    -0.361 OA
HETATM   11  H7  UNL     1       7.350   0.902 -28.138  1.00  0.00     0.217 HD
ENDBRANCH   3  10
TORSDOF 2
ENDMDL
MODEL 15
REMARK VINA RESULT:      -2.4     12.501     13.465
REMARK  2 active torsions:
REMARK  status: ('A' for Active; 'I' for Inactive)
REMARK    1  A    between atoms: C3_3  and  O1_8 
REMARK    2  A    between atoms: C6_6  and  N1_7 
ROOT
HETATM    1  C1  UNL     1       8.951  13.257 -20.223  1.00  0.00     0.026 A 
HETATM    2  C2  UNL     1       7.820  14.076 -20.187  1.00  0.00     0.038 A 
HETATM    3  C3  UNL     1       6.740  13.794 -21.011  1.00  0.00     0.065 A 
HETATM    4  C4  UNL     1       6.766  12.693 -21.860  1.00  0.00     0.038 A 
HETATM    5  C5  UNL     1       7.901  11.878 -21.891  1.00  0.00     0.026 A 
HETATM    6  C6  UNL     1       9.023  12.180 -21.112  1.00  0.00     0.005 A 
ENDROOT
BRANCH   6   7
HETATM    7  N1  UNL     1      10.105  11.294 -21.061  1.00  0.00    -0.303 NA
HETATM    8  H5  UNL     1      10.098  10.598 -21.800  1.00  0.00     0.124 HD
HETATM    9  H6  UNL     1      10.257  10.884 -20.146  1.00  0.00     0.124 HD
ENDBRANCH   6   7
BRANCH   3  10
HETATM   10  O1  UNL     1       5.654  14.615 -20.945  1.00  0.00    -0.361 OA
HETATM   11  H7  UNL     1       5.883  15.387 -20.403  1.00  0.00     0.217 HD
ENDBRANCH   3  10
TORSDOF 2
ENDMDL
MODEL 16
REMARK VINA RESULT:      -2.4     12.281     13.162
REMARK  2 active torsions:
REMARK  status: ('A' for Active; 'I' for Inactive)
REMARK    1  A    between atoms: C3_3  and  O1_8 
REMARK    2  A    between atoms: C6_6  and  N1_7 
ROOT
HETATM    1  C1  UNL     1       6.869  12.495 -21.947  1.00  0.00     0.026 A 
HETATM    2  C2  UNL     1       8.039  11.733 -21.892  1.00  0.00     0.038 A 
HETATM    3  C3  UNL     1       9.074  12.122 -21.054  1.00  0.00     0.065 A 
HETATM    4  C4  UNL     1       8.952  13.255 -20.257  1.00  0.00     0.038 A 
HETATM    5  C5  UNL     1       7.779  14.013 -20.318  1.00  0.00     0.026 A 
HETATM    6  C6  UNL     1       6.749  13.670 -21.198  1.00  0.00     0.005 A 
ENDROOT
BRANCH   6   7
HETATM    7  N1  UNL     1       5.534  14.364 -21.166  1.00  0.00    -0.303 NA
HETATM    8  H5  UNL     1       5.261  14.665 -20.236  1.00  0.00     0.124 HD
HETATM    9  H6  UNL     1       4.780  13.895 -21.657  1.00  0.00     0.124 HD
ENDBRANCH   6   7
BRANCH   3  10
HETATM   10  O1  UNL     1      10.198  11.351 -21.028  1.00  0.00    -0.361 OA
HETATM   11  H7  UNL     1       9.953  10.457 -20.742  1.00  0.00     0.217 HD
ENDBRANCH   3  10
TORSDOF 2
ENDMDL
MODEL 17
REMARK VINA RESULT:      -2.3      7.345      7.560
REMARK  2 active torsions:
REMARK  status: ('A' for Active; 'I' for Inactive)
REMARK    1  A    between atoms: C3_3  and  O1_8 
REMARK    2  A    between atoms: C6_6  and  N1_7 
ROOT
HETATM    1  C1  UNL     1      15.957  12.020 -19.303  1.00  0.00     0.026 A 
HETATM    2  C2  UNL     1      16.886  12.092 -18.263  1.00  0.00     0.038 A 
HETATM    3  C3  UNL     1      16.444  12.199 -16.952  1.00  0.00     0.065 A 
HETATM    4  C4  UNL     1      15.084  12.219 -16.663  1.00  0.00     0.038 A 
HETATM    5  C5  UNL     1      14.160  12.148 -17.710  1.00  0.00     0.026 A 
HETATM    6  C6  UNL     1      14.586  12.099 -19.041  1.00  0.00     0.005 A 
ENDROOT
BRANCH   6   7
HETATM    7  N1  UNL     1      13.659  11.908 -20.071  1.00  0.00    -0.303 NA
HETATM    8  H5  UNL     1      13.153  11.030 -20.008  1.00  0.00     0.124 HD
HETATM    9  H6  UNL     1      14.037  12.070 -20.999  1.00  0.00     0.124 HD
ENDBRANCH   6   7
BRANCH   3  10
HETATM   10  O1  UNL     1      17.381  12.263 -15.965  1.00  0.00    -0.361 OA
HETATM   11  H7  UNL     1      17.532  11.368 -15.621  1.00  0.00     0.217 HD
ENDBRANCH   3  10
TORSDOF 2
ENDMDL
MODEL 18
REMARK VINA RESULT:      -2.3      5.307      6.083
REMARK  2 active torsions:
REMARK  status: ('A' for Active; 'I' for Inactive)
REMARK    1  A    between atoms: C3_3  and  O1_8 
REMARK    2  A    between atoms: C6_6  and  N1_7 
ROOT
HETATM    1  C1  UNL     1      14.655  10.220 -16.918  1.00  0.00     0.026 A 
HETATM    2  C2  UNL     1      15.286   8.974 -16.924  1.00  0.00     0.038 A 
HETATM    3  C3  UNL     1      15.480   8.308 -18.126  1.00  0.00     0.065 A 
HETATM    4  C4  UNL     1      15.068   8.877 -19.326  1.00  0.00     0.038 A 
HETATM    5  C5  UNL     1      14.436  10.124 -19.311  1.00  0.00     0.026 A 
HETATM    6  C6  UNL     1      14.178  10.784 -18.105  1.00  0.00     0.005 A 
ENDROOT
BRANCH   6   7
HETATM    7  N1  UNL     1      13.654  12.082 -18.110  1.00  0.00    -0.303 NA
HETATM    8  H5  UNL     1      14.211  12.745 -18.640  1.00  0.00     0.124 HD
HETATM    9  H6  UNL     1      13.413  12.430 -17.188  1.00  0.00     0.124 HD
ENDBRANCH   6   7
BRANCH   3  10
HETATM   10  O1  UNL     1      16.102   7.096 -18.091  1.00  0.00    -0.361 OA
HETATM   11  H7  UNL     1      15.522   6.439 -18.508  1.00  0.00     0.217 HD
ENDBRANCH   3  10
TORSDOF 2
ENDMDL
MODEL 19
REMARK VINA RESULT:      -2.3      6.412      7.014
REMARK  2 active torsions:
REMARK  status: ('A' for Active; 'I' for Inactive)
REMARK    1  A    between atoms: C3_3  and  O1_8 
REMARK    2  A    between atoms: C6_6  and  N1_7 
ROOT
HETATM    1  C1  UNL     1      16.913  11.406 -17.836  1.00  0.00     0.026 A 
HETATM    2  C2  UNL     1      16.411  10.266 -17.202  1.00  0.00     0.038 A 
HETATM    3  C3  UNL     1      15.040  10.059 -17.145  1.00  0.00     0.065 A 
HETATM    4  C4  UNL     1      14.162  10.967 -17.726  1.00  0.00     0.038 A 
HETATM    5  C5  UNL     1      14.671  12.106 -18.357  1.00  0.00     0.026 A 
HETATM    6  C6  UNL     1      16.046  12.362 -18.374  1.00  0.00     0.005 A 
ENDROOT
BRANCH   6   7
HETATM    7  N1  UNL     1      16.553  13.439 -19.109  1.00  0.00    -0.303 NA
HETATM    8  H5  UNL     1      17.540  13.354 -19.330  1.00  0.00     0.124 HD
HETATM    9  H6  UNL     1      16.321  14.347 -18.719  1.00  0.00     0.124 HD
ENDBRANCH   6   7
BRANCH   3  10
HETATM   10  O1  UNL     1      14.591   8.934 -16.521  1.00  0.00    -0.361 OA
HETATM   11  H7  UNL     1      13.800   8.617 -16.985  1.00  0.00     0.217 HD
ENDBRANCH   3  10
TORSDOF 2
ENDMDL
MODEL 20
REMARK VINA RESULT:      -2.3     14.688     15.225
REMARK  2 active torsions:
REMARK  status: ('A' for Active; 'I' for Inactive)
REMARK    1  A    between atoms: C3_3  and  O1_8 
REMARK    2  A    between atoms: C6_6  and  N1_7 
ROOT
HETATM    1  C1  UNL     1       6.561   0.256 -25.203  1.00  0.00     0.026 A 
HETATM    2  C2  UNL     1       7.432   1.334 -25.375  1.00  0.00     0.038 A 
HETATM    3  C3  UNL     1       6.937   2.630 -25.342  1.00  0.00     0.065 A 
HETATM    4  C4  UNL     1       5.584   2.865 -25.123  1.00  0.00     0.038 A 
HETATM    5  C5  UNL     1       4.718   1.781 -24.954  1.00  0.00     0.026 A 
HETATM    6  C6  UNL     1       5.188   0.467 -25.042  1.00  0.00     0.005 A 
ENDROOT
BRANCH   6   7
HETATM    7  N1  UNL     1       4.339  -0.607 -24.753  1.00  0.00    -0.303 NA
HETATM    8  H5  UNL     1       3.665  -0.803 -25.486  1.00  0.00     0.124 HD
HETATM    9  H6  UNL     1       3.907  -0.553 -23.836  1.00  0.00     0.124 HD
ENDBRANCH   6   7
BRANCH   3  10
HETATM   10  O1  UNL     1       7.819   3.655 -25.511  1.00  0.00    -0.361 OA
HETATM   11  H7  UNL     1       7.368   4.489 -25.302  1.00  0.00     0.217 HD
ENDBRANCH   3  10
TORSDOF 2
ENDMDL
