MODEL 1
REMARK VINA RESULT:      -4.9      0.000      0.000
REMARK  2 active torsions:
REMARK  status: ('A' for Active; 'I' for Inactive)
REMARK    1  A    between atoms: C3_3  and  O1_8 
REMARK    2  A    between atoms: C6_6  and  N1_7 
ROOT
HETATM    1  C1  UNL     1       5.643   0.414  -8.112  1.00  0.00     0.026 A 
HETATM    2  C2  UNL     1       4.896   0.375  -9.291  1.00  0.00     0.038 A 
HETATM    3  C3  UNL     1       5.544   0.246 -10.511  1.00  0.00     0.065 A 
HETATM    4  C4  UNL     1       6.930   0.139 -10.569  1.00  0.00     0.038 A 
HETATM    5  C5  UNL     1       7.670   0.180  -9.384  1.00  0.00     0.026 A 
HETATM    6  C6  UNL     1       7.039   0.369  -8.150  1.00  0.00     0.005 A 
ENDROOT
BRANCH   6   7
HETATM    7  N1  UNL     1       7.776   0.289  -6.963  1.00  0.00    -0.303 NA
HETATM    8  H5  UNL     1       7.296   0.681  -6.158  1.00  0.00     0.124 HD
HETATM    9  H6  UNL     1       8.728   0.628  -7.047  1.00  0.00     0.124 HD
ENDBRANCH   6   7
BRANCH   3  10
HETATM   10  O1  UNL     1       4.781   0.209 -11.639  1.00  0.00    -0.361 OA
HETATM   11  H7  UNL     1       4.304  -0.637 -11.663  1.00  0.00     0.217 HD
ENDBRANCH   3  10
TORSDOF 2
ENDMDL
MODEL 2
REMARK VINA RESULT:      -4.8      2.779      3.264
REMARK  2 active torsions:
REMARK  status: ('A' for Active; 'I' for Inactive)
REMARK    1  A    between atoms: C3_3  and  O1_8 
REMARK    2  A    between atoms: C6_6  and  N1_7 
ROOT
HETATM    1  C1  UNL     1       4.919   0.390  -9.229  1.00  0.00     0.026 A 
HETATM    2  C2  UNL     1       5.620   0.415  -8.021  1.00  0.00     0.038 A 
HETATM    3  C3  UNL     1       7.005   0.323  -8.027  1.00  0.00     0.065 A 
HETATM    4  C4  UNL     1       7.702   0.224  -9.226  1.00  0.00     0.038 A 
HETATM    5  C5  UNL     1       6.994   0.198 -10.431  1.00  0.00     0.026 A 
HETATM    6  C6  UNL     1       5.596   0.230 -10.442  1.00  0.00     0.005 A 
ENDROOT
BRANCH   6   7
HETATM    7  N1  UNL     1       4.902   0.324 -11.654  1.00  0.00    -0.303 NA
HETATM    8  H5  UNL     1       4.043   0.861 -11.592  1.00  0.00     0.124 HD
HETATM    9  H6  UNL     1       4.767  -0.567 -12.120  1.00  0.00     0.124 HD
ENDBRANCH   6   7
BRANCH   3  10
HETATM   10  O1  UNL     1       7.652   0.354  -6.829  1.00  0.00    -0.361 OA
HETATM   11  H7  UNL     1       7.984  -0.537  -6.633  1.00  0.00     0.217 HD
ENDBRANCH   3  10
TORSDOF 2
ENDMDL
MODEL 3
REMARK VINA RESULT:      -4.8      2.782      3.681
REMARK  2 active torsions:
REMARK  status: ('A' for Active; 'I' for Inactive)
REMARK    1  A    between atoms: C3_3  and  O1_8 
REMARK    2  A    between atoms: C6_6  and  N1_7 
ROOT
HETATM    1  C1  UNL     1       7.003   0.311 -10.386  1.00  0.00     0.026 A 
HETATM    2  C2  UNL     1       7.679   0.308  -9.164  1.00  0.00     0.038 A 
HETATM    3  C3  UNL     1       6.959   0.354  -7.979  1.00  0.00     0.065 A 
HETATM    4  C4  UNL     1       5.569   0.386  -7.996  1.00  0.00     0.038 A 
HETATM    5  C5  UNL     1       4.899   0.389  -9.223  1.00  0.00     0.026 A 
HETATM    6  C6  UNL     1       5.608   0.403 -10.428  1.00  0.00     0.005 A 
ENDROOT
BRANCH   6   7
HETATM    7  N1  UNL     1       4.930   0.286 -11.647  1.00  0.00    -0.303 NA
HETATM    8  H5  UNL     1       4.282   1.047 -11.827  1.00  0.00     0.124 HD
HETATM    9  H6  UNL     1       4.508  -0.624 -11.797  1.00  0.00     0.124 HD
ENDBRANCH   6   7
BRANCH   3  10
HETATM   10  O1  UNL     1       7.656   0.346  -6.808  1.00  0.00    -0.361 OA
HETATM   11  H7  UNL     1       8.157  -0.483  -6.751  1.00  0.00     0.217 HD
ENDBRANCH   3  10
TORSDOF 2
ENDMDL
MODEL 4
REMARK VINA RESULT:      -4.5      1.911      2.542
REMARK  2 active torsions:
REMARK  status: ('A' for Active; 'I' for Inactive)
REMARK    1  A    between atoms: C3_3  and  O1_8 
REMARK    2  A    between atoms: C6_6  and  N1_7 
ROOT
HETATM    1  C1  UNL     1       6.860   1.577  -9.663  1.00  0.00     0.026 A 
HETATM    2  C2  UNL     1       5.689   2.321  -9.822  1.00  0.00     0.038 A 
HETATM    3  C3  UNL     1       4.586   2.046  -9.026  1.00  0.00     0.065 A 
HETATM    4  C4  UNL     1       4.642   1.047  -8.060  1.00  0.00     0.038 A 
HETATM    5  C5  UNL     1       5.817   0.305  -7.908  1.00  0.00     0.026 A 
HETATM    6  C6  UNL     1       6.918   0.528  -8.740  1.00  0.00     0.005 A 
ENDROOT
BRANCH   6   7
HETATM    7  N1  UNL     1       8.127  -0.135  -8.502  1.00  0.00    -0.303 NA
HETATM    8  H5  UNL     1       8.013  -1.057  -8.092  1.00  0.00     0.124 HD
HETATM    9  H6  UNL     1       8.813   0.426  -8.006  1.00  0.00     0.124 HD
ENDBRANCH   6   7
BRANCH   3  10
HETATM   10  O1  UNL     1       3.463   2.796  -9.209  1.00  0.00    -0.361 OA
HETATM   11  H7  UNL     1       2.687   2.224  -9.094  1.00  0.00     0.217 HD
ENDBRANCH   3  10
TORSDOF 2
ENDMDL
MODEL 5
REMARK VINA RESULT:      -4.4      3.059      3.879
REMARK  2 active torsions:
REMARK  status: ('A' for Active; 'I' for Inactive)
REMARK    1  A    between atoms: C3_3  and  O1_8 
REMARK    2  A    between atoms: C6_6  and  N1_7 
ROOT
HETATM    1  C1  UNL     1       5.377   1.710 -10.943  1.00  0.00     0.026 A 
HETATM    2  C2  UNL     1       5.480   0.557 -10.162  1.00  0.00     0.038 A 
HETATM    3  C3  UNL     1       4.880   0.517  -8.911  1.00  0.00     0.065 A 
HETATM    4  C4  UNL     1       4.164   1.610  -8.435  1.00  0.00     0.038 A 
HETATM    5  C5  UNL     1       4.067   2.761  -9.221  1.00  0.00     0.026 A 
HETATM    6  C6  UNL     1       4.713   2.842 -10.459  1.00  0.00     0.005 A 
ENDROOT
BRANCH   6   7
HETATM    7  N1  UNL     1       4.512   3.950 -11.289  1.00  0.00    -0.303 NA
HETATM    8  H5  UNL     1       3.569   4.325 -11.246  1.00  0.00     0.124 HD
HETATM    9  H6  UNL     1       4.830   3.812 -12.242  1.00  0.00     0.124 HD
ENDBRANCH   6   7
BRANCH   3  10
HETATM   10  O1  UNL     1       5.001  -0.627  -8.181  1.00  0.00    -0.361 OA
HETATM   11  H7  UNL     1       4.202  -1.163  -8.310  1.00  0.00     0.217 HD
ENDBRANCH   3  10
TORSDOF 2
ENDMDL
MODEL 6
REMARK VINA RESULT:      -4.3      2.563      3.101
REMARK  2 active torsions:
REMARK  status: ('A' for Active; 'I' for Inactive)
REMARK    1  A    between atoms: C3_3  and  O1_8 
REMARK    2  A    between atoms: C6_6  and  N1_7 
ROOT
HETATM    1  C1  UNL     1       6.366   1.873  -9.459  1.00  0.00     0.026 A 
HETATM    2  C2  UNL     1       7.164   0.778  -9.800  1.00  0.00     0.038 A 
HETATM    3  C3  UNL     1       6.830  -0.000 -10.900  1.00  0.00     0.065 A 
HETATM    4  C4  UNL     1       5.718   0.310 -11.675  1.00  0.00     0.038 A 
HETATM    5  C5  UNL     1       4.924   1.406 -11.327  1.00  0.00     0.026 A 
HETATM    6  C6  UNL     1       5.210   2.167 -10.188  1.00  0.00     0.005 A 
ENDROOT
BRANCH   6   7
HETATM    7  N1  UNL     1       4.482   3.330  -9.916  1.00  0.00    -0.303 NA
HETATM    8  H5  UNL     1       3.521   3.295 -10.242  1.00  0.00     0.124 HD
HETATM    9  H6  UNL     1       4.953   4.184 -10.195  1.00  0.00     0.124 HD
ENDBRANCH   6   7
BRANCH   3  10
HETATM   10  O1  UNL     1       7.635  -1.058 -11.202  1.00  0.00    -0.361 OA
HETATM   11  H7  UNL     1       8.000  -1.414 -10.376  1.00  0.00     0.217 HD
ENDBRANCH   3  10
TORSDOF 2
ENDMDL
MODEL 7
REMARK VINA RESULT:      -4.3      2.523      3.018
REMARK  2 active torsions:
REMARK  status: ('A' for Active; 'I' for Inactive)
REMARK    1  A    between atoms: C3_3  and  O1_8 
REMARK    2  A    between atoms: C6_6  and  N1_7 
ROOT
HETATM    1  C1  UNL     1       4.958   1.439 -11.257  1.00  0.00     0.026 A 
HETATM    2  C2  UNL     1       5.742   0.342 -11.621  1.00  0.00     0.038 A 
HETATM    3  C3  UNL     1       6.866   0.021 -10.873  1.00  0.00     0.065 A 
HETATM    4  C4  UNL     1       7.210   0.773  -9.755  1.00  0.00     0.038 A 
HETATM    5  C5  UNL     1       6.422   1.871  -9.398  1.00  0.00     0.026 A 
HETATM    6  C6  UNL     1       5.320   2.245 -10.173  1.00  0.00     0.005 A 
ENDROOT
BRANCH   6   7
HETATM    7  N1  UNL     1       4.470   3.270  -9.742  1.00  0.00    -0.303 NA
HETATM    8  H5  UNL     1       4.517   3.445  -8.743  1.00  0.00     0.124 HD
HETATM    9  H6  UNL     1       3.516   3.179 -10.073  1.00  0.00     0.124 HD
ENDBRANCH   6   7
BRANCH   3  10
HETATM   10  O1  UNL     1       7.602  -1.059 -11.258  1.00  0.00    -0.361 OA
HETATM   11  H7  UNL     1       8.535  -0.795 -11.310  1.00  0.00     0.217 HD
ENDBRANCH   3  10
TORSDOF 2
ENDMDL
MODEL 8
REMARK VINA RESULT:      -4.3      3.044      3.571
REMARK  2 active torsions:
REMARK  status: ('A' for Active; 'I' for Inactive)
REMARK    1  A    between atoms: C3_3  and  O1_8 
REMARK    2  A    between atoms: C6_6  and  N1_7 
ROOT
HETATM    1  C1  UNL     1       5.189   1.059 -10.487  1.00  0.00     0.026 A 
HETATM    2  C2  UNL     1       6.178   0.904  -9.513  1.00  0.00     0.038 A 
HETATM    3  C3  UNL     1       7.283   0.107  -9.775  1.00  0.00     0.065 A 
HETATM    4  C4  UNL     1       7.424  -0.525 -11.006  1.00  0.00     0.038 A 
HETATM    5  C5  UNL     1       6.429  -0.366 -11.976  1.00  0.00     0.026 A 
HETATM    6  C6  UNL     1       5.280   0.385 -11.708  1.00  0.00     0.005 A 
ENDROOT
BRANCH   6   7
HETATM    7  N1  UNL     1       4.350   0.636 -12.724  1.00  0.00    -0.303 NA
HETATM    8  H5  UNL     1       4.770   0.763 -13.639  1.00  0.00     0.124 HD
HETATM    9  H6  UNL     1       3.685   1.368 -12.499  1.00  0.00     0.124 HD
ENDBRANCH   6   7
BRANCH   3  10
HETATM   10  O1  UNL     1       8.227  -0.017  -8.800  1.00  0.00    -0.361 OA
HETATM   11  H7  UNL     1       8.944   0.612  -8.981  1.00  0.00     0.217 HD
ENDBRANCH   3  10
TORSDOF 2
ENDMDL
MODEL 9
REMARK VINA RESULT:      -4.3      1.291      2.192
REMARK  2 active torsions:
REMARK  status: ('A' for Active; 'I' for Inactive)
REMARK    1  A    between atoms: C3_3  and  O1_8 
REMARK    2  A    between atoms: C6_6  and  N1_7 
ROOT
HETATM    1  C1  UNL     1       7.384  -0.528 -11.004  1.00  0.00     0.026 A 
HETATM    2  C2  UNL     1       6.408  -0.341 -11.985  1.00  0.00     0.038 A 
HETATM    3  C3  UNL     1       5.272   0.401 -11.694  1.00  0.00     0.065 A 
HETATM    4  C4  UNL     1       5.104   0.974 -10.438  1.00  0.00     0.038 A 
HETATM    5  C5  UNL     1       6.085   0.781  -9.460  1.00  0.00     0.026 A 
HETATM    6  C6  UNL     1       7.208  -0.012  -9.716  1.00  0.00     0.005 A 
ENDROOT
BRANCH   6   7
HETATM    7  N1  UNL     1       8.238  -0.101  -8.774  1.00  0.00    -0.303 NA
HETATM    8  H5  UNL     1       8.445  -1.052  -8.484  1.00  0.00     0.124 HD
HETATM    9  H6  UNL     1       8.128   0.528  -7.985  1.00  0.00     0.124 HD
ENDBRANCH   6   7
BRANCH   3  10
HETATM   10  O1  UNL     1       4.345   0.563 -12.679  1.00  0.00    -0.361 OA
HETATM   11  H7  UNL     1       4.738   1.093 -13.390  1.00  0.00     0.217 HD
ENDBRANCH   3  10
TORSDOF 2
ENDMDL
MODEL 10
REMARK VINA RESULT:      -4.2      2.496      2.973
REMARK  2 active torsions:
REMARK  status: ('A' for Active; 'I' for Inactive)
REMARK    1  A    between atoms: C3_3  and  O1_8 
REMARK    2  A    between atoms: C6_6  and  N1_7 
ROOT
HETATM    1  C1  UNL     1       5.552   0.477 -11.584  1.00  0.00     0.026 A 
HETATM    2  C2  UNL     1       4.844   1.591 -11.126  1.00  0.00     0.038 A 
HETATM    3  C3  UNL     1       5.298   2.284 -10.013  1.00  0.00     0.065 A 
HETATM    4  C4  UNL     1       6.459   1.890  -9.358  1.00  0.00     0.038 A 
HETATM    5  C5  UNL     1       7.162   0.773  -9.821  1.00  0.00     0.026 A 
HETATM    6  C6  UNL     1       6.689   0.027 -10.905  1.00  0.00     0.005 A 
ENDROOT
BRANCH   6   7
HETATM    7  N1  UNL     1       7.460  -1.015 -11.434  1.00  0.00    -0.303 NA
HETATM    8  H5  UNL     1       8.414  -0.746 -11.652  1.00  0.00     0.124 HD
HETATM    9  H6  UNL     1       7.013  -1.509 -12.199  1.00  0.00     0.124 HD
ENDBRANCH   6   7
BRANCH   3  10
HETATM   10  O1  UNL     1       4.581   3.367  -9.600  1.00  0.00    -0.361 OA
HETATM   11  H7  UNL     1       3.800   3.055  -9.114  1.00  0.00     0.217 HD
ENDBRANCH   3  10
TORSDOF 2
ENDMDL
MODEL 11
REMARK VINA RESULT:      -4.1      4.356      5.445
REMARK  2 active torsions:
REMARK  status: ('A' for Active; 'I' for Inactive)
REMARK    1  A    between atoms: C3_3  and  O1_8 
REMARK    2  A    between atoms: C6_6  and  N1_7 
ROOT
HETATM    1  C1  UNL     1       6.730  -0.263 -13.960  1.00  0.00     0.026 A 
HETATM    2  C2  UNL     1       6.526  -0.161 -12.582  1.00  0.00     0.038 A 
HETATM    3  C3  UNL     1       5.322   0.332 -12.100  1.00  0.00     0.065 A 
HETATM    4  C4  UNL     1       4.310   0.710 -12.976  1.00  0.00     0.038 A 
HETATM    5  C5  UNL     1       4.522   0.606 -14.354  1.00  0.00     0.026 A 
HETATM    6  C6  UNL     1       5.750   0.167 -14.860  1.00  0.00     0.005 A 
ENDROOT
BRANCH   6   7
HETATM    7  N1  UNL     1       5.911  -0.047 -16.233  1.00  0.00    -0.303 NA
HETATM    8  H5  UNL     1       6.287   0.755 -16.730  1.00  0.00     0.124 HD
HETATM    9  H6  UNL     1       5.090  -0.432 -16.688  1.00  0.00     0.124 HD
ENDBRANCH   6   7
BRANCH   3  10
HETATM   10  O1  UNL     1       5.160   0.414 -10.750  1.00  0.00    -0.361 OA
HETATM   11  H7  UNL     1       6.036   0.397 -10.331  1.00  0.00     0.217 HD
ENDBRANCH   3  10
TORSDOF 2
ENDMDL
MODEL 12
REMARK VINA RESULT:      -4.1      1.758      2.207
REMARK  2 active torsions:
REMARK  status: ('A' for Active; 'I' for Inactive)
REMARK    1  A    between atoms: C3_3  and  O1_8 
REMARK    2  A    between atoms: C6_6  and  N1_7 
ROOT
HETATM    1  C1  UNL     1       5.242   0.061 -10.397  1.00  0.00     0.026 A 
HETATM    2  C2  UNL     1       5.845   0.324 -11.629  1.00  0.00     0.038 A 
HETATM    3  C3  UNL     1       7.110   0.892 -11.668  1.00  0.00     0.065 A 
HETATM    4  C4  UNL     1       7.791   1.186 -10.492  1.00  0.00     0.038 A 
HETATM    5  C5  UNL     1       7.181   0.921  -9.262  1.00  0.00     0.026 A 
HETATM    6  C6  UNL     1       5.883   0.404  -9.202  1.00  0.00     0.005 A 
ENDROOT
BRANCH   6   7
HETATM    7  N1  UNL     1       5.329   0.032  -7.972  1.00  0.00    -0.303 NA
HETATM    8  H5  UNL     1       4.462   0.512  -7.753  1.00  0.00     0.124 HD
HETATM    9  H6  UNL     1       5.989   0.055  -7.201  1.00  0.00     0.124 HD
ENDBRANCH   6   7
BRANCH   3  10
HETATM   10  O1  UNL     1       7.665   1.131 -12.890  1.00  0.00    -0.361 OA
HETATM   11  H7  UNL     1       8.590   0.837 -12.873  1.00  0.00     0.217 HD
ENDBRANCH   3  10
TORSDOF 2
ENDMDL
MODEL 13
REMARK VINA RESULT:      -4.1      3.680      4.473
REMARK  2 active torsions:
REMARK  status: ('A' for Active; 'I' for Inactive)
REMARK    1  A    between atoms: C3_3  and  O1_8 
REMARK    2  A    between atoms: C6_6  and  N1_7 
ROOT
HETATM    1  C1  UNL     1       4.310   0.740 -13.031  1.00  0.00     0.026 A 
HETATM    2  C2  UNL     1       4.473   0.626 -14.413  1.00  0.00     0.038 A 
HETATM    3  C3  UNL     1       5.658   0.120 -14.927  1.00  0.00     0.065 A 
HETATM    4  C4  UNL     1       6.680  -0.290 -14.078  1.00  0.00     0.038 A 
HETATM    5  C5  UNL     1       6.510  -0.172 -12.695  1.00  0.00     0.026 A 
HETATM    6  C6  UNL     1       5.347   0.390 -12.160  1.00  0.00     0.005 A 
ENDROOT
BRANCH   6   7
HETATM    7  N1  UNL     1       5.137   0.394 -10.776  1.00  0.00    -0.303 NA
HETATM    8  H5  UNL     1       4.503   1.122 -10.462  1.00  0.00     0.124 HD
HETATM    9  H6  UNL     1       5.993   0.365 -10.232  1.00  0.00     0.124 HD
ENDBRANCH   6   7
BRANCH   3  10
HETATM   10  O1  UNL     1       5.777   0.022 -16.281  1.00  0.00    -0.361 OA
HETATM   11  H7  UNL     1       6.604  -0.442 -16.487  1.00  0.00     0.217 HD
ENDBRANCH   3  10
TORSDOF 2
ENDMDL
MODEL 14
REMARK VINA RESULT:      -4.0      6.304      7.249
REMARK  2 active torsions:
REMARK  status: ('A' for Active; 'I' for Inactive)
REMARK    1  A    between atoms: C3_3  and  O1_8 
REMARK    2  A    between atoms: C6_6  and  N1_7 
ROOT
HETATM    1  C1  UNL     1       7.959   1.168 -16.753  1.00  0.00     0.026 A 
HETATM    2  C2  UNL     1       7.927   1.864 -15.543  1.00  0.00     0.038 A 
HETATM    3  C3  UNL     1       7.919   1.163 -14.346  1.00  0.00     0.065 A 
HETATM    4  C4  UNL     1       7.958  -0.227 -14.339  1.00  0.00     0.038 A 
HETATM    5  C5  UNL     1       7.987  -0.917 -15.555  1.00  0.00     0.026 A 
HETATM    6  C6  UNL     1       7.937  -0.230 -16.772  1.00  0.00     0.005 A 
ENDROOT
BRANCH   6   7
HETATM    7  N1  UNL     1       8.088  -0.922 -17.979  1.00  0.00    -0.303 NA
HETATM    8  H5  UNL     1       8.848  -1.595 -17.971  1.00  0.00     0.124 HD
HETATM    9  H6  UNL     1       8.112  -0.322 -18.796  1.00  0.00     0.124 HD
ENDBRANCH   6   7
BRANCH   3  10
HETATM   10  O1  UNL     1       7.891   1.879 -13.187  1.00  0.00    -0.361 OA
HETATM   11  H7  UNL     1       8.008   1.267 -12.442  1.00  0.00     0.217 HD
ENDBRANCH   3  10
TORSDOF 2
ENDMDL
MODEL 15
REMARK VINA RESULT:      -3.9      4.173      4.926
REMARK  2 active torsions:
REMARK  status: ('A' for Active; 'I' for Inactive)
REMARK    1  A    between atoms: C3_3  and  O1_8 
REMARK    2  A    between atoms: C6_6  and  N1_7 
ROOT
HETATM    1  C1  UNL     1       5.047   0.588 -12.924  1.00  0.00     0.026 A 
HETATM    2  C2  UNL     1       4.474   1.136 -14.074  1.00  0.00     0.038 A 
HETATM    3  C3  UNL     1       5.090   0.951 -15.304  1.00  0.00     0.065 A 
HETATM    4  C4  UNL     1       6.263   0.211 -15.404  1.00  0.00     0.038 A 
HETATM    5  C5  UNL     1       6.832  -0.332 -14.249  1.00  0.00     0.026 A 
HETATM    6  C6  UNL     1       6.258  -0.107 -12.993  1.00  0.00     0.005 A 
ENDROOT
BRANCH   6   7
HETATM    7  N1  UNL     1       6.766  -0.753 -11.860  1.00  0.00    -0.303 NA
HETATM    8  H5  UNL     1       7.296  -1.593 -12.073  1.00  0.00     0.124 HD
HETATM    9  H6  UNL     1       6.078  -0.905 -11.131  1.00  0.00     0.124 HD
ENDBRANCH   6   7
BRANCH   3  10
HETATM   10  O1  UNL     1       4.498   1.498 -16.403  1.00  0.00    -0.361 OA
HETATM   11  H7  UNL     1       3.540   1.354 -16.343  1.00  0.00     0.217 HD
ENDBRANCH   3  10
TORSDOF 2
ENDMDL
MODEL 16
REMARK VINA RESULT:      -3.9      5.741      6.646
REMARK  2 active torsions:
REMARK  status: ('A' for Active; 'I' for Inactive)
REMARK    1  A    between atoms: C3_3  and  O1_8 
REMARK    2  A    between atoms: C6_6  and  N1_7 
ROOT
HETATM    1  C1  UNL     1       7.769  -0.115 -14.316  1.00  0.00     0.026 A 
HETATM    2  C2  UNL     1       8.124  -0.831 -15.462  1.00  0.00     0.038 A 
HETATM    3  C3  UNL     1       7.773  -0.345 -16.713  1.00  0.00     0.065 A 
HETATM    4  C4  UNL     1       7.085   0.857 -16.838  1.00  0.00     0.038 A 
HETATM    5  C5  UNL     1       6.732   1.568 -15.687  1.00  0.00     0.026 A 
HETATM    6  C6  UNL     1       7.025   1.065 -14.416  1.00  0.00     0.005 A 
ENDROOT
BRANCH   6   7
HETATM    7  N1  UNL     1       6.773   1.839 -13.277  1.00  0.00    -0.303 NA
HETATM    8  H5  UNL     1       7.368   2.658 -13.201  1.00  0.00     0.124 HD
HETATM    9  H6  UNL     1       6.743   1.303 -12.416  1.00  0.00     0.124 HD
ENDBRANCH   6   7
BRANCH   3  10
HETATM   10  O1  UNL     1       8.141  -1.071 -17.806  1.00  0.00    -0.361 OA
HETATM   11  H7  UNL     1       7.953  -0.548 -18.602  1.00  0.00     0.217 HD
ENDBRANCH   3  10
TORSDOF 2
ENDMDL
MODEL 17
REMARK VINA RESULT:      -3.7      7.676      8.452
REMARK  2 active torsions:
REMARK  status: ('A' for Active; 'I' for Inactive)
REMARK    1  A    between atoms: C3_3  and  O1_8 
REMARK    2  A    between atoms: C6_6  and  N1_7 
ROOT
HETATM    1  C1  UNL     1       8.490   2.478 -17.952  1.00  0.00     0.026 A 
HETATM    2  C2  UNL     1       8.175   1.162 -18.299  1.00  0.00     0.038 A 
HETATM    3  C3  UNL     1       8.338   0.147 -17.366  1.00  0.00     0.065 A 
HETATM    4  C4  UNL     1       8.796   0.431 -16.084  1.00  0.00     0.038 A 
HETATM    5  C5  UNL     1       9.110   1.751 -15.745  1.00  0.00     0.026 A 
HETATM    6  C6  UNL     1       9.008   2.778 -16.689  1.00  0.00     0.005 A 
ENDROOT
BRANCH   6   7
HETATM    7  N1  UNL     1       9.209   4.109 -16.306  1.00  0.00    -0.303 NA
HETATM    8  H5  UNL     1      10.127   4.469 -16.551  1.00  0.00     0.124 HD
HETATM    9  H6  UNL     1       8.963   4.300 -15.341  1.00  0.00     0.124 HD
ENDBRANCH   6   7
BRANCH   3  10
HETATM   10  O1  UNL     1       8.018  -1.123 -17.742  1.00  0.00    -0.361 OA
HETATM   11  H7  UNL     1       7.637  -1.585 -16.978  1.00  0.00     0.217 HD
ENDBRANCH   3  10
TORSDOF 2
ENDMDL
MODEL 18
REMARK VINA RESULT:      -3.6      4.159      5.140
REMARK  2 active torsions:
REMARK  status: ('A' for Active; 'I' for Inactive)
REMARK    1  A    between atoms: C3_3  and  O1_8 
REMARK    2  A    between atoms: C6_6  and  N1_7 
ROOT
HETATM    1  C1  UNL     1       7.369   1.130 -14.837  1.00  0.00     0.026 A 
HETATM    2  C2  UNL     1       6.500   2.122 -14.380  1.00  0.00     0.038 A 
HETATM    3  C3  UNL     1       5.848   1.959 -13.165  1.00  0.00     0.065 A 
HETATM    4  C4  UNL     1       6.066   0.824 -12.392  1.00  0.00     0.038 A 
HETATM    5  C5  UNL     1       6.937  -0.166 -12.857  1.00  0.00     0.026 A 
HETATM    6  C6  UNL     1       7.557  -0.046 -14.105  1.00  0.00     0.005 A 
ENDROOT
BRANCH   6   7
HETATM    7  N1  UNL     1       8.517  -0.982 -14.508  1.00  0.00    -0.303 NA
HETATM    8  H5  UNL     1       9.378  -0.564 -14.845  1.00  0.00     0.124 HD
HETATM    9  H6  UNL     1       8.159  -1.692 -15.139  1.00  0.00     0.124 HD
ENDBRANCH   6   7
BRANCH   3  10
HETATM   10  O1  UNL     1       5.010   2.950 -12.752  1.00  0.00    -0.361 OA
HETATM   11  H7  UNL     1       4.225   2.951 -13.324  1.00  0.00     0.217 HD
ENDBRANCH   3  10
TORSDOF 2
ENDMDL
MODEL 19
REMARK VINA RESULT:      -3.6      3.421      4.252
REMARK  2 active torsions:
REMARK  status: ('A' for Active; 'I' for Inactive)
REMARK    1  A    between atoms: C3_3  and  O1_8 
REMARK    2  A    between atoms: C6_6  and  N1_7 
ROOT
HETATM    1  C1  UNL     1       6.088   0.631 -11.570  1.00  0.00     0.026 A 
HETATM    2  C2  UNL     1       6.568  -0.309 -12.485  1.00  0.00     0.038 A 
HETATM    3  C3  UNL     1       6.369  -0.110 -13.844  1.00  0.00     0.065 A 
HETATM    4  C4  UNL     1       5.710   1.024 -14.304  1.00  0.00     0.038 A 
HETATM    5  C5  UNL     1       5.230   1.960 -13.382  1.00  0.00     0.026 A 
HETATM    6  C6  UNL     1       5.370   1.748 -12.007  1.00  0.00     0.005 A 
ENDROOT
BRANCH   6   7
HETATM    7  N1  UNL     1       4.994   2.744 -11.099  1.00  0.00    -0.303 NA
HETATM    8  H5  UNL     1       5.343   2.591 -10.158  1.00  0.00     0.124 HD
HETATM    9  H6  UNL     1       4.003   2.960 -11.113  1.00  0.00     0.124 HD
ENDBRANCH   6   7
BRANCH   3  10
HETATM   10  O1  UNL     1       6.855  -1.048 -14.704  1.00  0.00    -0.361 OA
HETATM   11  H7  UNL     1       7.163  -1.811 -14.189  1.00  0.00     0.217 HD
ENDBRANCH   3  10
TORSDOF 2
ENDMDL
MODEL 20
REMARK VINA RESULT:      -3.4      6.620      7.332
REMARK  2 active torsions:
REMARK  status: ('A' for Active; 'I' for Inactive)
REMARK    1  A    between atoms: C3_3  and  O1_8 
REMARK    2  A    between atoms: C6_6  and  N1_7 
ROOT
HETATM    1  C1  UNL     1       8.937   0.302 -15.911  1.00  0.00     0.026 A 
HETATM    2  C2  UNL     1       9.452   1.574 -16.171  1.00  0.00     0.038 A 
HETATM    3  C3  UNL     1       8.659   2.693 -15.963  1.00  0.00     0.065 A 
HETATM    4  C4  UNL     1       7.361   2.561 -15.481  1.00  0.00     0.038 A 
HETATM    5  C5  UNL     1       6.852   1.285 -15.223  1.00  0.00     0.026 A 
HETATM    6  C6  UNL     1       7.616   0.142 -15.483  1.00  0.00     0.005 A 
ENDROOT
BRANCH   6   7
HETATM    7  N1  UNL     1       7.143  -1.121 -15.111  1.00  0.00    -0.303 NA
HETATM    8  H5  UNL     1       7.816  -1.670 -14.585  1.00  0.00     0.124 HD
HETATM    9  H6  UNL     1       6.728  -1.645 -15.874  1.00  0.00     0.124 HD
ENDBRANCH   6   7
BRANCH   3  10
HETATM   10  O1  UNL     1       9.199   3.916 -16.226  1.00  0.00    -0.361 OA
HETATM   11  H7  UNL     1       9.306   4.007 -17.186  1.00  0.00     0.217 HD
ENDBRANCH   3  10
TORSDOF 2
ENDMDL
