MODEL 1
REMARK VINA RESULT:      -5.1      0.000      0.000
REMARK  2 active torsions:
REMARK  status: ('A' for Active; 'I' for Inactive)
REMARK    1  A    between atoms: C3_3  and  O1_8 
REMARK    2  A    between atoms: C6_6  and  N1_7 
ROOT
HETATM    1  C1  UNL     1       1.529   6.588  -3.894  1.00  0.00     0.026 A 
HETATM    2  C2  UNL     1       0.193   6.477  -4.286  1.00  0.00     0.038 A 
HETATM    3  C3  UNL     1      -0.343   7.402  -5.171  1.00  0.00     0.065 A 
HETATM    4  C4  UNL     1       0.443   8.428  -5.685  1.00  0.00     0.038 A 
HETATM    5  C5  UNL     1       1.779   8.533  -5.287  1.00  0.00     0.026 A 
HETATM    6  C6  UNL     1       2.320   7.646  -4.351  1.00  0.00     0.005 A 
ENDROOT
BRANCH   6   7
HETATM    7  N1  UNL     1       3.687   7.686  -4.050  1.00  0.00    -0.303 NA
HETATM    8  H5  UNL     1       3.979   8.546  -3.596  1.00  0.00     0.124 HD
HETATM    9  H6  UNL     1       4.286   7.437  -4.830  1.00  0.00     0.124 HD
ENDBRANCH   6   7
BRANCH   3  10
HETATM   10  O1  UNL     1      -1.649   7.258  -5.531  1.00  0.00    -0.361 OA
HETATM   11  H7  UNL     1      -2.190   7.840  -4.974  1.00  0.00     0.217 HD
ENDBRANCH   3  10
TORSDOF 2
ENDMDL
MODEL 2
REMARK VINA RESULT:      -5.0      2.781      3.265
REMARK  2 active torsions:
REMARK  status: ('A' for Active; 'I' for Inactive)
REMARK    1  A    between atoms: C3_3  and  O1_8 
REMARK    2  A    between atoms: C6_6  and  N1_7 
ROOT
HETATM    1  C1  UNL     1       0.391   6.488  -4.345  1.00  0.00     0.026 A 
HETATM    2  C2  UNL     1       1.709   6.674  -3.922  1.00  0.00     0.038 A 
HETATM    3  C3  UNL     1       2.433   7.763  -4.384  1.00  0.00     0.065 A 
HETATM    4  C4  UNL     1       1.853   8.682  -5.252  1.00  0.00     0.038 A 
HETATM    5  C5  UNL     1       0.533   8.489  -5.673  1.00  0.00     0.026 A 
HETATM    6  C6  UNL     1      -0.193   7.366  -5.264  1.00  0.00     0.005 A 
ENDROOT
BRANCH   6   7
HETATM    7  N1  UNL     1      -1.548   7.245  -5.594  1.00  0.00    -0.303 NA
HETATM    8  H5  UNL     1      -1.743   7.393  -6.579  1.00  0.00     0.124 HD
HETATM    9  H6  UNL     1      -2.165   7.779  -4.992  1.00  0.00     0.124 HD
ENDBRANCH   6   7
BRANCH   3  10
HETATM   10  O1  UNL     1       3.715   7.911  -3.946  1.00  0.00    -0.361 OA
HETATM   11  H7  UNL     1       3.713   8.505  -3.179  1.00  0.00     0.217 HD
ENDBRANCH   3  10
TORSDOF 2
ENDMDL
MODEL 3
REMARK VINA RESULT:      -4.7     17.108     17.930
REMARK  2 active torsions:
REMARK  status: ('A' for Active; 'I' for Inactive)
REMARK    1  A    between atoms: C3_3  and  O1_8 
REMARK    2  A    between atoms: C6_6  and  N1_7 
ROOT
HETATM    1  C1  UNL     1      -2.178  -9.334  -6.501  1.00  0.00     0.026 A 
HETATM    2  C2  UNL     1      -2.801  -8.300  -7.203  1.00  0.00     0.038 A 
HETATM    3  C3  UNL     1      -3.594  -8.595  -8.303  1.00  0.00     0.065 A 
HETATM    4  C4  UNL     1      -3.787  -9.913  -8.703  1.00  0.00     0.038 A 
HETATM    5  C5  UNL     1      -3.160 -10.943  -7.996  1.00  0.00     0.026 A 
HETATM    6  C6  UNL     1      -2.310 -10.661  -6.921  1.00  0.00     0.005 A 
ENDROOT
BRANCH   6   7
HETATM    7  N1  UNL     1      -1.783 -11.702  -6.148  1.00  0.00    -0.303 NA
HETATM    8  H5  UNL     1      -2.171 -12.613  -6.372  1.00  0.00     0.124 HD
HETATM    9  H6  UNL     1      -1.787 -11.515  -5.151  1.00  0.00     0.124 HD
ENDBRANCH   6   7
BRANCH   3  10
HETATM   10  O1  UNL     1      -4.186  -7.559  -8.960  1.00  0.00    -0.361 OA
HETATM   11  H7  UNL     1      -4.275  -6.813  -8.345  1.00  0.00     0.217 HD
ENDBRANCH   3  10
TORSDOF 2
ENDMDL
MODEL 4
REMARK VINA RESULT:      -4.6     17.285     18.124
REMARK  2 active torsions:
REMARK  status: ('A' for Active; 'I' for Inactive)
REMARK    1  A    between atoms: C3_3  and  O1_8 
REMARK    2  A    between atoms: C6_6  and  N1_7 
ROOT
HETATM    1  C1  UNL     1      -3.593 -10.058  -8.718  1.00  0.00     0.026 A 
HETATM    2  C2  UNL     1      -2.989 -11.052  -7.946  1.00  0.00     0.038 A 
HETATM    3  C3  UNL     1      -2.281 -10.703  -6.805  1.00  0.00     0.065 A 
HETATM    4  C4  UNL     1      -2.182  -9.372  -6.413  1.00  0.00     0.038 A 
HETATM    5  C5  UNL     1      -2.788  -8.382  -7.191  1.00  0.00     0.026 A 
HETATM    6  C6  UNL     1      -3.456  -8.709  -8.376  1.00  0.00     0.005 A 
ENDROOT
BRANCH   6   7
HETATM    7  N1  UNL     1      -4.160  -7.727  -9.083  1.00  0.00    -0.303 NA
HETATM    8  H5  UNL     1      -4.184  -7.884 -10.085  1.00  0.00     0.124 HD
HETATM    9  H6  UNL     1      -3.889  -6.778  -8.847  1.00  0.00     0.124 HD
ENDBRANCH   6   7
BRANCH   3  10
HETATM   10  O1  UNL     1      -1.708 -11.703  -6.078  1.00  0.00    -0.361 OA
HETATM   11  H7  UNL     1      -0.744 -11.647  -6.180  1.00  0.00     0.217 HD
ENDBRANCH   3  10
TORSDOF 2
ENDMDL
MODEL 5
REMARK VINA RESULT:      -4.4      2.614      3.424
REMARK  2 active torsions:
REMARK  status: ('A' for Active; 'I' for Inactive)
REMARK    1  A    between atoms: C3_3  and  O1_8 
REMARK    2  A    between atoms: C6_6  and  N1_7 
ROOT
HETATM    1  C1  UNL     1       0.709   8.106  -5.237  1.00  0.00     0.026 A 
HETATM    2  C2  UNL     1       1.549   9.031  -5.861  1.00  0.00     0.038 A 
HETATM    3  C3  UNL     1       2.918   8.971  -5.645  1.00  0.00     0.065 A 
HETATM    4  C4  UNL     1       3.463   7.989  -4.825  1.00  0.00     0.038 A 
HETATM    5  C5  UNL     1       2.616   7.068  -4.202  1.00  0.00     0.026 A 
HETATM    6  C6  UNL     1       1.229   7.148  -4.361  1.00  0.00     0.005 A 
ENDROOT
BRANCH   6   7
HETATM    7  N1  UNL     1       0.400   6.152  -3.832  1.00  0.00    -0.303 NA
HETATM    8  H5  UNL     1       0.846   5.590  -3.114  1.00  0.00     0.124 HD
HETATM    9  H6  UNL     1      -0.062   5.586  -4.535  1.00  0.00     0.124 HD
ENDBRANCH   6   7
BRANCH   3  10
HETATM   10  O1  UNL     1       3.705   9.889  -6.274  1.00  0.00    -0.361 OA
HETATM   11  H7  UNL     1       3.135  10.580  -6.648  1.00  0.00     0.217 HD
ENDBRANCH   3  10
TORSDOF 2
ENDMDL
MODEL 6
REMARK VINA RESULT:      -4.4      2.969      3.676
REMARK  2 active torsions:
REMARK  status: ('A' for Active; 'I' for Inactive)
REMARK    1  A    between atoms: C3_3  and  O1_8 
REMARK    2  A    between atoms: C6_6  and  N1_7 
ROOT
HETATM    1  C1  UNL     1       4.915   6.742  -3.806  1.00  0.00     0.026 A 
HETATM    2  C2  UNL     1       3.659   6.978  -4.370  1.00  0.00     0.038 A 
HETATM    3  C3  UNL     1       3.172   8.276  -4.445  1.00  0.00     0.065 A 
HETATM    4  C4  UNL     1       3.930   9.344  -3.979  1.00  0.00     0.038 A 
HETATM    5  C5  UNL     1       5.185   9.100  -3.414  1.00  0.00     0.026 A 
HETATM    6  C6  UNL     1       5.668   7.795  -3.276  1.00  0.00     0.005 A 
ENDROOT
BRANCH   6   7
HETATM    7  N1  UNL     1       6.972   7.570  -2.820  1.00  0.00    -0.303 NA
HETATM    8  H5  UNL     1       7.428   8.403  -2.463  1.00  0.00     0.124 HD
HETATM    9  H6  UNL     1       7.554   7.062  -3.478  1.00  0.00     0.124 HD
ENDBRANCH   6   7
BRANCH   3  10
HETATM   10  O1  UNL     1       1.944   8.465  -5.005  1.00  0.00    -0.361 OA
HETATM   11  H7  UNL     1       1.469   9.135  -4.488  1.00  0.00     0.217 HD
ENDBRANCH   3  10
TORSDOF 2
ENDMDL
MODEL 7
REMARK VINA RESULT:      -4.3     14.207     15.230
REMARK  2 active torsions:
REMARK  status: ('A' for Active; 'I' for Inactive)
REMARK    1  A    between atoms: C3_3  and  O1_8 
REMARK    2  A    between atoms: C6_6  and  N1_7 
ROOT
HETATM    1  C1  UNL     1     -10.487  -1.555  -0.601  1.00  0.00     0.026 A 
HETATM    2  C2  UNL     1      -9.504  -0.857  -1.307  1.00  0.00     0.038 A 
HETATM    3  C3  UNL     1      -9.192  -1.235  -2.605  1.00  0.00     0.065 A 
HETATM    4  C4  UNL     1      -9.860  -2.291  -3.215  1.00  0.00     0.038 A 
HETATM    5  C5  UNL     1     -10.841  -2.985  -2.502  1.00  0.00     0.026 A 
HETATM    6  C6  UNL     1     -11.128  -2.657  -1.173  1.00  0.00     0.005 A 
ENDROOT
BRANCH   6   7
HETATM    7  N1  UNL     1     -12.192  -3.278  -0.508  1.00  0.00    -0.303 NA
HETATM    8  H5  UNL     1     -12.828  -3.771  -1.127  1.00  0.00     0.124 HD
HETATM    9  H6  UNL     1     -12.680  -2.671   0.142  1.00  0.00     0.124 HD
ENDBRANCH   6   7
BRANCH   3  10
HETATM   10  O1  UNL     1      -8.229  -0.528  -3.262  1.00  0.00    -0.361 OA
HETATM   11  H7  UNL     1      -7.875  -1.079  -3.978  1.00  0.00     0.217 HD
ENDBRANCH   3  10
TORSDOF 2
ENDMDL
MODEL 8
REMARK VINA RESULT:      -4.3      4.588      5.411
REMARK  2 active torsions:
REMARK  status: ('A' for Active; 'I' for Inactive)
REMARK    1  A    between atoms: C3_3  and  O1_8 
REMARK    2  A    between atoms: C6_6  and  N1_7 
ROOT
HETATM    1  C1  UNL     1       4.282   7.154  -4.579  1.00  0.00     0.026 A 
HETATM    2  C2  UNL     1       5.227   6.784  -3.619  1.00  0.00     0.038 A 
HETATM    3  C3  UNL     1       6.294   7.627  -3.344  1.00  0.00     0.065 A 
HETATM    4  C4  UNL     1       6.424   8.844  -4.005  1.00  0.00     0.038 A 
HETATM    5  C5  UNL     1       5.475   9.206  -4.965  1.00  0.00     0.026 A 
HETATM    6  C6  UNL     1       4.425   8.344  -5.298  1.00  0.00     0.005 A 
ENDROOT
BRANCH   6   7
HETATM    7  N1  UNL     1       3.417   8.766  -6.172  1.00  0.00    -0.303 NA
HETATM    8  H5  UNL     1       3.113   9.722  -6.013  1.00  0.00     0.124 HD
HETATM    9  H6  UNL     1       2.638   8.120  -6.243  1.00  0.00     0.124 HD
ENDBRANCH   6   7
BRANCH   3  10
HETATM   10  O1  UNL     1       7.193   7.231  -2.399  1.00  0.00    -0.361 OA
HETATM   11  H7  UNL     1       7.315   6.271  -2.470  1.00  0.00     0.217 HD
ENDBRANCH   3  10
TORSDOF 2
ENDMDL
MODEL 9
REMARK VINA RESULT:      -4.3      1.979      2.462
REMARK  2 active torsions:
REMARK  status: ('A' for Active; 'I' for Inactive)
REMARK    1  A    between atoms: C3_3  and  O1_8 
REMARK    2  A    between atoms: C6_6  and  N1_7 
ROOT
HETATM    1  C1  UNL     1       2.047   8.327  -4.331  1.00  0.00     0.026 A 
HETATM    2  C2  UNL     1       1.253   8.206  -5.473  1.00  0.00     0.038 A 
HETATM    3  C3  UNL     1       1.462   9.056  -6.550  1.00  0.00     0.065 A 
HETATM    4  C4  UNL     1       2.466  10.017  -6.509  1.00  0.00     0.038 A 
HETATM    5  C5  UNL     1       3.256  10.133  -5.361  1.00  0.00     0.026 A 
HETATM    6  C6  UNL     1       3.022   9.326  -4.244  1.00  0.00     0.005 A 
ENDROOT
BRANCH   6   7
HETATM    7  N1  UNL     1       3.893   9.368  -3.149  1.00  0.00    -0.303 NA
HETATM    8  H5  UNL     1       3.467   9.067  -2.278  1.00  0.00     0.124 HD
HETATM    9  H6  UNL     1       4.389  10.248  -3.053  1.00  0.00     0.124 HD
ENDBRANCH   6   7
BRANCH   3  10
HETATM   10  O1  UNL     1       0.668   8.903  -7.647  1.00  0.00    -0.361 OA
HETATM   11  H7  UNL     1       0.172   9.726  -7.787  1.00  0.00     0.217 HD
ENDBRANCH   3  10
TORSDOF 2
ENDMDL
