HETATM    1  C1  UNL     1      -1.375   3.845  -1.418  1.00  0.00     0.026 A 
HETATM    2  C2  UNL     1      -2.556   3.148  -1.153  1.00  0.00     0.038 A 
HETATM    3  C3  UNL     1      -3.540   3.734  -0.370  1.00  0.00     0.065 A 
HETATM    4  C4  UNL     1      -3.369   5.016   0.139  1.00  0.00     0.038 A 
HETATM    5  C5  UNL     1      -2.184   5.708  -0.129  1.00  0.00     0.026 A 
HETATM    6  C6  UNL     1      -1.156   5.111  -0.866  1.00  0.00     0.005 A 
HETATM    7  N1  UNL     1      -0.027   5.854  -1.229  1.00  0.00    -0.303 NA
HETATM    8  H5  UNL     1       0.372   6.389  -0.464  1.00  0.00     0.124 HD
HETATM    9  H6  UNL     1      -0.154   6.412  -2.066  1.00  0.00     0.124 HD
HETATM   10  O1  UNL     1      -4.679   3.022  -0.137  1.00  0.00    -0.361 OA
HETATM   11  H7  UNL     1      -4.785   2.913   0.821  1.00  0.00     0.217 HD
HETATM    1  C1  UNL     1      -2.562   3.256  -1.172  1.00  0.00     0.026 A 
HETATM    2  C2  UNL     1      -1.385   3.940  -1.487  1.00  0.00     0.038 A 
HETATM    3  C3  UNL     1      -1.169   5.210  -0.973  1.00  0.00     0.065 A 
HETATM    4  C4  UNL     1      -2.106   5.803  -0.134  1.00  0.00     0.038 A 
HETATM    5  C5  UNL     1      -3.282   5.114   0.176  1.00  0.00     0.026 A 
HETATM    6  C6  UNL     1      -3.544   3.857  -0.379  1.00  0.00     0.005 A 
HETATM    7  N1  UNL     1      -4.665   3.126   0.030  1.00  0.00    -0.303 NA
HETATM    8  H5  UNL     1      -5.343   2.971  -0.710  1.00  0.00     0.124 HD
HETATM    9  H6  UNL     1      -5.094   3.474   0.880  1.00  0.00     0.124 HD
HETATM   10  O1  UNL     1      -0.008   5.843  -1.301  1.00  0.00    -0.361 OA
HETATM   11  H7  UNL     1       0.679   5.173  -1.447  1.00  0.00     0.217 HD
HETATM    1  C1  UNL     1      -3.824   5.009   0.459  1.00  0.00     0.026 A 
HETATM    2  C2  UNL     1      -4.465   4.292  -0.554  1.00  0.00     0.038 A 
HETATM    3  C3  UNL     1      -3.745   3.878  -1.666  1.00  0.00     0.065 A 
HETATM    4  C4  UNL     1      -2.387   4.157  -1.773  1.00  0.00     0.038 A 
HETATM    5  C5  UNL     1      -1.752   4.875  -0.756  1.00  0.00     0.026 A 
HETATM    6  C6  UNL     1      -2.474   5.351   0.344  1.00  0.00     0.005 A 
HETATM    7  N1  UNL     1      -1.808   5.965   1.411  1.00  0.00    -0.303 NA
HETATM    8  H5  UNL     1      -2.206   5.746   2.319  1.00  0.00     0.124 HD
HETATM    9  H6  UNL     1      -1.659   6.960   1.284  1.00  0.00     0.124 HD
HETATM   10  O1  UNL     1      -4.406   3.179  -2.631  1.00  0.00    -0.361 OA
HETATM   11  H7  UNL     1      -3.758   2.671  -3.144  1.00  0.00     0.217 HD
HETATM    1  C1  UNL     1      -8.375   6.640   1.829  1.00  0.00     0.026 A 
HETATM    2  C2  UNL     1      -7.223   6.812   1.059  1.00  0.00     0.038 A 
HETATM    3  C3  UNL     1      -6.169   5.918   1.188  1.00  0.00     0.065 A 
HETATM    4  C4  UNL     1      -6.256   4.844   2.066  1.00  0.00     0.038 A 
HETATM    5  C5  UNL     1      -7.412   4.679   2.835  1.00  0.00     0.026 A 
HETATM    6  C6  UNL     1      -8.460   5.602   2.762  1.00  0.00     0.005 A 
HETATM    7  N1  UNL     1      -9.658   5.364   3.445  1.00  0.00    -0.303 NA
HETATM    8  H5  UNL     1     -10.255   6.181   3.518  1.00  0.00     0.124 HD
HETATM    9  H6  UNL     1      -9.536   4.893   4.335  1.00  0.00     0.124 HD
HETATM   10  O1  UNL     1      -5.064   6.119   0.417  1.00  0.00    -0.361 OA
HETATM   11  H7  UNL     1      -4.279   5.859   0.926  1.00  0.00     0.217 HD
HETATM    1  C1  UNL     1      -2.338   4.661  -0.537  1.00  0.00     0.026 A 
HETATM    2  C2  UNL     1      -2.554   5.525   0.538  1.00  0.00     0.038 A 
HETATM    3  C3  UNL     1      -3.734   5.439   1.265  1.00  0.00     0.065 A 
HETATM    4  C4  UNL     1      -4.696   4.488   0.942  1.00  0.00     0.038 A 
HETATM    5  C5  UNL     1      -4.473   3.627  -0.137  1.00  0.00     0.026 A 
HETATM    6  C6  UNL     1      -3.317   3.738  -0.917  1.00  0.00     0.005 A 
HETATM    7  N1  UNL     1      -3.049   2.797  -1.918  1.00  0.00    -0.303 NA
HETATM    8  H5  UNL     1      -2.287   3.062  -2.533  1.00  0.00     0.124 HD
HETATM    9  H6  UNL     1      -3.872   2.496  -2.429  1.00  0.00     0.124 HD
HETATM   10  O1  UNL     1      -3.906   6.298   2.308  1.00  0.00    -0.361 OA
HETATM   11  H7  UNL     1      -4.286   5.807   3.054  1.00  0.00     0.217 HD
HETATM    1  C1  UNL     1      -4.382   5.481   3.596  1.00  0.00     0.026 A 
HETATM    2  C2  UNL     1      -4.498   5.531   2.206  1.00  0.00     0.038 A 
HETATM    3  C3  UNL     1      -3.379   5.804   1.431  1.00  0.00     0.065 A 
HETATM    4  C4  UNL     1      -2.140   6.012   2.027  1.00  0.00     0.038 A 
HETATM    5  C5  UNL     1      -2.032   5.961   3.420  1.00  0.00     0.026 A 
HETATM    6  C6  UNL     1      -3.159   5.746   4.219  1.00  0.00     0.005 A 
HETATM    7  N1  UNL     1      -3.020   5.579   5.602  1.00  0.00    -0.303 NA
HETATM    8  H5  UNL     1      -3.347   4.678   5.939  1.00  0.00     0.124 HD
HETATM    9  H6  UNL     1      -3.386   6.351   6.148  1.00  0.00     0.124 HD
HETATM   10  O1  UNL     1      -3.533   5.842   0.078  1.00  0.00    -0.361 OA
HETATM   11  H7  UNL     1      -3.817   4.965  -0.226  1.00  0.00     0.217 HD
HETATM    1  C1  UNL     1      -2.502   5.517   0.351  1.00  0.00     0.026 A 
HETATM    2  C2  UNL     1      -2.301   4.597  -0.681  1.00  0.00     0.038 A 
HETATM    3  C3  UNL     1      -3.268   3.636  -0.943  1.00  0.00     0.065 A 
HETATM    4  C4  UNL     1      -4.441   3.591  -0.198  1.00  0.00     0.038 A 
HETATM    5  C5  UNL     1      -4.634   4.514   0.834  1.00  0.00     0.026 A 
HETATM    6  C6  UNL     1      -3.647   5.452   1.151  1.00  0.00     0.005 A 
HETATM    7  N1  UNL     1      -3.899   6.445   2.104  1.00  0.00    -0.303 NA
HETATM    8  H5  UNL     1      -4.589   7.129   1.808  1.00  0.00     0.124 HD
HETATM    9  H6  UNL     1      -3.061   6.879   2.477  1.00  0.00     0.124 HD
HETATM   10  O1  UNL     1      -3.036   2.759  -1.959  1.00  0.00    -0.361 OA
HETATM   11  H7  UNL     1      -3.871   2.599  -2.427  1.00  0.00     0.217 HD
HETATM    1  C1  UNL     1      -7.251   6.817   1.178  1.00  0.00     0.026 A 
HETATM    2  C2  UNL     1      -8.427   6.600   1.899  1.00  0.00     0.038 A 
HETATM    3  C3  UNL     1      -8.524   5.502   2.742  1.00  0.00     0.065 A 
HETATM    4  C4  UNL     1      -7.455   4.625   2.889  1.00  0.00     0.038 A 
HETATM    5  C5  UNL     1      -6.281   4.849   2.163  1.00  0.00     0.026 A 
HETATM    6  C6  UNL     1      -6.185   5.916   1.264  1.00  0.00     0.005 A 
HETATM    7  N1  UNL     1      -4.968   6.201   0.634  1.00  0.00    -0.303 NA
HETATM    8  H5  UNL     1      -4.568   7.094   0.904  1.00  0.00     0.124 HD
HETATM    9  H6  UNL     1      -4.988   6.074  -0.372  1.00  0.00     0.124 HD
HETATM   10  O1  UNL     1      -9.687   5.326   3.430  1.00  0.00    -0.361 OA
HETATM   11  H7  UNL     1     -10.351   5.940   3.079  1.00  0.00     0.217 HD
HETATM    1  C1  UNL     1      -3.531   6.668  -8.409  1.00  0.00     0.026 A 
HETATM    2  C2  UNL     1      -2.203   6.444  -8.037  1.00  0.00     0.038 A 
HETATM    3  C3  UNL     1      -1.216   6.393  -9.010  1.00  0.00     0.065 A 
HETATM    4  C4  UNL     1      -1.533   6.580 -10.351  1.00  0.00     0.038 A 
HETATM    5  C5  UNL     1      -2.864   6.803 -10.716  1.00  0.00     0.026 A 
HETATM    6  C6  UNL     1      -3.881   6.799  -9.756  1.00  0.00     0.005 A 
HETATM    7  N1  UNL     1      -5.190   7.140 -10.115  1.00  0.00    -0.303 NA
HETATM    8  H5  UNL     1      -5.684   6.402 -10.606  1.00  0.00     0.124 HD
HETATM    9  H6  UNL     1      -5.266   8.036 -10.586  1.00  0.00     0.124 HD
HETATM   10  O1  UNL     1       0.067   6.175  -8.606  1.00  0.00    -0.361 OA
HETATM   11  H7  UNL     1       0.103   5.331  -8.129  1.00  0.00     0.217 HD
HETATM    1  C1  UNL     1      -6.809   5.990   5.144  1.00  0.00     0.026 A 
HETATM    2  C2  UNL     1      -8.159   5.927   4.792  1.00  0.00     0.038 A 
HETATM    3  C3  UNL     1      -8.526   5.384   3.569  1.00  0.00     0.065 A 
HETATM    4  C4  UNL     1      -7.564   4.886   2.697  1.00  0.00     0.038 A 
HETATM    5  C5  UNL     1      -6.214   4.954   3.056  1.00  0.00     0.026 A 
HETATM    6  C6  UNL     1      -5.821   5.551   4.258  1.00  0.00     0.005 A 
HETATM    7  N1  UNL     1      -4.481   5.506   4.662  1.00  0.00    -0.303 NA
HETATM    8  H5  UNL     1      -4.343   5.733   5.642  1.00  0.00     0.124 HD
HETATM    9  H6  UNL     1      -3.852   6.020   4.054  1.00  0.00     0.124 HD
HETATM   10  O1  UNL     1      -9.854   5.338   3.263  1.00  0.00    -0.361 OA
HETATM   11  H7  UNL     1     -10.333   4.962   4.019  1.00  0.00     0.217 HD
HETATM    1  C1  UNL     1      -3.069   5.727   3.024  1.00  0.00     0.026 A 
HETATM    2  C2  UNL     1      -2.689   5.908   4.355  1.00  0.00     0.038 A 
HETATM    3  C3  UNL     1      -3.633   5.776   5.364  1.00  0.00     0.065 A 
HETATM    4  C4  UNL     1      -4.950   5.450   5.062  1.00  0.00     0.038 A 
HETATM    5  C5  UNL     1      -5.324   5.273   3.727  1.00  0.00     0.026 A 
HETATM    6  C6  UNL     1      -4.401   5.458   2.693  1.00  0.00     0.005 A 
HETATM    7  N1  UNL     1      -4.753   5.162   1.371  1.00  0.00    -0.303 NA
HETATM    8  H5  UNL     1      -4.201   4.417   0.959  1.00  0.00     0.124 HD
HETATM    9  H6  UNL     1      -4.812   5.977   0.770  1.00  0.00     0.124 HD
HETATM   10  O1  UNL     1      -3.222   5.957   6.650  1.00  0.00    -0.361 OA
HETATM   11  H7  UNL     1      -3.826   6.582   7.083  1.00  0.00     0.217 HD
HETATM    1  C1  UNL     1      -6.239   5.129   4.657  1.00  0.00     0.026 A 
HETATM    2  C2  UNL     1      -4.911   5.469   4.924  1.00  0.00     0.038 A 
HETATM    3  C3  UNL     1      -3.995   5.535   3.883  1.00  0.00     0.065 A 
HETATM    4  C4  UNL     1      -4.392   5.281   2.575  1.00  0.00     0.038 A 
HETATM    5  C5  UNL     1      -5.723   4.940   2.316  1.00  0.00     0.026 A 
HETATM    6  C6  UNL     1      -6.646   4.812   3.358  1.00  0.00     0.005 A 
HETATM    7  N1  UNL     1      -7.999   4.588   3.078  1.00  0.00    -0.303 NA
HETATM    8  H5  UNL     1      -8.613   4.759   3.868  1.00  0.00     0.124 HD
HETATM    9  H6  UNL     1      -8.183   3.696   2.631  1.00  0.00     0.124 HD
HETATM   10  O1  UNL     1      -2.710   5.873   4.184  1.00  0.00    -0.361 OA
HETATM   11  H7  UNL     1      -2.699   6.310   5.050  1.00  0.00     0.217 HD
HETATM    1  C1  UNL     1      -3.784   5.641   3.983  1.00  0.00     0.026 A 
HETATM    2  C2  UNL     1      -4.729   5.357   2.995  1.00  0.00     0.038 A 
HETATM    3  C3  UNL     1      -6.035   5.060   3.358  1.00  0.00     0.065 A 
HETATM    4  C4  UNL     1      -6.415   5.058   4.696  1.00  0.00     0.038 A 
HETATM    5  C5  UNL     1      -5.463   5.342   5.679  1.00  0.00     0.026 A 
HETATM    6  C6  UNL     1      -4.129   5.586   5.337  1.00  0.00     0.005 A 
HETATM    7  N1  UNL     1      -3.212   5.985   6.316  1.00  0.00    -0.303 NA
HETATM    8  H5  UNL     1      -3.637   6.474   7.098  1.00  0.00     0.124 HD
HETATM    9  H6  UNL     1      -2.405   6.477   5.946  1.00  0.00     0.124 HD
HETATM   10  O1  UNL     1      -6.928   4.791   2.365  1.00  0.00    -0.361 OA
HETATM   11  H7  UNL     1      -6.527   4.156   1.750  1.00  0.00     0.217 HD
HETATM    1  C1  UNL     1      -1.497   5.969  -1.429  1.00  0.00     0.026 A 
HETATM    2  C2  UNL     1      -0.231   6.023  -0.843  1.00  0.00     0.038 A 
HETATM    3  C3  UNL     1       0.460   4.847  -0.588  1.00  0.00     0.065 A 
HETATM    4  C4  UNL     1      -0.089   3.616  -0.927  1.00  0.00     0.038 A 
HETATM    5  C5  UNL     1      -1.358   3.569  -1.513  1.00  0.00     0.026 A 
HETATM    6  C6  UNL     1      -2.094   4.739  -1.723  1.00  0.00     0.005 A 
HETATM    7  N1  UNL     1      -3.309   4.693  -2.417  1.00  0.00    -0.303 NA
HETATM    8  H5  UNL     1      -3.209   4.450  -3.398  1.00  0.00     0.124 HD
HETATM    9  H6  UNL     1      -3.892   5.511  -2.279  1.00  0.00     0.124 HD
HETATM   10  O1  UNL     1       1.694   4.942  -0.018  1.00  0.00    -0.361 OA
HETATM   11  H7  UNL     1       1.610   4.765   0.933  1.00  0.00     0.217 HD
HETATM    1  C1  UNL     1      -2.214   5.965   3.677  1.00  0.00     0.026 A 
HETATM    2  C2  UNL     1      -3.158   5.763   4.686  1.00  0.00     0.038 A 
HETATM    3  C3  UNL     1      -4.466   5.445   4.349  1.00  0.00     0.065 A 
HETATM    4  C4  UNL     1      -4.841   5.309   3.017  1.00  0.00     0.038 A 
HETATM    5  C5  UNL     1      -3.891   5.515   2.013  1.00  0.00     0.026 A 
HETATM    6  C6  UNL     1      -2.582   5.893   2.331  1.00  0.00     0.005 A 
HETATM    7  N1  UNL     1      -1.610   5.979   1.328  1.00  0.00    -0.303 NA
HETATM    8  H5  UNL     1      -1.994   5.993   0.388  1.00  0.00     0.124 HD
HETATM    9  H6  UNL     1      -0.857   5.307   1.427  1.00  0.00     0.124 HD
HETATM   10  O1  UNL     1      -5.358   5.253   5.362  1.00  0.00    -0.361 OA
HETATM   11  H7  UNL     1      -5.984   5.994   5.368  1.00  0.00     0.217 HD
HETATM    1  C1  UNL     1      -5.927  14.439  -8.135  1.00  0.00     0.026 A 
HETATM    2  C2  UNL     1      -5.876  13.235  -8.841  1.00  0.00     0.038 A 
HETATM    3  C3  UNL     1      -5.099  12.189  -8.363  1.00  0.00     0.065 A 
HETATM    4  C4  UNL     1      -4.383  12.324  -7.178  1.00  0.00     0.038 A 
HETATM    5  C5  UNL     1      -4.437  13.532  -6.478  1.00  0.00     0.026 A 
HETATM    6  C6  UNL     1      -5.168  14.617  -6.974  1.00  0.00     0.005 A 
HETATM    7  N1  UNL     1      -5.313  15.779  -6.207  1.00  0.00    -0.303 NA
HETATM    8  H5  UNL     1      -4.587  16.469  -6.373  1.00  0.00     0.124 HD
HETATM    9  H6  UNL     1      -5.460  15.603  -5.219  1.00  0.00     0.124 HD
HETATM   10  O1  UNL     1      -5.078  11.030  -9.079  1.00  0.00    -0.361 OA
HETATM   11  H7  UNL     1      -5.213  11.243 -10.016  1.00  0.00     0.217 HD
HETATM    1  C1  UNL     1      -5.763   4.883   2.996  1.00  0.00     0.026 A 
HETATM    2  C2  UNL     1      -4.653   5.318   2.269  1.00  0.00     0.038 A 
HETATM    3  C3  UNL     1      -4.837   5.999   1.074  1.00  0.00     0.065 A 
HETATM    4  C4  UNL     1      -6.118   6.266   0.602  1.00  0.00     0.038 A 
HETATM    5  C5  UNL     1      -7.224   5.826   1.334  1.00  0.00     0.026 A 
HETATM    6  C6  UNL     1      -7.058   5.088   2.510  1.00  0.00     0.005 A 
HETATM    7  N1  UNL     1      -8.167   4.756   3.297  1.00  0.00    -0.303 NA
HETATM    8  H5  UNL     1      -9.047   4.775   2.790  1.00  0.00     0.124 HD
HETATM    9  H6  UNL     1      -8.216   5.265   4.173  1.00  0.00     0.124 HD
HETATM   10  O1  UNL     1      -3.729   6.409   0.396  1.00  0.00    -0.361 OA
HETATM   11  H7  UNL     1      -3.534   7.326   0.647  1.00  0.00     0.217 HD
HETATM    1  C1  UNL     1      -5.780  14.777  -8.106  1.00  0.00     0.026 A 
HETATM    2  C2  UNL     1      -4.935  14.717  -6.996  1.00  0.00     0.038 A 
HETATM    3  C3  UNL     1      -4.458  13.489  -6.560  1.00  0.00     0.065 A 
HETATM    4  C4  UNL     1      -4.801  12.319  -7.228  1.00  0.00     0.038 A 
HETATM    5  C5  UNL     1      -5.648  12.387  -8.338  1.00  0.00     0.026 A 
HETATM    6  C6  UNL     1      -6.186  13.608  -8.757  1.00  0.00     0.005 A 
HETATM    7  N1  UNL     1      -6.935  13.681  -9.936  1.00  0.00    -0.303 NA
HETATM    8  H5  UNL     1      -7.936  13.751  -9.780  1.00  0.00     0.124 HD
HETATM    9  H6  UNL     1      -6.699  12.966 -10.617  1.00  0.00     0.124 HD
HETATM   10  O1  UNL     1      -3.634  13.473  -5.475  1.00  0.00    -0.361 OA
HETATM   11  H7  UNL     1      -3.796  12.657  -4.975  1.00  0.00     0.217 HD
HETATM    1  C1  UNL     1      -4.952   5.280   3.370  1.00  0.00     0.026 A 
HETATM    2  C2  UNL     1      -5.713   5.836   4.401  1.00  0.00     0.038 A 
HETATM    3  C3  UNL     1      -7.081   5.999   4.235  1.00  0.00     0.065 A 
HETATM    4  C4  UNL     1      -7.704   5.599   3.058  1.00  0.00     0.038 A 
HETATM    5  C5  UNL     1      -6.936   5.045   2.030  1.00  0.00     0.026 A 
HETATM    6  C6  UNL     1      -5.548   4.926   2.155  1.00  0.00     0.005 A 
HETATM    7  N1  UNL     1      -4.806   4.263   1.172  1.00  0.00    -0.303 NA
HETATM    8  H5  UNL     1      -4.804   3.253   1.274  1.00  0.00     0.124 HD
HETATM    9  H6  UNL     1      -3.874   4.639   1.038  1.00  0.00     0.124 HD
HETATM   10  O1  UNL     1      -7.788   6.542   5.265  1.00  0.00    -0.361 OA
HETATM   11  H7  UNL     1      -8.731   6.529   5.035  1.00  0.00     0.217 HD
HETATM    1  C1  UNL     1      -3.799   5.589   2.001  1.00  0.00     0.026 A 
HETATM    2  C2  UNL     1      -2.693   5.689   1.154  1.00  0.00     0.038 A 
HETATM    3  C3  UNL     1      -2.659   4.954  -0.023  1.00  0.00     0.065 A 
HETATM    4  C4  UNL     1      -3.724   4.133  -0.375  1.00  0.00     0.038 A 
HETATM    5  C5  UNL     1      -4.827   4.037   0.478  1.00  0.00     0.026 A 
HETATM    6  C6  UNL     1      -4.854   4.724   1.696  1.00  0.00     0.005 A 
HETATM    7  N1  UNL     1      -6.010   4.715   2.485  1.00  0.00    -0.303 NA
HETATM    8  H5  UNL     1      -5.858   5.039   3.435  1.00  0.00     0.124 HD
HETATM    9  H6  UNL     1      -6.523   3.841   2.451  1.00  0.00     0.124 HD
HETATM   10  O1  UNL     1      -1.563   5.081  -0.823  1.00  0.00    -0.361 OA
HETATM   11  H7  UNL     1      -0.839   5.458  -0.299  1.00  0.00     0.217 HD
