MODEL 1
REMARK VINA RESULT:      -4.6      0.000      0.000
REMARK  2 active torsions:
REMARK  status: ('A' for Active; 'I' for Inactive)
REMARK    1  A    between atoms: C3_3  and  O1_8 
REMARK    2  A    between atoms: C6_6  and  N1_7 
ROOT
HETATM    1  C1  UNL     1     -11.559   6.656  -1.929  1.00  0.00     0.026 A 
HETATM    2  C2  UNL     1     -12.712   7.194  -1.352  1.00  0.00     0.038 A 
HETATM    3  C3  UNL     1     -13.881   7.269  -2.096  1.00  0.00     0.065 A 
HETATM    4  C4  UNL     1     -13.920   6.799  -3.404  1.00  0.00     0.038 A 
HETATM    5  C5  UNL     1     -12.761   6.263  -3.974  1.00  0.00     0.026 A 
HETATM    6  C6  UNL     1     -11.559   6.233  -3.261  1.00  0.00     0.005 A 
ENDROOT
BRANCH   6   7
HETATM    7  N1  UNL     1     -10.438   5.588  -3.797  1.00  0.00    -0.303 NA
HETATM    8  H5  UNL     1     -10.653   4.980  -4.581  1.00  0.00     0.124 HD
HETATM    9  H6  UNL     1      -9.856   5.132  -3.102  1.00  0.00     0.124 HD
ENDBRANCH   6   7
BRANCH   3  10
HETATM   10  O1  UNL     1     -14.985   7.797  -1.497  1.00  0.00    -0.361 OA
HETATM   11  H7  UNL     1     -15.212   7.250  -0.727  1.00  0.00     0.217 HD
ENDBRANCH   3  10
TORSDOF 2
ENDMDL
MODEL 2
REMARK VINA RESULT:      -4.6      2.780      3.265
REMARK  2 active torsions:
REMARK  status: ('A' for Active; 'I' for Inactive)
REMARK    1  A    between atoms: C3_3  and  O1_8 
REMARK    2  A    between atoms: C6_6  and  N1_7 
ROOT
HETATM    1  C1  UNL     1     -12.619   7.160  -1.271  1.00  0.00     0.026 A 
HETATM    2  C2  UNL     1     -11.456   6.656  -1.857  1.00  0.00     0.038 A 
HETATM    3  C3  UNL     1     -11.485   6.209  -3.171  1.00  0.00     0.065 A 
HETATM    4  C4  UNL     1     -12.659   6.273  -3.914  1.00  0.00     0.038 A 
HETATM    5  C5  UNL     1     -13.819   6.777  -3.320  1.00  0.00     0.026 A 
HETATM    6  C6  UNL     1     -13.824   7.178  -1.980  1.00  0.00     0.005 A 
ENDROOT
BRANCH   6   7
HETATM    7  N1  UNL     1     -14.956   7.791  -1.432  1.00  0.00    -0.303 NA
HETATM    8  H5  UNL     1     -14.742   8.471  -0.709  1.00  0.00     0.124 HD
HETATM    9  H6  UNL     1     -15.678   7.138  -1.146  1.00  0.00     0.124 HD
ENDBRANCH   6   7
BRANCH   3  10
HETATM   10  O1  UNL     1     -10.329   5.728  -3.707  1.00  0.00    -0.361 OA
HETATM   11  H7  UNL     1      -9.891   5.167  -3.047  1.00  0.00     0.217 HD
ENDBRANCH   3  10
TORSDOF 2
ENDMDL
MODEL 3
REMARK VINA RESULT:      -4.6      2.176      2.803
REMARK  2 active torsions:
REMARK  status: ('A' for Active; 'I' for Inactive)
REMARK    1  A    between atoms: C3_3  and  O1_8 
REMARK    2  A    between atoms: C6_6  and  N1_7 
ROOT
HETATM    1  C1  UNL     1     -12.403   6.239  -4.218  1.00  0.00     0.026 A 
HETATM    2  C2  UNL     1     -11.569   6.338  -3.102  1.00  0.00     0.038 A 
HETATM    3  C3  UNL     1     -12.116   6.621  -1.858  1.00  0.00     0.065 A 
HETATM    4  C4  UNL     1     -13.488   6.791  -1.710  1.00  0.00     0.038 A 
HETATM    5  C5  UNL     1     -14.316   6.692  -2.832  1.00  0.00     0.026 A 
HETATM    6  C6  UNL     1     -13.778   6.466  -4.103  1.00  0.00     0.005 A 
ENDROOT
BRANCH   6   7
HETATM    7  N1  UNL     1     -14.623   6.250  -5.198  1.00  0.00    -0.303 NA
HETATM    8  H5  UNL     1     -14.525   5.329  -5.613  1.00  0.00     0.124 HD
HETATM    9  H6  UNL     1     -14.594   6.991  -5.890  1.00  0.00     0.124 HD
ENDBRANCH   6   7
BRANCH   3  10
HETATM   10  O1  UNL     1     -11.269   6.706  -0.794  1.00  0.00    -0.361 OA
HETATM   11  H7  UNL     1     -10.812   7.562  -0.829  1.00  0.00     0.217 HD
ENDBRANCH   3  10
TORSDOF 2
ENDMDL
MODEL 4
REMARK VINA RESULT:      -4.4      3.198      4.014
REMARK  2 active torsions:
REMARK  status: ('A' for Active; 'I' for Inactive)
REMARK    1  A    between atoms: C3_3  and  O1_8 
REMARK    2  A    between atoms: C6_6  and  N1_7 
ROOT
HETATM    1  C1  UNL     1      -9.550   6.824  -5.488  1.00  0.00     0.026 A 
HETATM    2  C2  UNL     1      -9.467   8.213  -5.366  1.00  0.00     0.038 A 
HETATM    3  C3  UNL     1      -9.973   8.835  -4.234  1.00  0.00     0.065 A 
HETATM    4  C4  UNL     1     -10.547   8.087  -3.212  1.00  0.00     0.038 A 
HETATM    5  C5  UNL     1     -10.628   6.698  -3.342  1.00  0.00     0.026 A 
HETATM    6  C6  UNL     1     -10.177   6.058  -4.501  1.00  0.00     0.005 A 
ENDROOT
BRANCH   6   7
HETATM    7  N1  UNL     1     -10.152   4.661  -4.571  1.00  0.00    -0.303 NA
HETATM    8  H5  UNL     1     -10.797   4.209  -3.929  1.00  0.00     0.124 HD
HETATM    9  H6  UNL     1      -9.220   4.264  -4.525  1.00  0.00     0.124 HD
ENDBRANCH   6   7
BRANCH   3  10
HETATM   10  O1  UNL     1      -9.871  10.192  -4.152  1.00  0.00    -0.361 OA
HETATM   11  H7  UNL     1      -9.435  10.519  -4.955  1.00  0.00     0.217 HD
ENDBRANCH   3  10
TORSDOF 2
ENDMDL
MODEL 5
REMARK VINA RESULT:      -4.4      3.209      3.833
REMARK  2 active torsions:
REMARK  status: ('A' for Active; 'I' for Inactive)
REMARK    1  A    between atoms: C3_3  and  O1_8 
REMARK    2  A    between atoms: C6_6  and  N1_7 
ROOT
HETATM    1  C1  UNL     1     -10.600   6.735  -3.336  1.00  0.00     0.026 A 
HETATM    2  C2  UNL     1     -10.541   8.127  -3.248  1.00  0.00     0.038 A 
HETATM    3  C3  UNL     1      -9.960   8.857  -4.275  1.00  0.00     0.065 A 
HETATM    4  C4  UNL     1      -9.450   8.216  -5.399  1.00  0.00     0.038 A 
HETATM    5  C5  UNL     1      -9.512   6.822  -5.480  1.00  0.00     0.026 A 
HETATM    6  C6  UNL     1     -10.041   6.065  -4.429  1.00  0.00     0.005 A 
ENDROOT
BRANCH   6   7
HETATM    7  N1  UNL     1     -10.207   4.683  -4.570  1.00  0.00    -0.303 NA
HETATM    8  H5  UNL     1      -9.369   4.148  -4.362  1.00  0.00     0.124 HD
HETATM    9  H6  UNL     1     -10.632   4.408  -5.449  1.00  0.00     0.124 HD
ENDBRANCH   6   7
BRANCH   3  10
HETATM   10  O1  UNL     1      -9.923  10.214  -4.153  1.00  0.00    -0.361 OA
HETATM   11  H7  UNL     1     -10.835  10.546  -4.110  1.00  0.00     0.217 HD
ENDBRANCH   3  10
TORSDOF 2
ENDMDL
MODEL 6
REMARK VINA RESULT:      -4.3      2.211      2.793
REMARK  2 active torsions:
REMARK  status: ('A' for Active; 'I' for Inactive)
REMARK    1  A    between atoms: C3_3  and  O1_8 
REMARK    2  A    between atoms: C6_6  and  N1_7 
ROOT
HETATM    1  C1  UNL     1     -11.000   6.432  -2.912  1.00  0.00     0.026 A 
HETATM    2  C2  UNL     1     -11.520   6.138  -4.174  1.00  0.00     0.038 A 
HETATM    3  C3  UNL     1     -12.892   6.176  -4.379  1.00  0.00     0.065 A 
HETATM    4  C4  UNL     1     -13.753   6.519  -3.343  1.00  0.00     0.038 A 
HETATM    5  C5  UNL     1     -13.226   6.810  -2.081  1.00  0.00     0.026 A 
HETATM    6  C6  UNL     1     -11.851   6.720  -1.840  1.00  0.00     0.005 A 
ENDROOT
BRANCH   6   7
HETATM    7  N1  UNL     1     -11.323   7.128  -0.610  1.00  0.00    -0.303 NA
HETATM    8  H5  UNL     1     -11.975   7.661  -0.043  1.00  0.00     0.124 HD
HETATM    9  H6  UNL     1     -10.417   7.578  -0.682  1.00  0.00     0.124 HD
ENDBRANCH   6   7
BRANCH   3  10
HETATM   10  O1  UNL     1     -13.359   5.886  -5.626  1.00  0.00    -0.361 OA
HETATM   11  H7  UNL     1     -14.325   5.795  -5.581  1.00  0.00     0.217 HD
ENDBRANCH   3  10
TORSDOF 2
ENDMDL
MODEL 7
REMARK VINA RESULT:      -4.3      3.581      4.279
REMARK  2 active torsions:
REMARK  status: ('A' for Active; 'I' for Inactive)
REMARK    1  A    between atoms: C3_3  and  O1_8 
REMARK    2  A    between atoms: C6_6  and  N1_7 
ROOT
HETATM    1  C1  UNL     1     -10.641   7.875  -3.244  1.00  0.00     0.026 A 
HETATM    2  C2  UNL     1     -10.687   6.483  -3.343  1.00  0.00     0.038 A 
HETATM    3  C3  UNL     1     -10.104   5.851  -4.432  1.00  0.00     0.065 A 
HETATM    4  C4  UNL     1      -9.459   6.590  -5.418  1.00  0.00     0.038 A 
HETATM    5  C5  UNL     1      -9.418   7.983  -5.312  1.00  0.00     0.026 A 
HETATM    6  C6  UNL     1     -10.051   8.642  -4.253  1.00  0.00     0.005 A 
ENDROOT
BRANCH   6   7
HETATM    7  N1  UNL     1      -9.902  10.024  -4.093  1.00  0.00    -0.303 NA
HETATM    8  H5  UNL     1     -10.718  10.558  -4.378  1.00  0.00     0.124 HD
HETATM    9  H6  UNL     1      -9.043  10.393  -4.486  1.00  0.00     0.124 HD
ENDBRANCH   6   7
BRANCH   3  10
HETATM   10  O1  UNL     1     -10.168   4.491  -4.491  1.00  0.00    -0.361 OA
HETATM   11  H7  UNL     1      -9.642   4.188  -5.248  1.00  0.00     0.217 HD
ENDBRANCH   3  10
TORSDOF 2
ENDMDL
MODEL 8
REMARK VINA RESULT:      -4.2     10.659     11.577
REMARK  2 active torsions:
REMARK  status: ('A' for Active; 'I' for Inactive)
REMARK    1  A    between atoms: C3_3  and  O1_8 
REMARK    2  A    between atoms: C6_6  and  N1_7 
ROOT
HETATM    1  C1  UNL     1     -11.481  -0.303  -9.654  1.00  0.00     0.026 A 
HETATM    2  C2  UNL     1     -12.549  -0.516 -10.528  1.00  0.00     0.038 A 
HETATM    3  C3  UNL     1     -12.446  -1.483 -11.518  1.00  0.00     0.065 A 
HETATM    4  C4  UNL     1     -11.294  -2.254 -11.636  1.00  0.00     0.038 A 
HETATM    5  C5  UNL     1     -10.229  -2.034 -10.759  1.00  0.00     0.026 A 
HETATM    6  C6  UNL     1     -10.292  -1.024  -9.793  1.00  0.00     0.005 A 
ENDROOT
BRANCH   6   7
HETATM    7  N1  UNL     1      -9.271  -0.891  -8.845  1.00  0.00    -0.303 NA
HETATM    8  H5  UNL     1      -9.607  -0.671  -7.912  1.00  0.00     0.124 HD
HETATM    9  H6  UNL     1      -8.516  -0.280  -9.138  1.00  0.00     0.124 HD
ENDBRANCH   6   7
BRANCH   3  10
HETATM   10  O1  UNL     1     -13.511  -1.663 -12.349  1.00  0.00    -0.361 OA
HETATM   11  H7  UNL     1     -13.224  -2.193 -13.109  1.00  0.00     0.217 HD
ENDBRANCH   3  10
TORSDOF 2
ENDMDL
MODEL 9
REMARK VINA RESULT:      -4.2     10.518     11.467
REMARK  2 active torsions:
REMARK  status: ('A' for Active; 'I' for Inactive)
REMARK    1  A    between atoms: C3_3  and  O1_8 
REMARK    2  A    between atoms: C6_6  and  N1_7 
ROOT
HETATM    1  C1  UNL     1     -12.497  -0.270 -10.178  1.00  0.00     0.026 A 
HETATM    2  C2  UNL     1     -11.322  -0.100  -9.442  1.00  0.00     0.038 A 
HETATM    3  C3  UNL     1     -10.209  -0.876  -9.735  1.00  0.00     0.065 A 
HETATM    4  C4  UNL     1     -10.248  -1.810 -10.764  1.00  0.00     0.038 A 
HETATM    5  C5  UNL     1     -11.428  -1.975 -11.495  1.00  0.00     0.026 A 
HETATM    6  C6  UNL     1     -12.577  -1.245 -11.177  1.00  0.00     0.005 A 
ENDROOT
BRANCH   6   7
HETATM    7  N1  UNL     1     -13.714  -1.331 -11.989  1.00  0.00    -0.303 NA
HETATM    8  H5  UNL     1     -14.250  -2.182 -11.851  1.00  0.00     0.124 HD
HETATM    9  H6  UNL     1     -13.534  -1.142 -12.969  1.00  0.00     0.124 HD
ENDBRANCH   6   7
BRANCH   3  10
HETATM   10  O1  UNL     1      -9.081  -0.678  -8.996  1.00  0.00    -0.361 OA
HETATM   11  H7  UNL     1      -9.151  -1.196  -8.179  1.00  0.00     0.217 HD
ENDBRANCH   3  10
TORSDOF 2
ENDMDL
MODEL 10
REMARK VINA RESULT:      -4.1     12.437     13.349
REMARK  2 active torsions:
REMARK  status: ('A' for Active; 'I' for Inactive)
REMARK    1  A    between atoms: C3_3  and  O1_8 
REMARK    2  A    between atoms: C6_6  and  N1_7 
ROOT
HETATM    1  C1  UNL     1      -4.133   2.322   5.258  1.00  0.00     0.026 A 
HETATM    2  C2  UNL     1      -3.581   1.166   5.815  1.00  0.00     0.038 A 
HETATM    3  C3  UNL     1      -2.628   0.449   5.105  1.00  0.00     0.065 A 
HETATM    4  C4  UNL     1      -2.206   0.879   3.852  1.00  0.00     0.038 A 
HETATM    5  C5  UNL     1      -2.764   2.036   3.301  1.00  0.00     0.026 A 
HETATM    6  C6  UNL     1      -3.768   2.740   3.975  1.00  0.00     0.005 A 
ENDROOT
BRANCH   6   7
HETATM    7  N1  UNL     1      -4.234   3.959   3.471  1.00  0.00    -0.303 NA
HETATM    8  H5  UNL     1      -4.851   4.454   4.107  1.00  0.00     0.124 HD
HETATM    9  H6  UNL     1      -4.616   3.896   2.533  1.00  0.00     0.124 HD
ENDBRANCH   6   7
BRANCH   3  10
HETATM   10  O1  UNL     1      -2.111  -0.671   5.684  1.00  0.00    -0.361 OA
HETATM   11  H7  UNL     1      -2.770  -1.381   5.628  1.00  0.00     0.217 HD
ENDBRANCH   3  10
TORSDOF 2
ENDMDL
MODEL 11
REMARK VINA RESULT:      -4.1      3.948      4.714
REMARK  2 active torsions:
REMARK  status: ('A' for Active; 'I' for Inactive)
REMARK    1  A    between atoms: C3_3  and  O1_8 
REMARK    2  A    between atoms: C6_6  and  N1_7 
ROOT
HETATM    1  C1  UNL     1     -10.069   9.153  -4.289  1.00  0.00     0.026 A 
HETATM    2  C2  UNL     1      -9.414   8.455  -5.306  1.00  0.00     0.038 A 
HETATM    3  C3  UNL     1      -9.448   7.068  -5.321  1.00  0.00     0.065 A 
HETATM    4  C4  UNL     1     -10.143   6.367  -4.341  1.00  0.00     0.038 A 
HETATM    5  C5  UNL     1     -10.795   7.072  -3.326  1.00  0.00     0.026 A 
HETATM    6  C6  UNL     1     -10.723   8.467  -3.261  1.00  0.00     0.005 A 
ENDROOT
BRANCH   6   7
HETATM    7  N1  UNL     1     -11.475   9.169  -2.312  1.00  0.00    -0.303 NA
HETATM    8  H5  UNL     1     -12.440   8.858  -2.246  1.00  0.00     0.124 HD
HETATM    9  H6  UNL     1     -11.399  10.177  -2.392  1.00  0.00     0.124 HD
ENDBRANCH   6   7
BRANCH   3  10
HETATM   10  O1  UNL     1      -8.799   6.424  -6.331  1.00  0.00    -0.361 OA
HETATM   11  H7  UNL     1      -8.332   7.083  -6.869  1.00  0.00     0.217 HD
ENDBRANCH   3  10
TORSDOF 2
ENDMDL
MODEL 12
REMARK VINA RESULT:      -4.1     12.377     13.249
REMARK  2 active torsions:
REMARK  status: ('A' for Active; 'I' for Inactive)
REMARK    1  A    between atoms: C3_3  and  O1_8 
REMARK    2  A    between atoms: C6_6  and  N1_7 
ROOT
HETATM    1  C1  UNL     1      -2.287   0.923   3.804  1.00  0.00     0.026 A 
HETATM    2  C2  UNL     1      -2.811   2.094   3.253  1.00  0.00     0.038 A 
HETATM    3  C3  UNL     1      -3.600   2.928   4.033  1.00  0.00     0.065 A 
HETATM    4  C4  UNL     1      -3.860   2.616   5.363  1.00  0.00     0.038 A 
HETATM    5  C5  UNL     1      -3.334   1.441   5.907  1.00  0.00     0.026 A 
HETATM    6  C6  UNL     1      -2.585   0.559   5.121  1.00  0.00     0.005 A 
ENDROOT
BRANCH   6   7
HETATM    7  N1  UNL     1      -1.964  -0.551   5.704  1.00  0.00    -0.303 NA
HETATM    8  H5  UNL     1      -1.208  -0.310   6.338  1.00  0.00     0.124 HD
HETATM    9  H6  UNL     1      -1.696  -1.268   5.038  1.00  0.00     0.124 HD
ENDBRANCH   6   7
BRANCH   3  10
HETATM   10  O1  UNL     1      -4.090   4.063   3.460  1.00  0.00    -0.361 OA
HETATM   11  H7  UNL     1      -3.550   4.275   2.681  1.00  0.00     0.217 HD
ENDBRANCH   3  10
TORSDOF 2
ENDMDL
MODEL 13
REMARK VINA RESULT:      -4.1      2.233      2.940
REMARK  2 active torsions:
REMARK  status: ('A' for Active; 'I' for Inactive)
REMARK    1  A    between atoms: C3_3  and  O1_8 
REMARK    2  A    between atoms: C6_6  and  N1_7 
ROOT
HETATM    1  C1  UNL     1     -13.417   6.363  -4.113  1.00  0.00     0.026 A 
HETATM    2  C2  UNL     1     -12.842   6.661  -2.876  1.00  0.00     0.038 A 
HETATM    3  C3  UNL     1     -11.478   6.481  -2.690  1.00  0.00     0.065 A 
HETATM    4  C4  UNL     1     -10.677   6.023  -3.730  1.00  0.00     0.038 A 
HETATM    5  C5  UNL     1     -11.260   5.726  -4.966  1.00  0.00     0.026 A 
HETATM    6  C6  UNL     1     -12.641   5.845  -5.154  1.00  0.00     0.005 A 
ENDROOT
BRANCH   6   7
HETATM    7  N1  UNL     1     -13.197   5.661  -6.425  1.00  0.00    -0.303 NA
HETATM    8  H5  UNL     1     -13.736   6.456  -6.754  1.00  0.00     0.124 HD
HETATM    9  H6  UNL     1     -13.698   4.785  -6.530  1.00  0.00     0.124 HD
ENDBRANCH   6   7
BRANCH   3  10
HETATM   10  O1  UNL     1     -10.954   6.785  -1.470  1.00  0.00    -0.361 OA
HETATM   11  H7  UNL     1     -11.405   7.573  -1.127  1.00  0.00     0.217 HD
ENDBRANCH   3  10
TORSDOF 2
ENDMDL
MODEL 14
REMARK VINA RESULT:      -4.1      3.186      3.958
REMARK  2 active torsions:
REMARK  status: ('A' for Active; 'I' for Inactive)
REMARK    1  A    between atoms: C3_3  and  O1_8 
REMARK    2  A    between atoms: C6_6  and  N1_7 
ROOT
HETATM    1  C1  UNL     1     -10.012   6.979  -6.393  1.00  0.00     0.026 A 
HETATM    2  C2  UNL     1      -9.785   7.293  -5.052  1.00  0.00     0.038 A 
HETATM    3  C3  UNL     1     -10.635   6.793  -4.075  1.00  0.00     0.065 A 
HETATM    4  C4  UNL     1     -11.701   5.970  -4.419  1.00  0.00     0.038 A 
HETATM    5  C5  UNL     1     -11.923   5.661  -5.764  1.00  0.00     0.026 A 
HETATM    6  C6  UNL     1     -11.113   6.203  -6.767  1.00  0.00     0.005 A 
ENDROOT
BRANCH   6   7
HETATM    7  N1  UNL     1     -11.270   5.794  -8.097  1.00  0.00    -0.303 NA
HETATM    8  H5  UNL     1     -12.034   5.141  -8.235  1.00  0.00     0.124 HD
HETATM    9  H6  UNL     1     -10.409   5.480  -8.533  1.00  0.00     0.124 HD
ENDBRANCH   6   7
BRANCH   3  10
HETATM   10  O1  UNL     1     -10.378   7.119  -2.777  1.00  0.00    -0.361 OA
HETATM   11  H7  UNL     1      -9.434   7.331  -2.692  1.00  0.00     0.217 HD
ENDBRANCH   3  10
TORSDOF 2
ENDMDL
MODEL 15
REMARK VINA RESULT:      -4.0      3.698      4.470
REMARK  2 active torsions:
REMARK  status: ('A' for Active; 'I' for Inactive)
REMARK    1  A    between atoms: C3_3  and  O1_8 
REMARK    2  A    between atoms: C6_6  and  N1_7 
ROOT
HETATM    1  C1  UNL     1      -9.744   6.847  -4.916  1.00  0.00     0.026 A 
HETATM    2  C2  UNL     1      -9.857   6.862  -6.308  1.00  0.00     0.038 A 
HETATM    3  C3  UNL     1     -10.944   6.252  -6.917  1.00  0.00     0.065 A 
HETATM    4  C4  UNL     1     -11.932   5.640  -6.153  1.00  0.00     0.038 A 
HETATM    5  C5  UNL     1     -11.812   5.628  -4.760  1.00  0.00     0.026 A 
HETATM    6  C6  UNL     1     -10.694   6.186  -4.131  1.00  0.00     0.005 A 
ENDROOT
BRANCH   6   7
HETATM    7  N1  UNL     1     -10.641   6.274  -2.736  1.00  0.00    -0.303 NA
HETATM    8  H5  UNL     1     -10.032   5.584  -2.306  1.00  0.00     0.124 HD
HETATM    9  H6  UNL     1     -11.552   6.315  -2.292  1.00  0.00     0.124 HD
ENDBRANCH   6   7
BRANCH   3  10
HETATM   10  O1  UNL     1     -11.019   6.291  -8.277  1.00  0.00    -0.361 OA
HETATM   11  H7  UNL     1     -10.559   5.515  -8.634  1.00  0.00     0.217 HD
ENDBRANCH   3  10
TORSDOF 2
ENDMDL
MODEL 16
REMARK VINA RESULT:      -4.0      3.566      4.419
REMARK  2 active torsions:
REMARK  status: ('A' for Active; 'I' for Inactive)
REMARK    1  A    between atoms: C3_3  and  O1_8 
REMARK    2  A    between atoms: C6_6  and  N1_7 
ROOT
HETATM    1  C1  UNL     1     -11.261   6.260  -3.902  1.00  0.00     0.026 A 
HETATM    2  C2  UNL     1     -11.245   5.880  -5.246  1.00  0.00     0.038 A 
HETATM    3  C3  UNL     1     -10.475   6.593  -6.153  1.00  0.00     0.065 A 
HETATM    4  C4  UNL     1      -9.705   7.672  -5.734  1.00  0.00     0.038 A 
HETATM    5  C5  UNL     1      -9.727   8.048  -4.387  1.00  0.00     0.026 A 
HETATM    6  C6  UNL     1     -10.543   7.378  -3.469  1.00  0.00     0.005 A 
ENDROOT
BRANCH   6   7
HETATM    7  N1  UNL     1     -10.467   7.684  -2.106  1.00  0.00    -0.303 NA
HETATM    8  H5  UNL     1     -10.523   6.870  -1.501  1.00  0.00     0.124 HD
HETATM    9  H6  UNL     1     -11.097   8.424  -1.816  1.00  0.00     0.124 HD
ENDBRANCH   6   7
BRANCH   3  10
HETATM   10  O1  UNL     1     -10.484   6.189  -7.455  1.00  0.00    -0.361 OA
HETATM   11  H7  UNL     1     -11.406   6.095  -7.743  1.00  0.00     0.217 HD
ENDBRANCH   3  10
TORSDOF 2
ENDMDL
MODEL 17
REMARK VINA RESULT:      -4.0      3.239      4.026
REMARK  2 active torsions:
REMARK  status: ('A' for Active; 'I' for Inactive)
REMARK    1  A    between atoms: C3_3  and  O1_8 
REMARK    2  A    between atoms: C6_6  and  N1_7 
ROOT
HETATM    1  C1  UNL     1     -10.980   6.424  -3.004  1.00  0.00     0.026 A 
HETATM    2  C2  UNL     1     -10.378   6.911  -4.167  1.00  0.00     0.038 A 
HETATM    3  C3  UNL     1     -10.023   8.250  -4.248  1.00  0.00     0.065 A 
HETATM    4  C4  UNL     1     -10.245   9.107  -3.176  1.00  0.00     0.038 A 
HETATM    5  C5  UNL     1     -10.848   8.613  -2.016  1.00  0.00     0.026 A 
HETATM    6  C6  UNL     1     -11.267   7.280  -1.937  1.00  0.00     0.005 A 
ENDROOT
BRANCH   6   7
HETATM    7  N1  UNL     1     -11.761   6.767  -0.733  1.00  0.00    -0.303 NA
HETATM    8  H5  UNL     1     -12.748   6.534  -0.763  1.00  0.00     0.124 HD
HETATM    9  H6  UNL     1     -11.519   7.323   0.080  1.00  0.00     0.124 HD
ENDBRANCH   6   7
BRANCH   3  10
HETATM   10  O1  UNL     1      -9.436   8.686  -5.397  1.00  0.00    -0.361 OA
HETATM   11  H7  UNL     1      -9.451   9.656  -5.404  1.00  0.00     0.217 HD
ENDBRANCH   3  10
TORSDOF 2
ENDMDL
MODEL 18
REMARK VINA RESULT:      -3.9     10.228     11.157
REMARK  2 active torsions:
REMARK  status: ('A' for Active; 'I' for Inactive)
REMARK    1  A    between atoms: C3_3  and  O1_8 
REMARK    2  A    between atoms: C6_6  and  N1_7 
ROOT
HETATM    1  C1  UNL     1      -4.681   2.419   5.520  1.00  0.00     0.026 A 
HETATM    2  C2  UNL     1      -4.583   3.555   4.713  1.00  0.00     0.038 A 
HETATM    3  C3  UNL     1      -5.671   3.951   3.947  1.00  0.00     0.065 A 
HETATM    4  C4  UNL     1      -6.863   3.237   3.989  1.00  0.00     0.038 A 
HETATM    5  C5  UNL     1      -6.954   2.100   4.799  1.00  0.00     0.026 A 
HETATM    6  C6  UNL     1      -5.850   1.652   5.531  1.00  0.00     0.005 A 
ENDROOT
BRANCH   6   7
HETATM    7  N1  UNL     1      -5.985   0.586   6.428  1.00  0.00    -0.303 NA
HETATM    8  H5  UNL     1      -5.126   0.353   6.916  1.00  0.00     0.124 HD
HETATM    9  H6  UNL     1      -6.437  -0.230   6.030  1.00  0.00     0.124 HD
ENDBRANCH   6   7
BRANCH   3  10
HETATM   10  O1  UNL     1      -5.537   5.066   3.175  1.00  0.00    -0.361 OA
HETATM   11  H7  UNL     1      -4.619   5.118   2.863  1.00  0.00     0.217 HD
ENDBRANCH   3  10
TORSDOF 2
ENDMDL
MODEL 19
REMARK VINA RESULT:      -3.9      2.414      2.844
REMARK  2 active torsions:
REMARK  status: ('A' for Active; 'I' for Inactive)
REMARK    1  A    between atoms: C3_3  and  O1_8 
REMARK    2  A    between atoms: C6_6  and  N1_7 
ROOT
HETATM    1  C1  UNL     1     -10.337   8.972  -3.014  1.00  0.00     0.026 A 
HETATM    2  C2  UNL     1     -10.915   8.454  -1.853  1.00  0.00     0.038 A 
HETATM    3  C3  UNL     1     -11.290   7.118  -1.808  1.00  0.00     0.065 A 
HETATM    4  C4  UNL     1     -11.080   6.288  -2.903  1.00  0.00     0.038 A 
HETATM    5  C5  UNL     1     -10.502   6.814  -4.062  1.00  0.00     0.026 A 
HETATM    6  C6  UNL     1     -10.172   8.170  -4.147  1.00  0.00     0.005 A 
ENDROOT
BRANCH   6   7
HETATM    7  N1  UNL     1      -9.486   8.661  -5.264  1.00  0.00    -0.303 NA
HETATM    8  H5  UNL     1      -9.499   9.673  -5.338  1.00  0.00     0.124 HD
HETATM    9  H6  UNL     1      -9.742   8.207  -6.134  1.00  0.00     0.124 HD
ENDBRANCH   6   7
BRANCH   3  10
HETATM   10  O1  UNL     1     -11.848   6.650  -0.657  1.00  0.00    -0.361 OA
HETATM   11  H7  UNL     1     -12.352   7.368  -0.242  1.00  0.00     0.217 HD
ENDBRANCH   3  10
TORSDOF 2
ENDMDL
MODEL 20
REMARK VINA RESULT:      -3.9     10.553     11.477
REMARK  2 active torsions:
REMARK  status: ('A' for Active; 'I' for Inactive)
REMARK    1  A    between atoms: C3_3  and  O1_8 
REMARK    2  A    between atoms: C6_6  and  N1_7 
ROOT
HETATM    1  C1  UNL     1      -4.500   3.356   5.013  1.00  0.00     0.026 A 
HETATM    2  C2  UNL     1      -4.582   2.221   5.824  1.00  0.00     0.038 A 
HETATM    3  C3  UNL     1      -5.707   1.411   5.760  1.00  0.00     0.065 A 
HETATM    4  C4  UNL     1      -6.745   1.708   4.885  1.00  0.00     0.038 A 
HETATM    5  C5  UNL     1      -6.656   2.846   4.077  1.00  0.00     0.026 A 
HETATM    6  C6  UNL     1      -5.558   3.707   4.169  1.00  0.00     0.005 A 
ENDROOT
BRANCH   6   7
HETATM    7  N1  UNL     1      -5.422   4.775   3.275  1.00  0.00    -0.303 NA
HETATM    8  H5  UNL     1      -5.988   4.679   2.437  1.00  0.00     0.124 HD
HETATM    9  H6  UNL     1      -4.459   5.015   3.065  1.00  0.00     0.124 HD
ENDBRANCH   6   7
BRANCH   3  10
HETATM   10  O1  UNL     1      -5.748   0.312   6.565  1.00  0.00    -0.361 OA
HETATM   11  H7  UNL     1      -5.880  -0.473   6.011  1.00  0.00     0.217 HD
ENDBRANCH   3  10
TORSDOF 2
ENDMDL
