MODEL 1
REMARK VINA RESULT:      -3.7      0.000      0.000
REMARK  2 active torsions:
REMARK  status: ('A' for Active; 'I' for Inactive)
REMARK    1  A    between atoms: C3_3  and  O1_10 
REMARK    2  A    between atoms: C6_6  and  N1_7 
ROOT
HETATM    1  C1  PAP L   1     -13.966  -3.077  -0.868  1.00  0.00     0.026 A 
HETATM    2  C2  PAP L   1     -15.251  -3.446  -1.274  1.00  0.00     0.038 A 
HETATM    3  C3  PAP L   1     -15.416  -4.228  -2.408  1.00  0.00     0.065 A 
HETATM    4  C4  PAP L   1     -14.314  -4.662  -3.137  1.00  0.00     0.038 A 
HETATM    5  C5  PAP L   1     -13.031  -4.288  -2.725  1.00  0.00     0.026 A 
HETATM    6  C6  PAP L   1     -12.847  -3.452  -1.619  1.00  0.00     0.005 A 
ENDROOT
BRANCH   6   7
HETATM    7  N1  PAP L   1     -11.558  -3.182  -1.146  1.00  0.00    -0.303 NA
HETATM    8  H5  PAP L   1     -11.537  -2.851  -0.187  1.00  0.00     0.124 HD
HETATM    9  H6  PAP L   1     -11.006  -2.601  -1.767  1.00  0.00     0.124 HD
ENDBRANCH   6   7
BRANCH   3  10
HETATM   10  O1  PAP L   1     -16.685  -4.569  -2.770  1.00  0.00    -0.361 OA
HETATM   11  H7  PAP L   1     -17.021  -3.901  -3.389  1.00  0.00     0.217 HD
ENDBRANCH   3  10
TORSDOF 2
ENDMDL
MODEL 2
REMARK VINA RESULT:      -3.7      2.790      3.690
REMARK  2 active torsions:
REMARK  status: ('A' for Active; 'I' for Inactive)
REMARK    1  A    between atoms: C3_3  and  O1_10 
REMARK    2  A    between atoms: C6_6  and  N1_7 
ROOT
HETATM    1  C1  PAP L   1     -14.025  -4.624  -3.114  1.00  0.00     0.026 A 
HETATM    2  C2  PAP L   1     -12.743  -4.275  -2.680  1.00  0.00     0.038 A 
HETATM    3  C3  PAP L   1     -12.592  -3.464  -1.564  1.00  0.00     0.065 A 
HETATM    4  C4  PAP L   1     -13.704  -3.006  -0.864  1.00  0.00     0.038 A 
HETATM    5  C5  PAP L   1     -14.983  -3.358  -1.305  1.00  0.00     0.026 A 
HETATM    6  C6  PAP L   1     -15.157  -4.127  -2.461  1.00  0.00     0.005 A 
ENDROOT
BRANCH   6   7
HETATM    7  N1  PAP L   1     -16.433  -4.572  -2.825  1.00  0.00    -0.303 NA
HETATM    8  H5  PAP L   1     -16.528  -5.582  -2.823  1.00  0.00     0.124 HD
HETATM    9  H6  PAP L   1     -16.786  -4.153  -3.680  1.00  0.00     0.124 HD
ENDBRANCH   6   7
BRANCH   3  10
HETATM   10  O1  PAP L   1     -11.327  -3.148  -1.171  1.00  0.00    -0.361 OA
HETATM   11  H7  PAP L   1     -11.312  -3.071  -0.204  1.00  0.00     0.217 HD
ENDBRANCH   3  10
TORSDOF 2
ENDMDL
MODEL 3
REMARK VINA RESULT:      -3.5      2.565      3.328
REMARK  2 active torsions:
REMARK  status: ('A' for Active; 'I' for Inactive)
REMARK    1  A    between atoms: C3_3  and  O1_10 
REMARK    2  A    between atoms: C6_6  and  N1_7 
ROOT
HETATM    1  C1  PAP L   1     -13.330  -3.797  -2.569  1.00  0.00     0.026 A 
HETATM    2  C2  PAP L   1     -13.064  -2.581  -1.933  1.00  0.00     0.038 A 
HETATM    3  C3  PAP L   1     -14.068  -1.947  -1.215  1.00  0.00     0.065 A 
HETATM    4  C4  PAP L   1     -15.332  -2.518  -1.107  1.00  0.00     0.038 A 
HETATM    5  C5  PAP L   1     -15.591  -3.735  -1.746  1.00  0.00     0.026 A 
HETATM    6  C6  PAP L   1     -14.610  -4.359  -2.524  1.00  0.00     0.005 A 
ENDROOT
BRANCH   6   7
HETATM    7  N1  PAP L   1     -14.840  -5.632  -3.059  1.00  0.00    -0.303 NA
HETATM    8  H5  PAP L   1     -14.008  -6.071  -3.439  1.00  0.00     0.124 HD
HETATM    9  H6  PAP L   1     -15.625  -5.671  -3.702  1.00  0.00     0.124 HD
ENDBRANCH   6   7
BRANCH   3  10
HETATM   10  O1  PAP L   1     -13.769  -0.765  -0.608  1.00  0.00    -0.361 OA
HETATM   11  H7  PAP L   1     -13.279  -0.950   0.209  1.00  0.00     0.217 HD
ENDBRANCH   3  10
TORSDOF 2
ENDMDL
MODEL 4
REMARK VINA RESULT:      -3.5      2.834      3.133
REMARK  2 active torsions:
REMARK  status: ('A' for Active; 'I' for Inactive)
REMARK    1  A    between atoms: C3_3  and  O1_10 
REMARK    2  A    between atoms: C6_6  and  N1_7 
ROOT
HETATM    1  C1  PAP L   1     -13.221  -1.765  -2.155  1.00  0.00     0.026 A 
HETATM    2  C2  PAP L   1     -12.732  -2.994  -1.703  1.00  0.00     0.038 A 
HETATM    3  C3  PAP L   1     -12.599  -4.050  -2.594  1.00  0.00     0.065 A 
HETATM    4  C4  PAP L   1     -12.932  -3.893  -3.935  1.00  0.00     0.038 A 
HETATM    5  C5  PAP L   1     -13.422  -2.660  -4.379  1.00  0.00     0.026 A 
HETATM    6  C6  PAP L   1     -13.619  -1.602  -3.485  1.00  0.00     0.005 A 
ENDROOT
BRANCH   6   7
HETATM    7  N1  PAP L   1     -13.994  -0.340  -3.960  1.00  0.00    -0.303 NA
HETATM    8  H5  PAP L   1     -13.972   0.385  -3.250  1.00  0.00     0.124 HD
HETATM    9  H6  PAP L   1     -14.863  -0.341  -4.484  1.00  0.00     0.124 HD
ENDBRANCH   6   7
BRANCH   3  10
HETATM   10  O1  PAP L   1     -12.116  -5.231  -2.116  1.00  0.00    -0.361 OA
HETATM   11  H7  PAP L   1     -11.381  -5.044  -1.511  1.00  0.00     0.217 HD
ENDBRANCH   3  10
TORSDOF 2
ENDMDL
MODEL 5
REMARK VINA RESULT:      -3.5      2.849      3.525
REMARK  2 active torsions:
REMARK  status: ('A' for Active; 'I' for Inactive)
REMARK    1  A    between atoms: C3_3  and  O1_10 
REMARK    2  A    between atoms: C6_6  and  N1_7 
ROOT
HETATM    1  C1  PAP L   1     -13.406  -2.689  -4.400  1.00  0.00     0.026 A 
HETATM    2  C2  PAP L   1     -12.929  -3.917  -3.935  1.00  0.00     0.038 A 
HETATM    3  C3  PAP L   1     -12.572  -4.055  -2.601  1.00  0.00     0.065 A 
HETATM    4  C4  PAP L   1     -12.698  -2.987  -1.719  1.00  0.00     0.038 A 
HETATM    5  C5  PAP L   1     -13.175  -1.761  -2.192  1.00  0.00     0.026 A 
HETATM    6  C6  PAP L   1     -13.485  -1.585  -3.545  1.00  0.00     0.005 A 
ENDROOT
BRANCH   6   7
HETATM    7  N1  PAP L   1     -14.073  -0.394  -3.985  1.00  0.00    -0.303 NA
HETATM    8  H5  PAP L   1     -14.885  -0.116  -3.444  1.00  0.00     0.124 HD
HETATM    9  H6  PAP L   1     -14.247  -0.366  -4.984  1.00  0.00     0.124 HD
ENDBRANCH   6   7
BRANCH   3  10
HETATM   10  O1  PAP L   1     -12.114  -5.269  -2.185  1.00  0.00    -0.361 OA
HETATM   11  H7  PAP L   1     -11.336  -5.130  -1.620  1.00  0.00     0.217 HD
ENDBRANCH   3  10
TORSDOF 2
ENDMDL
MODEL 6
REMARK VINA RESULT:      -3.4      2.353      2.883
REMARK  2 active torsions:
REMARK  status: ('A' for Active; 'I' for Inactive)
REMARK    1  A    between atoms: C3_3  and  O1_10 
REMARK    2  A    between atoms: C6_6  and  N1_7 
ROOT
HETATM    1  C1  PAP L   1     -13.090  -3.704  -3.760  1.00  0.00     0.026 A 
HETATM    2  C2  PAP L   1     -13.780  -2.540  -3.410  1.00  0.00     0.038 A 
HETATM    3  C3  PAP L   1     -13.779  -2.111  -2.090  1.00  0.00     0.065 A 
HETATM    4  C4  PAP L   1     -13.083  -2.818  -1.115  1.00  0.00     0.038 A 
HETATM    5  C5  PAP L   1     -12.396  -3.982  -1.473  1.00  0.00     0.026 A 
HETATM    6  C6  PAP L   1     -12.434  -4.463  -2.786  1.00  0.00     0.005 A 
ENDROOT
BRANCH   6   7
HETATM    7  N1  PAP L   1     -11.647  -5.559  -3.158  1.00  0.00    -0.303 NA
HETATM    8  H5  PAP L   1     -12.027  -6.089  -3.935  1.00  0.00     0.124 HD
HETATM    9  H6  PAP L   1     -11.376  -6.152  -2.381  1.00  0.00     0.124 HD
ENDBRANCH   6   7
BRANCH   3  10
HETATM   10  O1  PAP L   1     -14.461  -0.971  -1.789  1.00  0.00    -0.361 OA
HETATM   11  H7  PAP L   1     -14.631  -0.484  -2.611  1.00  0.00     0.217 HD
ENDBRANCH   3  10
TORSDOF 2
ENDMDL
MODEL 7
REMARK VINA RESULT:      -3.4      2.038      2.083
REMARK  2 active torsions:
REMARK  status: ('A' for Active; 'I' for Inactive)
REMARK    1  A    between atoms: C3_3  and  O1_10 
REMARK    2  A    between atoms: C6_6  and  N1_7 
ROOT
HETATM    1  C1  PAP L   1     -14.452  -1.989  -1.480  1.00  0.00     0.026 A 
HETATM    2  C2  PAP L   1     -15.329  -2.951  -0.972  1.00  0.00     0.038 A 
HETATM    3  C3  PAP L   1     -16.012  -3.787  -1.845  1.00  0.00     0.065 A 
HETATM    4  C4  PAP L   1     -15.819  -3.688  -3.218  1.00  0.00     0.038 A 
HETATM    5  C5  PAP L   1     -14.940  -2.722  -3.719  1.00  0.00     0.026 A 
HETATM    6  C6  PAP L   1     -14.288  -1.832  -2.859  1.00  0.00     0.005 A 
ENDROOT
BRANCH   6   7
HETATM    7  N1  PAP L   1     -13.322  -0.951  -3.359  1.00  0.00    -0.303 NA
HETATM    8  H5  PAP L   1     -13.642   0.010  -3.427  1.00  0.00     0.124 HD
HETATM    9  H6  PAP L   1     -12.877  -1.271  -4.213  1.00  0.00     0.124 HD
ENDBRANCH   6   7
BRANCH   3  10
HETATM   10  O1  PAP L   1     -16.856  -4.713  -1.311  1.00  0.00    -0.361 OA
HETATM   11  H7  PAP L   1     -16.626  -4.842  -0.377  1.00  0.00     0.217 HD
ENDBRANCH   3  10
TORSDOF 2
ENDMDL
MODEL 8
REMARK VINA RESULT:      -3.4      3.042      3.736
REMARK  2 active torsions:
REMARK  status: ('A' for Active; 'I' for Inactive)
REMARK    1  A    between atoms: C3_3  and  O1_10 
REMARK    2  A    between atoms: C6_6  and  N1_7 
ROOT
HETATM    1  C1  PAP L   1     -15.497  -3.547  -3.288  1.00  0.00     0.026 A 
HETATM    2  C2  PAP L   1     -14.614  -2.586  -3.787  1.00  0.00     0.038 A 
HETATM    3  C3  PAP L   1     -14.080  -1.633  -2.930  1.00  0.00     0.065 A 
HETATM    4  C4  PAP L   1     -14.402  -1.636  -1.577  1.00  0.00     0.038 A 
HETATM    5  C5  PAP L   1     -15.287  -2.601  -1.086  1.00  0.00     0.026 A 
HETATM    6  C6  PAP L   1     -15.881  -3.532  -1.944  1.00  0.00     0.005 A 
ENDROOT
BRANCH   6   7
HETATM    7  N1  PAP L   1     -16.670  -4.566  -1.425  1.00  0.00    -0.303 NA
HETATM    8  H5  PAP L   1     -16.500  -4.754  -0.442  1.00  0.00     0.124 HD
HETATM    9  H6  PAP L   1     -16.662  -5.410  -1.987  1.00  0.00     0.124 HD
ENDBRANCH   6   7
BRANCH   3  10
HETATM   10  O1  PAP L   1     -13.221  -0.714  -3.454  1.00  0.00    -0.361 OA
HETATM   11  H7  PAP L   1     -13.193   0.056  -2.864  1.00  0.00     0.217 HD
ENDBRANCH   3  10
TORSDOF 2
ENDMDL
MODEL 9
REMARK VINA RESULT:      -3.4      2.583      2.903
REMARK  2 active torsions:
REMARK  status: ('A' for Active; 'I' for Inactive)
REMARK    1  A    between atoms: C3_3  and  O1_10 
REMARK    2  A    between atoms: C6_6  and  N1_7 
ROOT
HETATM    1  C1  PAP L   1     -13.036  -2.958  -1.011  1.00  0.00     0.026 A 
HETATM    2  C2  PAP L   1     -12.315  -4.088  -1.408  1.00  0.00     0.038 A 
HETATM    3  C3  PAP L   1     -12.371  -4.509  -2.729  1.00  0.00     0.065 A 
HETATM    4  C4  PAP L   1     -13.125  -3.810  -3.665  1.00  0.00     0.038 A 
HETATM    5  C5  PAP L   1     -13.845  -2.682  -3.260  1.00  0.00     0.026 A 
HETATM    6  C6  PAP L   1     -13.848  -2.276  -1.922  1.00  0.00     0.005 A 
ENDROOT
BRANCH   6   7
HETATM    7  N1  PAP L   1     -14.473  -1.080  -1.550  1.00  0.00    -0.303 NA
HETATM    8  H5  PAP L   1     -14.059  -0.255  -1.971  1.00  0.00     0.124 HD
HETATM    9  H6  PAP L   1     -14.602  -0.978  -0.549  1.00  0.00     0.124 HD
ENDBRANCH   6   7
BRANCH   3  10
HETATM   10  O1  PAP L   1     -11.652  -5.613  -3.077  1.00  0.00    -0.361 OA
HETATM   11  H7  PAP L   1     -12.261  -6.363  -3.172  1.00  0.00     0.217 HD
ENDBRANCH   3  10
TORSDOF 2
ENDMDL
MODEL 10
REMARK VINA RESULT:      -3.4      2.074      2.622
REMARK  2 active torsions:
REMARK  status: ('A' for Active; 'I' for Inactive)
REMARK    1  A    between atoms: C3_3  and  O1_10 
REMARK    2  A    between atoms: C6_6  and  N1_7 
ROOT
HETATM    1  C1  PAP L   1     -14.802  -2.812  -3.723  1.00  0.00     0.026 A 
HETATM    2  C2  PAP L   1     -15.685  -3.748  -3.177  1.00  0.00     0.038 A 
HETATM    3  C3  PAP L   1     -15.970  -3.714  -1.819  1.00  0.00     0.065 A 
HETATM    4  C4  PAP L   1     -15.399  -2.747  -0.999  1.00  0.00     0.038 A 
HETATM    5  C5  PAP L   1     -14.516  -1.814  -1.553  1.00  0.00     0.026 A 
HETATM    6  C6  PAP L   1     -14.170  -1.869  -2.907  1.00  0.00     0.005 A 
ENDROOT
BRANCH   6   7
HETATM    7  N1  PAP L   1     -13.382  -0.862  -3.474  1.00  0.00    -0.303 NA
HETATM    8  H5  PAP L   1     -12.946  -0.251  -2.791  1.00  0.00     0.124 HD
HETATM    9  H6  PAP L   1     -13.846  -0.345  -4.214  1.00  0.00     0.124 HD
ENDBRANCH   6   7
BRANCH   3  10
HETATM   10  O1  PAP L   1     -16.837  -4.641  -1.325  1.00  0.00    -0.361 OA
HETATM   11  H7  PAP L   1     -17.581  -4.179  -0.908  1.00  0.00     0.217 HD
ENDBRANCH   3  10
TORSDOF 2
ENDMDL
MODEL 11
REMARK VINA RESULT:      -3.3      2.538      3.150
REMARK  2 active torsions:
REMARK  status: ('A' for Active; 'I' for Inactive)
REMARK    1  A    between atoms: C3_3  and  O1_10 
REMARK    2  A    between atoms: C6_6  and  N1_7 
ROOT
HETATM    1  C1  PAP L   1     -13.350  -3.813  -3.870  1.00  0.00     0.026 A 
HETATM    2  C2  PAP L   1     -13.885  -2.627  -4.381  1.00  0.00     0.038 A 
HETATM    3  C3  PAP L   1     -13.875  -1.477  -3.604  1.00  0.00     0.065 A 
HETATM    4  C4  PAP L   1     -13.323  -1.489  -2.328  1.00  0.00     0.038 A 
HETATM    5  C5  PAP L   1     -12.791  -2.679  -1.822  1.00  0.00     0.026 A 
HETATM    6  C6  PAP L   1     -12.845  -3.862  -2.567  1.00  0.00     0.005 A 
ENDROOT
BRANCH   6   7
HETATM    7  N1  PAP L   1     -12.204  -5.017  -2.103  1.00  0.00    -0.303 NA
HETATM    8  H5  PAP L   1     -11.286  -5.164  -2.507  1.00  0.00     0.124 HD
HETATM    9  H6  PAP L   1     -12.781  -5.850  -2.143  1.00  0.00     0.124 HD
ENDBRANCH   6   7
BRANCH   3  10
HETATM   10  O1  PAP L   1     -14.403  -0.341  -4.139  1.00  0.00    -0.361 OA
HETATM   11  H7  PAP L   1     -13.710   0.338  -4.173  1.00  0.00     0.217 HD
ENDBRANCH   3  10
TORSDOF 2
ENDMDL
MODEL 12
REMARK VINA RESULT:      -3.3      4.929      5.321
REMARK  2 active torsions:
REMARK  status: ('A' for Active; 'I' for Inactive)
REMARK    1  A    between atoms: C3_3  and  O1_10 
REMARK    2  A    between atoms: C6_6  and  N1_7 
ROOT
HETATM    1  C1  PAP L   1     -13.004   0.012  -6.409  1.00  0.00     0.026 A 
HETATM    2  C2  PAP L   1     -12.852  -1.373  -6.507  1.00  0.00     0.038 A 
HETATM    3  C3  PAP L   1     -13.220  -2.182  -5.441  1.00  0.00     0.065 A 
HETATM    4  C4  PAP L   1     -13.754  -1.628  -4.282  1.00  0.00     0.038 A 
HETATM    5  C5  PAP L   1     -13.902  -0.241  -4.191  1.00  0.00     0.026 A 
HETATM    6  C6  PAP L   1     -13.482   0.595  -5.232  1.00  0.00     0.005 A 
ENDROOT
BRANCH   6   7
HETATM    7  N1  PAP L   1     -13.744   1.969  -5.181  1.00  0.00    -0.303 NA
HETATM    8  H5  PAP L   1     -13.413   2.416  -4.333  1.00  0.00     0.124 HD
HETATM    9  H6  PAP L   1     -14.706   2.211  -5.395  1.00  0.00     0.124 HD
ENDBRANCH   6   7
BRANCH   3  10
HETATM   10  O1  PAP L   1     -13.059  -3.528  -5.575  1.00  0.00    -0.361 OA
HETATM   11  H7  PAP L   1     -12.216  -3.782  -5.166  1.00  0.00     0.217 HD
ENDBRANCH   3  10
TORSDOF 2
ENDMDL
MODEL 13
REMARK VINA RESULT:      -3.3      2.433      3.119
REMARK  2 active torsions:
REMARK  status: ('A' for Active; 'I' for Inactive)
REMARK    1  A    between atoms: C3_3  and  O1_10 
REMARK    2  A    between atoms: C6_6  and  N1_7 
ROOT
HETATM    1  C1  PAP L   1     -14.599  -3.512  -2.782  1.00  0.00     0.026 A 
HETATM    2  C2  PAP L   1     -13.689  -4.457  -3.263  1.00  0.00     0.038 A 
HETATM    3  C3  PAP L   1     -12.486  -4.653  -2.598  1.00  0.00     0.065 A 
HETATM    4  C4  PAP L   1     -12.185  -3.930  -1.449  1.00  0.00     0.038 A 
HETATM    5  C5  PAP L   1     -13.101  -2.986  -0.974  1.00  0.00     0.026 A 
HETATM    6  C6  PAP L   1     -14.291  -2.732  -1.663  1.00  0.00     0.005 A 
ENDROOT
BRANCH   6   7
HETATM    7  N1  PAP L   1     -15.252  -1.874  -1.116  1.00  0.00    -0.303 NA
HETATM    8  H5  PAP L   1     -15.501  -2.098  -0.158  1.00  0.00     0.124 HD
HETATM    9  H6  PAP L   1     -16.068  -1.742  -1.705  1.00  0.00     0.124 HD
ENDBRANCH   6   7
BRANCH   3  10
HETATM   10  O1  PAP L   1     -11.626  -5.585  -3.097  1.00  0.00    -0.361 OA
HETATM   11  H7  PAP L   1     -11.493  -6.274  -2.427  1.00  0.00     0.217 HD
ENDBRANCH   3  10
TORSDOF 2
ENDMDL
MODEL 14
REMARK VINA RESULT:      -3.3      2.004      2.488
REMARK  2 active torsions:
REMARK  status: ('A' for Active; 'I' for Inactive)
REMARK    1  A    between atoms: C3_3  and  O1_10 
REMARK    2  A    between atoms: C6_6  and  N1_7 
ROOT
HETATM    1  C1  PAP L   1     -14.248  -1.521  -2.635  1.00  0.00     0.026 A 
HETATM    2  C2  PAP L   1     -14.692  -2.528  -3.496  1.00  0.00     0.038 A 
HETATM    3  C3  PAP L   1     -15.351  -3.635  -2.978  1.00  0.00     0.065 A 
HETATM    4  C4  PAP L   1     -15.587  -3.744  -1.612  1.00  0.00     0.038 A 
HETATM    5  C5  PAP L   1     -15.138  -2.733  -0.756  1.00  0.00     0.026 A 
HETATM    6  C6  PAP L   1     -14.421  -1.639  -1.253  1.00  0.00     0.005 A 
ENDROOT
BRANCH   6   7
HETATM    7  N1  PAP L   1     -14.082  -0.577  -0.407  1.00  0.00    -0.303 NA
HETATM    8  H5  PAP L   1     -14.650  -0.526   0.432  1.00  0.00     0.124 HD
HETATM    9  H6  PAP L   1     -14.011   0.318  -0.880  1.00  0.00     0.124 HD
ENDBRANCH   6   7
BRANCH   3  10
HETATM   10  O1  PAP L   1     -15.771  -4.593  -3.850  1.00  0.00    -0.361 OA
HETATM   11  H7  PAP L   1     -15.503  -4.336  -4.747  1.00  0.00     0.217 HD
ENDBRANCH   3  10
TORSDOF 2
ENDMDL
MODEL 15
REMARK VINA RESULT:      -3.3      5.705      5.843
REMARK  2 active torsions:
REMARK  status: ('A' for Active; 'I' for Inactive)
REMARK    1  A    between atoms: C3_3  and  O1_10 
REMARK    2  A    between atoms: C6_6  and  N1_7 
ROOT
HETATM    1  C1  PAP L   1     -13.712   0.552  -4.765  1.00  0.00     0.026 A 
HETATM    2  C2  PAP L   1     -14.029  -0.783  -5.031  1.00  0.00     0.038 A 
HETATM    3  C3  PAP L   1     -15.134  -1.084  -5.815  1.00  0.00     0.065 A 
HETATM    4  C4  PAP L   1     -15.919  -0.070  -6.352  1.00  0.00     0.038 A 
HETATM    5  C5  PAP L   1     -15.596   1.264  -6.081  1.00  0.00     0.026 A 
HETATM    6  C6  PAP L   1     -14.521   1.585  -5.245  1.00  0.00     0.005 A 
ENDROOT
BRANCH   6   7
HETATM    7  N1  PAP L   1     -14.134   2.920  -5.077  1.00  0.00    -0.303 NA
HETATM    8  H5  PAP L   1     -13.321   3.180  -5.624  1.00  0.00     0.124 HD
HETATM    9  H6  PAP L   1     -14.054   3.205  -4.107  1.00  0.00     0.124 HD
ENDBRANCH   6   7
BRANCH   3  10
HETATM   10  O1  PAP L   1     -15.409  -2.397  -6.053  1.00  0.00    -0.361 OA
HETATM   11  H7  PAP L   1     -16.089  -2.690  -5.425  1.00  0.00     0.217 HD
ENDBRANCH   3  10
TORSDOF 2
ENDMDL
MODEL 16
REMARK VINA RESULT:      -3.3      2.476      2.583
REMARK  2 active torsions:
REMARK  status: ('A' for Active; 'I' for Inactive)
REMARK    1  A    between atoms: C3_3  and  O1_10 
REMARK    2  A    between atoms: C6_6  and  N1_7 
ROOT
HETATM    1  C1  PAP L   1     -13.258  -2.220  -1.629  1.00  0.00     0.026 A 
HETATM    2  C2  PAP L   1     -13.877  -1.282  -2.459  1.00  0.00     0.038 A 
HETATM    3  C3  PAP L   1     -14.003  -1.542  -3.816  1.00  0.00     0.065 A 
HETATM    4  C4  PAP L   1     -13.533  -2.734  -4.356  1.00  0.00     0.038 A 
HETATM    5  C5  PAP L   1     -12.914  -3.668  -3.519  1.00  0.00     0.026 A 
HETATM    6  C6  PAP L   1     -12.725  -3.399  -2.159  1.00  0.00     0.005 A 
ENDROOT
BRANCH   6   7
HETATM    7  N1  PAP L   1     -12.214  -4.387  -1.310  1.00  0.00    -0.303 NA
HETATM    8  H5  PAP L   1     -12.929  -4.897  -0.801  1.00  0.00     0.124 HD
HETATM    9  H6  PAP L   1     -11.468  -4.061  -0.704  1.00  0.00     0.124 HD
ENDBRANCH   6   7
BRANCH   3  10
HETATM   10  O1  PAP L   1     -14.614  -0.603  -4.592  1.00  0.00    -0.361 OA
HETATM   11  H7  PAP L   1     -15.400  -1.001  -4.999  1.00  0.00     0.217 HD
ENDBRANCH   3  10
TORSDOF 2
ENDMDL
MODEL 17
REMARK VINA RESULT:      -3.2      4.980      5.204
REMARK  2 active torsions:
REMARK  status: ('A' for Active; 'I' for Inactive)
REMARK    1  A    between atoms: C3_3  and  O1_10 
REMARK    2  A    between atoms: C6_6  and  N1_7 
ROOT
HETATM    1  C1  PAP L   1     -13.795  -1.679  -4.226  1.00  0.00     0.026 A 
HETATM    2  C2  PAP L   1     -13.883  -0.290  -4.100  1.00  0.00     0.038 A 
HETATM    3  C3  PAP L   1     -13.465   0.522  -5.145  1.00  0.00     0.065 A 
HETATM    4  C4  PAP L   1     -12.975  -0.033  -6.322  1.00  0.00     0.038 A 
HETATM    5  C5  PAP L   1     -12.889  -1.423  -6.440  1.00  0.00     0.026 A 
HETATM    6  C6  PAP L   1     -13.250  -2.257  -5.377  1.00  0.00     0.005 A 
ENDROOT
BRANCH   6   7
HETATM    7  N1  PAP L   1     -13.274  -3.646  -5.547  1.00  0.00    -0.303 NA
HETATM    8  H5  PAP L   1     -12.926  -4.161  -4.745  1.00  0.00     0.124 HD
HETATM    9  H6  PAP L   1     -12.857  -3.960  -6.418  1.00  0.00     0.124 HD
ENDBRANCH   6   7
BRANCH   3  10
HETATM   10  O1  PAP L   1     -13.569   1.871  -4.985  1.00  0.00    -0.361 OA
HETATM   11  H7  PAP L   1     -14.393   2.171  -5.402  1.00  0.00     0.217 HD
ENDBRANCH   3  10
TORSDOF 2
ENDMDL
MODEL 18
REMARK VINA RESULT:      -3.2      4.841      5.032
REMARK  2 active torsions:
REMARK  status: ('A' for Active; 'I' for Inactive)
REMARK    1  A    between atoms: C3_3  and  O1_10 
REMARK    2  A    between atoms: C6_6  and  N1_7 
ROOT
HETATM    1  C1  PAP L   1     -13.872  -0.422  -4.149  1.00  0.00     0.026 A 
HETATM    2  C2  PAP L   1     -13.663  -1.795  -4.304  1.00  0.00     0.038 A 
HETATM    3  C3  PAP L   1     -13.119  -2.279  -5.486  1.00  0.00     0.065 A 
HETATM    4  C4  PAP L   1     -12.765  -1.410  -6.511  1.00  0.00     0.038 A 
HETATM    5  C5  PAP L   1     -12.978  -0.037  -6.350  1.00  0.00     0.026 A 
HETATM    6  C6  PAP L   1     -13.579   0.464  -5.190  1.00  0.00     0.005 A 
ENDROOT
BRANCH   6   7
HETATM    7  N1  PAP L   1     -13.678   1.846  -4.989  1.00  0.00    -0.303 NA
HETATM    8  H5  PAP L   1     -14.079   2.345  -5.775  1.00  0.00     0.124 HD
HETATM    9  H6  PAP L   1     -12.820   2.274  -4.657  1.00  0.00     0.124 HD
ENDBRANCH   6   7
BRANCH   3  10
HETATM   10  O1  PAP L   1     -12.929  -3.624  -5.597  1.00  0.00    -0.361 OA
HETATM   11  H7  PAP L   1     -13.724  -4.077  -5.275  1.00  0.00     0.217 HD
ENDBRANCH   3  10
TORSDOF 2
ENDMDL
MODEL 19
REMARK VINA RESULT:      -3.1      4.494      4.977
REMARK  2 active torsions:
REMARK  status: ('A' for Active; 'I' for Inactive)
REMARK    1  A    between atoms: C3_3  and  O1_10 
REMARK    2  A    between atoms: C6_6  and  N1_7 
ROOT
HETATM    1  C1  PAP L   1     -13.190  -2.460  -5.345  1.00  0.00     0.026 A 
HETATM    2  C2  PAP L   1     -12.986  -1.334  -6.146  1.00  0.00     0.038 A 
HETATM    3  C3  PAP L   1     -13.262  -0.071  -5.640  1.00  0.00     0.065 A 
HETATM    4  C4  PAP L   1     -13.725   0.085  -4.338  1.00  0.00     0.038 A 
HETATM    5  C5  PAP L   1     -13.928  -1.047  -3.542  1.00  0.00     0.026 A 
HETATM    6  C6  PAP L   1     -13.712  -2.331  -4.054  1.00  0.00     0.005 A 
ENDROOT
BRANCH   6   7
HETATM    7  N1  PAP L   1     -13.803  -3.448  -3.215  1.00  0.00    -0.303 NA
HETATM    8  H5  PAP L   1     -14.756  -3.746  -3.034  1.00  0.00     0.124 HD
HETATM    9  H6  PAP L   1     -13.255  -3.368  -2.364  1.00  0.00     0.124 HD
ENDBRANCH   6   7
BRANCH   3  10
HETATM   10  O1  PAP L   1     -13.047   1.002  -6.451  1.00  0.00    -0.361 OA
HETATM   11  H7  PAP L   1     -13.678   1.701  -6.214  1.00  0.00     0.217 HD
ENDBRANCH   3  10
TORSDOF 2
ENDMDL
MODEL 20
REMARK VINA RESULT:      -2.9      3.479      4.191
REMARK  2 active torsions:
REMARK  status: ('A' for Active; 'I' for Inactive)
REMARK    1  A    between atoms: C3_3  and  O1_10 
REMARK    2  A    between atoms: C6_6  and  N1_7 
ROOT
HETATM    1  C1  PAP L   1     -13.027  -3.781  -4.036  1.00  0.00     0.026 A 
HETATM    2  C2  PAP L   1     -13.005  -3.349  -5.365  1.00  0.00     0.038 A 
HETATM    3  C3  PAP L   1     -12.095  -3.905  -6.253  1.00  0.00     0.065 A 
HETATM    4  C4  PAP L   1     -11.216  -4.900  -5.838  1.00  0.00     0.038 A 
HETATM    5  C5  PAP L   1     -11.244  -5.326  -4.507  1.00  0.00     0.026 A 
HETATM    6  C6  PAP L   1     -12.112  -4.737  -3.582  1.00  0.00     0.005 A 
ENDROOT
BRANCH   6   7
HETATM    7  N1  PAP L   1     -12.216  -5.252  -2.285  1.00  0.00    -0.303 NA
HETATM    8  H5  PAP L   1     -12.710  -4.642  -1.642  1.00  0.00     0.124 HD
HETATM    9  H6  PAP L   1     -11.336  -5.583  -1.904  1.00  0.00     0.124 HD
ENDBRANCH   6   7
BRANCH   3  10
HETATM   10  O1  PAP L   1     -12.106  -3.459  -7.540  1.00  0.00    -0.361 OA
HETATM   11  H7  PAP L   1     -11.681  -2.587  -7.570  1.00  0.00     0.217 HD
ENDBRANCH   3  10
TORSDOF 2
ENDMDL
