HETATM    1  C1  PAP L   1      -9.592  -2.143  -0.460  1.00  0.00     0.026 A 
HETATM    2  C2  PAP L   1     -10.877  -2.512  -0.866  1.00  0.00     0.038 A 
HETATM    3  C3  PAP L   1     -11.042  -3.294  -2.000  1.00  0.00     0.065 A 
HETATM    4  C4  PAP L   1      -9.940  -3.728  -2.729  1.00  0.00     0.038 A 
HETATM    5  C5  PAP L   1      -8.657  -3.354  -2.317  1.00  0.00     0.026 A 
HETATM    6  C6  PAP L   1      -8.473  -2.518  -1.211  1.00  0.00     0.005 A 
HETATM    7  N1  PAP L   1      -7.184  -2.248  -0.738  1.00  0.00    -0.303 NA
HETATM    8  H5  PAP L   1      -7.163  -1.917   0.221  1.00  0.00     0.124 HD
HETATM    9  H6  PAP L   1      -6.632  -1.667  -1.359  1.00  0.00     0.124 HD
HETATM   10  O1  PAP L   1     -12.311  -3.635  -2.362  1.00  0.00    -0.361 OA
HETATM   11  H7  PAP L   1     -12.647  -2.967  -2.981  1.00  0.00     0.217 HD
HETATM    1  C1  PAP L   1      -9.651  -3.690  -2.706  1.00  0.00     0.026 A 
HETATM    2  C2  PAP L   1      -8.369  -3.341  -2.272  1.00  0.00     0.038 A 
HETATM    3  C3  PAP L   1      -8.218  -2.530  -1.156  1.00  0.00     0.065 A 
HETATM    4  C4  PAP L   1      -9.330  -2.072  -0.456  1.00  0.00     0.038 A 
HETATM    5  C5  PAP L   1     -10.609  -2.424  -0.897  1.00  0.00     0.026 A 
HETATM    6  C6  PAP L   1     -10.783  -3.193  -2.053  1.00  0.00     0.005 A 
HETATM    7  N1  PAP L   1     -12.059  -3.638  -2.417  1.00  0.00    -0.303 NA
HETATM    8  H5  PAP L   1     -12.154  -4.648  -2.415  1.00  0.00     0.124 HD
HETATM    9  H6  PAP L   1     -12.412  -3.219  -3.272  1.00  0.00     0.124 HD
HETATM   10  O1  PAP L   1      -6.953  -2.214  -0.763  1.00  0.00    -0.361 OA
HETATM   11  H7  PAP L   1      -6.938  -2.137   0.204  1.00  0.00     0.217 HD
HETATM    1  C1  PAP L   1      -8.956  -2.863  -2.161  1.00  0.00     0.026 A 
HETATM    2  C2  PAP L   1      -8.690  -1.647  -1.525  1.00  0.00     0.038 A 
HETATM    3  C3  PAP L   1      -9.694  -1.013  -0.807  1.00  0.00     0.065 A 
HETATM    4  C4  PAP L   1     -10.958  -1.584  -0.699  1.00  0.00     0.038 A 
HETATM    5  C5  PAP L   1     -11.217  -2.801  -1.338  1.00  0.00     0.026 A 
HETATM    6  C6  PAP L   1     -10.236  -3.425  -2.116  1.00  0.00     0.005 A 
HETATM    7  N1  PAP L   1     -10.466  -4.698  -2.651  1.00  0.00    -0.303 NA
HETATM    8  H5  PAP L   1      -9.634  -5.137  -3.031  1.00  0.00     0.124 HD
HETATM    9  H6  PAP L   1     -11.251  -4.737  -3.294  1.00  0.00     0.124 HD
HETATM   10  O1  PAP L   1      -9.395   0.169  -0.200  1.00  0.00    -0.361 OA
HETATM   11  H7  PAP L   1      -8.905  -0.016   0.617  1.00  0.00     0.217 HD
HETATM    1  C1  PAP L   1      -8.847  -0.831  -1.747  1.00  0.00     0.026 A 
HETATM    2  C2  PAP L   1      -8.358  -2.060  -1.295  1.00  0.00     0.038 A 
HETATM    3  C3  PAP L   1      -8.225  -3.116  -2.186  1.00  0.00     0.065 A 
HETATM    4  C4  PAP L   1      -8.558  -2.959  -3.527  1.00  0.00     0.038 A 
HETATM    5  C5  PAP L   1      -9.048  -1.726  -3.971  1.00  0.00     0.026 A 
HETATM    6  C6  PAP L   1      -9.245  -0.668  -3.077  1.00  0.00     0.005 A 
HETATM    7  N1  PAP L   1      -9.620   0.594  -3.552  1.00  0.00    -0.303 NA
HETATM    8  H5  PAP L   1      -9.598   1.319  -2.842  1.00  0.00     0.124 HD
HETATM    9  H6  PAP L   1     -10.489   0.593  -4.076  1.00  0.00     0.124 HD
HETATM   10  O1  PAP L   1      -7.742  -4.297  -1.708  1.00  0.00    -0.361 OA
HETATM   11  H7  PAP L   1      -7.007  -4.110  -1.103  1.00  0.00     0.217 HD
HETATM    1  C1  PAP L   1      -9.032  -1.755  -3.992  1.00  0.00     0.026 A 
HETATM    2  C2  PAP L   1      -8.555  -2.983  -3.527  1.00  0.00     0.038 A 
HETATM    3  C3  PAP L   1      -8.198  -3.121  -2.193  1.00  0.00     0.065 A 
HETATM    4  C4  PAP L   1      -8.324  -2.053  -1.311  1.00  0.00     0.038 A 
HETATM    5  C5  PAP L   1      -8.801  -0.827  -1.784  1.00  0.00     0.026 A 
HETATM    6  C6  PAP L   1      -9.111  -0.651  -3.137  1.00  0.00     0.005 A 
HETATM    7  N1  PAP L   1      -9.699   0.540  -3.577  1.00  0.00    -0.303 NA
HETATM    8  H5  PAP L   1     -10.511   0.818  -3.036  1.00  0.00     0.124 HD
HETATM    9  H6  PAP L   1      -9.873   0.568  -4.576  1.00  0.00     0.124 HD
HETATM   10  O1  PAP L   1      -7.740  -4.335  -1.777  1.00  0.00    -0.361 OA
HETATM   11  H7  PAP L   1      -6.962  -4.196  -1.212  1.00  0.00     0.217 HD
HETATM    1  C1  PAP L   1      -8.716  -2.770  -3.352  1.00  0.00     0.026 A 
HETATM    2  C2  PAP L   1      -9.406  -1.606  -3.002  1.00  0.00     0.038 A 
HETATM    3  C3  PAP L   1      -9.405  -1.177  -1.682  1.00  0.00     0.065 A 
HETATM    4  C4  PAP L   1      -8.709  -1.884  -0.707  1.00  0.00     0.038 A 
HETATM    5  C5  PAP L   1      -8.022  -3.048  -1.065  1.00  0.00     0.026 A 
HETATM    6  C6  PAP L   1      -8.060  -3.529  -2.378  1.00  0.00     0.005 A 
HETATM    7  N1  PAP L   1      -7.273  -4.625  -2.750  1.00  0.00    -0.303 NA
HETATM    8  H5  PAP L   1      -7.653  -5.155  -3.527  1.00  0.00     0.124 HD
HETATM    9  H6  PAP L   1      -7.002  -5.218  -1.973  1.00  0.00     0.124 HD
HETATM   10  O1  PAP L   1     -10.087  -0.037  -1.381  1.00  0.00    -0.361 OA
HETATM   11  H7  PAP L   1     -10.257   0.450  -2.203  1.00  0.00     0.217 HD
HETATM    1  C1  PAP L   1     -10.078  -1.055  -1.072  1.00  0.00     0.026 A 
HETATM    2  C2  PAP L   1     -10.955  -2.017  -0.564  1.00  0.00     0.038 A 
HETATM    3  C3  PAP L   1     -11.638  -2.853  -1.437  1.00  0.00     0.065 A 
HETATM    4  C4  PAP L   1     -11.445  -2.754  -2.810  1.00  0.00     0.038 A 
HETATM    5  C5  PAP L   1     -10.566  -1.788  -3.311  1.00  0.00     0.026 A 
HETATM    6  C6  PAP L   1      -9.914  -0.898  -2.451  1.00  0.00     0.005 A 
HETATM    7  N1  PAP L   1      -8.948  -0.017  -2.951  1.00  0.00    -0.303 NA
HETATM    8  H5  PAP L   1      -9.268   0.944  -3.019  1.00  0.00     0.124 HD
HETATM    9  H6  PAP L   1      -8.503  -0.337  -3.805  1.00  0.00     0.124 HD
HETATM   10  O1  PAP L   1     -12.482  -3.779  -0.903  1.00  0.00    -0.361 OA
HETATM   11  H7  PAP L   1     -12.252  -3.908   0.031  1.00  0.00     0.217 HD
HETATM    1  C1  PAP L   1     -11.123  -2.613  -2.880  1.00  0.00     0.026 A 
HETATM    2  C2  PAP L   1     -10.240  -1.652  -3.379  1.00  0.00     0.038 A 
HETATM    3  C3  PAP L   1      -9.706  -0.699  -2.522  1.00  0.00     0.065 A 
HETATM    4  C4  PAP L   1     -10.028  -0.702  -1.169  1.00  0.00     0.038 A 
HETATM    5  C5  PAP L   1     -10.913  -1.667  -0.678  1.00  0.00     0.026 A 
HETATM    6  C6  PAP L   1     -11.507  -2.598  -1.536  1.00  0.00     0.005 A 
HETATM    7  N1  PAP L   1     -12.296  -3.632  -1.017  1.00  0.00    -0.303 NA
HETATM    8  H5  PAP L   1     -12.126  -3.820  -0.034  1.00  0.00     0.124 HD
HETATM    9  H6  PAP L   1     -12.288  -4.476  -1.579  1.00  0.00     0.124 HD
HETATM   10  O1  PAP L   1      -8.847   0.220  -3.046  1.00  0.00    -0.361 OA
HETATM   11  H7  PAP L   1      -8.819   0.990  -2.456  1.00  0.00     0.217 HD
HETATM    1  C1  PAP L   1      -8.662  -2.024  -0.603  1.00  0.00     0.026 A 
HETATM    2  C2  PAP L   1      -7.941  -3.154  -1.000  1.00  0.00     0.038 A 
HETATM    3  C3  PAP L   1      -7.997  -3.575  -2.321  1.00  0.00     0.065 A 
HETATM    4  C4  PAP L   1      -8.751  -2.876  -3.257  1.00  0.00     0.038 A 
HETATM    5  C5  PAP L   1      -9.471  -1.748  -2.852  1.00  0.00     0.026 A 
HETATM    6  C6  PAP L   1      -9.474  -1.342  -1.514  1.00  0.00     0.005 A 
HETATM    7  N1  PAP L   1     -10.099  -0.146  -1.142  1.00  0.00    -0.303 NA
HETATM    8  H5  PAP L   1      -9.685   0.679  -1.563  1.00  0.00     0.124 HD
HETATM    9  H6  PAP L   1     -10.228  -0.044  -0.141  1.00  0.00     0.124 HD
HETATM   10  O1  PAP L   1      -7.278  -4.679  -2.669  1.00  0.00    -0.361 OA
HETATM   11  H7  PAP L   1      -7.887  -5.429  -2.764  1.00  0.00     0.217 HD
HETATM    1  C1  PAP L   1     -10.428  -1.878  -3.315  1.00  0.00     0.026 A 
HETATM    2  C2  PAP L   1     -11.311  -2.814  -2.769  1.00  0.00     0.038 A 
HETATM    3  C3  PAP L   1     -11.596  -2.780  -1.411  1.00  0.00     0.065 A 
HETATM    4  C4  PAP L   1     -11.025  -1.813  -0.591  1.00  0.00     0.038 A 
HETATM    5  C5  PAP L   1     -10.142  -0.880  -1.145  1.00  0.00     0.026 A 
HETATM    6  C6  PAP L   1      -9.796  -0.935  -2.499  1.00  0.00     0.005 A 
HETATM    7  N1  PAP L   1      -9.008   0.072  -3.066  1.00  0.00    -0.303 NA
HETATM    8  H5  PAP L   1      -8.572   0.683  -2.383  1.00  0.00     0.124 HD
HETATM    9  H6  PAP L   1      -9.472   0.589  -3.806  1.00  0.00     0.124 HD
HETATM   10  O1  PAP L   1     -12.463  -3.707  -0.917  1.00  0.00    -0.361 OA
HETATM   11  H7  PAP L   1     -13.207  -3.245  -0.500  1.00  0.00     0.217 HD
HETATM    1  C1  PAP L   1      -8.976  -2.879  -3.462  1.00  0.00     0.026 A 
HETATM    2  C2  PAP L   1      -9.511  -1.693  -3.973  1.00  0.00     0.038 A 
HETATM    3  C3  PAP L   1      -9.501  -0.543  -3.196  1.00  0.00     0.065 A 
HETATM    4  C4  PAP L   1      -8.949  -0.555  -1.920  1.00  0.00     0.038 A 
HETATM    5  C5  PAP L   1      -8.417  -1.745  -1.414  1.00  0.00     0.026 A 
HETATM    6  C6  PAP L   1      -8.471  -2.928  -2.159  1.00  0.00     0.005 A 
HETATM    7  N1  PAP L   1      -7.830  -4.083  -1.695  1.00  0.00    -0.303 NA
HETATM    8  H5  PAP L   1      -6.912  -4.230  -2.099  1.00  0.00     0.124 HD
HETATM    9  H6  PAP L   1      -8.407  -4.916  -1.735  1.00  0.00     0.124 HD
HETATM   10  O1  PAP L   1     -10.029   0.593  -3.731  1.00  0.00    -0.361 OA
HETATM   11  H7  PAP L   1      -9.336   1.272  -3.765  1.00  0.00     0.217 HD
HETATM    1  C1  PAP L   1      -8.630   0.946  -6.001  1.00  0.00     0.026 A 
HETATM    2  C2  PAP L   1      -8.478  -0.439  -6.099  1.00  0.00     0.038 A 
HETATM    3  C3  PAP L   1      -8.846  -1.248  -5.033  1.00  0.00     0.065 A 
HETATM    4  C4  PAP L   1      -9.380  -0.694  -3.874  1.00  0.00     0.038 A 
HETATM    5  C5  PAP L   1      -9.528   0.693  -3.783  1.00  0.00     0.026 A 
HETATM    6  C6  PAP L   1      -9.108   1.529  -4.824  1.00  0.00     0.005 A 
HETATM    7  N1  PAP L   1      -9.370   2.903  -4.773  1.00  0.00    -0.303 NA
HETATM    8  H5  PAP L   1      -9.039   3.350  -3.925  1.00  0.00     0.124 HD
HETATM    9  H6  PAP L   1     -10.332   3.145  -4.987  1.00  0.00     0.124 HD
HETATM   10  O1  PAP L   1      -8.685  -2.594  -5.167  1.00  0.00    -0.361 OA
HETATM   11  H7  PAP L   1      -7.842  -2.848  -4.758  1.00  0.00     0.217 HD
HETATM    1  C1  PAP L   1     -10.225  -2.578  -2.374  1.00  0.00     0.026 A 
HETATM    2  C2  PAP L   1      -9.315  -3.523  -2.855  1.00  0.00     0.038 A 
HETATM    3  C3  PAP L   1      -8.112  -3.719  -2.190  1.00  0.00     0.065 A 
HETATM    4  C4  PAP L   1      -7.811  -2.996  -1.041  1.00  0.00     0.038 A 
HETATM    5  C5  PAP L   1      -8.727  -2.052  -0.566  1.00  0.00     0.026 A 
HETATM    6  C6  PAP L   1      -9.917  -1.798  -1.255  1.00  0.00     0.005 A 
HETATM    7  N1  PAP L   1     -10.878  -0.940  -0.708  1.00  0.00    -0.303 NA
HETATM    8  H5  PAP L   1     -11.127  -1.164   0.250  1.00  0.00     0.124 HD
HETATM    9  H6  PAP L   1     -11.694  -0.808  -1.297  1.00  0.00     0.124 HD
HETATM   10  O1  PAP L   1      -7.252  -4.651  -2.689  1.00  0.00    -0.361 OA
HETATM   11  H7  PAP L   1      -7.119  -5.340  -2.019  1.00  0.00     0.217 HD
HETATM    1  C1  PAP L   1      -9.874  -0.587  -2.227  1.00  0.00     0.026 A 
HETATM    2  C2  PAP L   1     -10.318  -1.594  -3.088  1.00  0.00     0.038 A 
HETATM    3  C3  PAP L   1     -10.977  -2.701  -2.570  1.00  0.00     0.065 A 
HETATM    4  C4  PAP L   1     -11.213  -2.810  -1.204  1.00  0.00     0.038 A 
HETATM    5  C5  PAP L   1     -10.764  -1.799  -0.348  1.00  0.00     0.026 A 
HETATM    6  C6  PAP L   1     -10.047  -0.705  -0.845  1.00  0.00     0.005 A 
HETATM    7  N1  PAP L   1      -9.708   0.357   0.001  1.00  0.00    -0.303 NA
HETATM    8  H5  PAP L   1     -10.276   0.408   0.840  1.00  0.00     0.124 HD
HETATM    9  H6  PAP L   1      -9.637   1.252  -0.472  1.00  0.00     0.124 HD
HETATM   10  O1  PAP L   1     -11.397  -3.659  -3.442  1.00  0.00    -0.361 OA
HETATM   11  H7  PAP L   1     -11.129  -3.402  -4.339  1.00  0.00     0.217 HD
HETATM    1  C1  PAP L   1      -9.338   1.486  -4.357  1.00  0.00     0.026 A 
HETATM    2  C2  PAP L   1      -9.655   0.151  -4.623  1.00  0.00     0.038 A 
HETATM    3  C3  PAP L   1     -10.760  -0.150  -5.407  1.00  0.00     0.065 A 
HETATM    4  C4  PAP L   1     -11.545   0.864  -5.944  1.00  0.00     0.038 A 
HETATM    5  C5  PAP L   1     -11.222   2.198  -5.673  1.00  0.00     0.026 A 
HETATM    6  C6  PAP L   1     -10.147   2.519  -4.837  1.00  0.00     0.005 A 
HETATM    7  N1  PAP L   1      -9.760   3.854  -4.669  1.00  0.00    -0.303 NA
HETATM    8  H5  PAP L   1      -8.947   4.114  -5.216  1.00  0.00     0.124 HD
HETATM    9  H6  PAP L   1      -9.680   4.139  -3.699  1.00  0.00     0.124 HD
HETATM   10  O1  PAP L   1     -11.035  -1.463  -5.645  1.00  0.00    -0.361 OA
HETATM   11  H7  PAP L   1     -11.715  -1.756  -5.017  1.00  0.00     0.217 HD
HETATM    1  C1  PAP L   1      -8.884  -1.286  -1.221  1.00  0.00     0.026 A 
HETATM    2  C2  PAP L   1      -9.503  -0.348  -2.051  1.00  0.00     0.038 A 
HETATM    3  C3  PAP L   1      -9.629  -0.608  -3.408  1.00  0.00     0.065 A 
HETATM    4  C4  PAP L   1      -9.159  -1.800  -3.948  1.00  0.00     0.038 A 
HETATM    5  C5  PAP L   1      -8.540  -2.734  -3.111  1.00  0.00     0.026 A 
HETATM    6  C6  PAP L   1      -8.351  -2.465  -1.751  1.00  0.00     0.005 A 
HETATM    7  N1  PAP L   1      -7.840  -3.453  -0.902  1.00  0.00    -0.303 NA
HETATM    8  H5  PAP L   1      -8.555  -3.963  -0.393  1.00  0.00     0.124 HD
HETATM    9  H6  PAP L   1      -7.094  -3.127  -0.296  1.00  0.00     0.124 HD
HETATM   10  O1  PAP L   1     -10.240   0.331  -4.184  1.00  0.00    -0.361 OA
HETATM   11  H7  PAP L   1     -11.026  -0.067  -4.591  1.00  0.00     0.217 HD
HETATM    1  C1  PAP L   1      -9.421  -0.745  -3.818  1.00  0.00     0.026 A 
HETATM    2  C2  PAP L   1      -9.509   0.644  -3.692  1.00  0.00     0.038 A 
HETATM    3  C3  PAP L   1      -9.091   1.456  -4.737  1.00  0.00     0.065 A 
HETATM    4  C4  PAP L   1      -8.601   0.901  -5.914  1.00  0.00     0.038 A 
HETATM    5  C5  PAP L   1      -8.515  -0.489  -6.032  1.00  0.00     0.026 A 
HETATM    6  C6  PAP L   1      -8.876  -1.323  -4.969  1.00  0.00     0.005 A 
HETATM    7  N1  PAP L   1      -8.900  -2.712  -5.139  1.00  0.00    -0.303 NA
HETATM    8  H5  PAP L   1      -8.552  -3.227  -4.337  1.00  0.00     0.124 HD
HETATM    9  H6  PAP L   1      -8.483  -3.026  -6.010  1.00  0.00     0.124 HD
HETATM   10  O1  PAP L   1      -9.195   2.805  -4.577  1.00  0.00    -0.361 OA
HETATM   11  H7  PAP L   1     -10.019   3.105  -4.994  1.00  0.00     0.217 HD
HETATM    1  C1  PAP L   1      -9.498   0.512  -3.741  1.00  0.00     0.026 A 
HETATM    2  C2  PAP L   1      -9.289  -0.861  -3.896  1.00  0.00     0.038 A 
HETATM    3  C3  PAP L   1      -8.745  -1.345  -5.078  1.00  0.00     0.065 A 
HETATM    4  C4  PAP L   1      -8.391  -0.476  -6.103  1.00  0.00     0.038 A 
HETATM    5  C5  PAP L   1      -8.604   0.897  -5.942  1.00  0.00     0.026 A 
HETATM    6  C6  PAP L   1      -9.205   1.398  -4.782  1.00  0.00     0.005 A 
HETATM    7  N1  PAP L   1      -9.304   2.780  -4.581  1.00  0.00    -0.303 NA
HETATM    8  H5  PAP L   1      -9.705   3.279  -5.367  1.00  0.00     0.124 HD
HETATM    9  H6  PAP L   1      -8.446   3.208  -4.249  1.00  0.00     0.124 HD
HETATM   10  O1  PAP L   1      -8.555  -2.690  -5.189  1.00  0.00    -0.361 OA
HETATM   11  H7  PAP L   1      -9.350  -3.143  -4.867  1.00  0.00     0.217 HD
HETATM    1  C1  PAP L   1      -8.816  -1.526  -4.937  1.00  0.00     0.026 A 
HETATM    2  C2  PAP L   1      -8.612  -0.400  -5.738  1.00  0.00     0.038 A 
HETATM    3  C3  PAP L   1      -8.888   0.863  -5.232  1.00  0.00     0.065 A 
HETATM    4  C4  PAP L   1      -9.351   1.019  -3.930  1.00  0.00     0.038 A 
HETATM    5  C5  PAP L   1      -9.554  -0.113  -3.134  1.00  0.00     0.026 A 
HETATM    6  C6  PAP L   1      -9.338  -1.397  -3.646  1.00  0.00     0.005 A 
HETATM    7  N1  PAP L   1      -9.429  -2.514  -2.807  1.00  0.00    -0.303 NA
HETATM    8  H5  PAP L   1     -10.382  -2.812  -2.626  1.00  0.00     0.124 HD
HETATM    9  H6  PAP L   1      -8.881  -2.434  -1.956  1.00  0.00     0.124 HD
HETATM   10  O1  PAP L   1      -8.673   1.936  -6.043  1.00  0.00    -0.361 OA
HETATM   11  H7  PAP L   1      -9.304   2.635  -5.806  1.00  0.00     0.217 HD
HETATM    1  C1  PAP L   1      -8.653  -2.847  -3.628  1.00  0.00     0.026 A 
HETATM    2  C2  PAP L   1      -8.631  -2.415  -4.957  1.00  0.00     0.038 A 
HETATM    3  C3  PAP L   1      -7.721  -2.971  -5.845  1.00  0.00     0.065 A 
HETATM    4  C4  PAP L   1      -6.842  -3.966  -5.430  1.00  0.00     0.038 A 
HETATM    5  C5  PAP L   1      -6.870  -4.392  -4.099  1.00  0.00     0.026 A 
HETATM    6  C6  PAP L   1      -7.738  -3.803  -3.174  1.00  0.00     0.005 A 
HETATM    7  N1  PAP L   1      -7.842  -4.318  -1.877  1.00  0.00    -0.303 NA
HETATM    8  H5  PAP L   1      -8.336  -3.708  -1.234  1.00  0.00     0.124 HD
HETATM    9  H6  PAP L   1      -6.962  -4.649  -1.496  1.00  0.00     0.124 HD
HETATM   10  O1  PAP L   1      -7.732  -2.525  -7.132  1.00  0.00    -0.361 OA
HETATM   11  H7  PAP L   1      -7.307  -1.653  -7.162  1.00  0.00     0.217 HD
