MODEL 1
REMARK VINA RESULT:      -5.5      0.000      0.000
REMARK  2 active torsions:
REMARK  status: ('A' for Active; 'I' for Inactive)
REMARK    1  A    between atoms: C3_3  and  O1_10 
REMARK    2  A    between atoms: C6_6  and  N1_7 
ROOT
HETATM    1  C1  PAP L   1      -6.414  -1.815  -0.509  1.00  0.00     0.026 A 
HETATM    2  C2  PAP L   1      -5.436  -1.151  -1.255  1.00  0.00     0.038 A 
HETATM    3  C3  PAP L   1      -5.805  -0.421  -2.376  1.00  0.00     0.065 A 
HETATM    4  C4  PAP L   1      -7.140  -0.331  -2.756  1.00  0.00     0.038 A 
HETATM    5  C5  PAP L   1      -8.112  -0.999  -2.005  1.00  0.00     0.026 A 
HETATM    6  C6  PAP L   1      -7.754  -1.787  -0.907  1.00  0.00     0.005 A 
ENDROOT
BRANCH   6   7
HETATM    7  N1  PAP L   1      -8.743  -2.353  -0.093  1.00  0.00    -0.303 NA
HETATM    8  H5  PAP L   1      -8.690  -3.364  -0.031  1.00  0.00     0.124 HD
HETATM    9  H6  PAP L   1      -9.681  -2.027  -0.301  1.00  0.00     0.124 HD
ENDBRANCH   6   7
BRANCH   3  10
HETATM   10  O1  PAP L   1      -4.824   0.214  -3.076  1.00  0.00    -0.361 OA
HETATM   11  H7  PAP L   1      -4.895   1.169  -2.914  1.00  0.00     0.217 HD
ENDBRANCH   3  10
TORSDOF 2
ENDMDL
MODEL 2
REMARK VINA RESULT:      -5.4      2.781      3.683
REMARK  2 active torsions:
REMARK  status: ('A' for Active; 'I' for Inactive)
REMARK    1  A    between atoms: C3_3  and  O1_10 
REMARK    2  A    between atoms: C6_6  and  N1_7 
ROOT
HETATM    1  C1  PAP L   1      -7.222  -0.449  -2.661  1.00  0.00     0.026 A 
HETATM    2  C2  PAP L   1      -8.194  -1.101  -1.897  1.00  0.00     0.038 A 
HETATM    3  C3  PAP L   1      -7.818  -1.807  -0.763  1.00  0.00     0.065 A 
HETATM    4  C4  PAP L   1      -6.485  -1.858  -0.370  1.00  0.00     0.038 A 
HETATM    5  C5  PAP L   1      -5.518  -1.204  -1.139  1.00  0.00     0.026 A 
HETATM    6  C6  PAP L   1      -5.870  -0.537  -2.318  1.00  0.00     0.005 A 
ENDROOT
BRANCH   6   7
HETATM    7  N1  PAP L   1      -4.915   0.212  -3.014  1.00  0.00    -0.303 NA
HETATM    8  H5  PAP L   1      -4.640  -0.199  -3.900  1.00  0.00     0.124 HD
HETATM    9  H6  PAP L   1      -4.117   0.485  -2.451  1.00  0.00     0.124 HD
ENDBRANCH   6   7
BRANCH   3  10
HETATM   10  O1  PAP L   1      -8.795  -2.426  -0.044  1.00  0.00    -0.361 OA
HETATM   11  H7  PAP L   1      -9.399  -2.871  -0.660  1.00  0.00     0.217 HD
ENDBRANCH   3  10
TORSDOF 2
ENDMDL
MODEL 3
REMARK VINA RESULT:      -5.4      0.077      1.705
REMARK  2 active torsions:
REMARK  status: ('A' for Active; 'I' for Inactive)
REMARK    1  A    between atoms: C3_3  and  O1_10 
REMARK    2  A    between atoms: C6_6  and  N1_7 
ROOT
HETATM    1  C1  PAP L   1      -8.091  -0.982  -2.007  1.00  0.00     0.026 A 
HETATM    2  C2  PAP L   1      -7.088  -0.352  -2.748  1.00  0.00     0.038 A 
HETATM    3  C3  PAP L   1      -5.767  -0.437  -2.329  1.00  0.00     0.065 A 
HETATM    4  C4  PAP L   1      -5.431  -1.155  -1.187  1.00  0.00     0.038 A 
HETATM    5  C5  PAP L   1      -6.440  -1.782  -0.450  1.00  0.00     0.026 A 
HETATM    6  C6  PAP L   1      -7.783  -1.659  -0.823  1.00  0.00     0.005 A 
ENDROOT
BRANCH   6   7
HETATM    7  N1  PAP L   1      -8.770  -2.387  -0.150  1.00  0.00    -0.303 NA
HETATM    8  H5  PAP L   1      -9.196  -1.881   0.620  1.00  0.00     0.124 HD
HETATM    9  H6  PAP L   1      -8.481  -3.323   0.117  1.00  0.00     0.124 HD
ENDBRANCH   6   7
BRANCH   3  10
HETATM   10  O1  PAP L   1      -4.818   0.189  -3.080  1.00  0.00    -0.361 OA
HETATM   11  H7  PAP L   1      -5.256   0.640  -3.820  1.00  0.00     0.217 HD
ENDBRANCH   3  10
TORSDOF 2
ENDMDL
MODEL 4
REMARK VINA RESULT:      -5.4      2.780      3.265
REMARK  2 active torsions:
REMARK  status: ('A' for Active; 'I' for Inactive)
REMARK    1  A    between atoms: C3_3  and  O1_10 
REMARK    2  A    between atoms: C6_6  and  N1_7 
ROOT
HETATM    1  C1  PAP L   1      -5.564  -1.153  -1.154  1.00  0.00     0.026 A 
HETATM    2  C2  PAP L   1      -6.541  -1.826  -0.415  1.00  0.00     0.038 A 
HETATM    3  C3  PAP L   1      -7.869  -1.763  -0.813  1.00  0.00     0.065 A 
HETATM    4  C4  PAP L   1      -8.235  -1.052  -1.950  1.00  0.00     0.038 A 
HETATM    5  C5  PAP L   1      -7.253  -0.380  -2.684  1.00  0.00     0.026 A 
HETATM    6  C6  PAP L   1      -5.918  -0.382  -2.266  1.00  0.00     0.005 A 
ENDROOT
BRANCH   6   7
HETATM    7  N1  PAP L   1      -4.927   0.190  -3.071  1.00  0.00    -0.303 NA
HETATM    8  H5  PAP L   1      -5.292   0.787  -3.805  1.00  0.00     0.124 HD
HETATM    9  H6  PAP L   1      -4.245  -0.476  -3.418  1.00  0.00     0.124 HD
ENDBRANCH   6   7
BRANCH   3  10
HETATM   10  O1  PAP L   1      -8.791  -2.434  -0.067  1.00  0.00    -0.361 OA
HETATM   11  H7  PAP L   1      -8.534  -2.379   0.867  1.00  0.00     0.217 HD
ENDBRANCH   3  10
TORSDOF 2
ENDMDL
MODEL 5
REMARK VINA RESULT:      -5.1      2.820      3.673
REMARK  2 active torsions:
REMARK  status: ('A' for Active; 'I' for Inactive)
REMARK    1  A    between atoms: C3_3  and  O1_10 
REMARK    2  A    between atoms: C6_6  and  N1_7 
ROOT
HETATM    1  C1  PAP L   1      -7.597  -0.238  -3.512  1.00  0.00     0.026 A 
HETATM    2  C2  PAP L   1      -7.779  -1.257  -2.574  1.00  0.00     0.038 A 
HETATM    3  C3  PAP L   1      -6.763  -1.554  -1.676  1.00  0.00     0.065 A 
HETATM    4  C4  PAP L   1      -5.572  -0.837  -1.691  1.00  0.00     0.038 A 
HETATM    5  C5  PAP L   1      -5.396   0.181  -2.634  1.00  0.00     0.026 A 
HETATM    6  C6  PAP L   1      -6.385   0.456  -3.585  1.00  0.00     0.005 A 
ENDROOT
BRANCH   6   7
HETATM    7  N1  PAP L   1      -6.250   1.552  -4.444  1.00  0.00    -0.303 NA
HETATM    8  H5  PAP L   1      -5.407   2.094  -4.284  1.00  0.00     0.124 HD
HETATM    9  H6  PAP L   1      -7.079   2.135  -4.499  1.00  0.00     0.124 HD
ENDBRANCH   6   7
BRANCH   3  10
HETATM   10  O1  PAP L   1      -6.980  -2.553  -0.775  1.00  0.00    -0.361 OA
HETATM   11  H7  PAP L   1      -7.395  -3.300  -1.234  1.00  0.00     0.217 HD
ENDBRANCH   3  10
TORSDOF 2
ENDMDL
MODEL 6
REMARK VINA RESULT:      -4.9      2.555      3.267
REMARK  2 active torsions:
REMARK  status: ('A' for Active; 'I' for Inactive)
REMARK    1  A    between atoms: C3_3  and  O1_10 
REMARK    2  A    between atoms: C6_6  and  N1_7 
ROOT
HETATM    1  C1  PAP L   1      -5.491   0.094  -2.650  1.00  0.00     0.026 A 
HETATM    2  C2  PAP L   1      -6.458  -0.669  -3.310  1.00  0.00     0.038 A 
HETATM    3  C3  PAP L   1      -7.151  -1.650  -2.615  1.00  0.00     0.065 A 
HETATM    4  C4  PAP L   1      -6.904  -1.870  -1.264  1.00  0.00     0.038 A 
HETATM    5  C5  PAP L   1      -5.934  -1.103  -0.611  1.00  0.00     0.026 A 
HETATM    6  C6  PAP L   1      -5.184  -0.150  -1.308  1.00  0.00     0.005 A 
ENDROOT
BRANCH   6   7
HETATM    7  N1  PAP L   1      -4.302   0.692  -0.622  1.00  0.00    -0.303 NA
HETATM    8  H5  PAP L   1      -3.772   1.309  -1.228  1.00  0.00     0.124 HD
HETATM    9  H6  PAP L   1      -3.713   0.211   0.050  1.00  0.00     0.124 HD
ENDBRANCH   6   7
BRANCH   3  10
HETATM   10  O1  PAP L   1      -8.088  -2.371  -3.292  1.00  0.00    -0.361 OA
HETATM   11  H7  PAP L   1      -8.815  -2.583  -2.685  1.00  0.00     0.217 HD
ENDBRANCH   3  10
TORSDOF 2
ENDMDL
MODEL 7
REMARK VINA RESULT:      -4.9      1.670      1.960
REMARK  2 active torsions:
REMARK  status: ('A' for Active; 'I' for Inactive)
REMARK    1  A    between atoms: C3_3  and  O1_10 
REMARK    2  A    between atoms: C6_6  and  N1_7 
ROOT
HETATM    1  C1  PAP L   1      -6.958  -1.865  -1.311  1.00  0.00     0.026 A 
HETATM    2  C2  PAP L   1      -5.968  -1.137  -0.645  1.00  0.00     0.038 A 
HETATM    3  C3  PAP L   1      -5.243  -0.174  -1.333  1.00  0.00     0.065 A 
HETATM    4  C4  PAP L   1      -5.502   0.085  -2.674  1.00  0.00     0.038 A 
HETATM    5  C5  PAP L   1      -6.493  -0.648  -3.335  1.00  0.00     0.026 A 
HETATM    6  C6  PAP L   1      -7.194  -1.663  -2.675  1.00  0.00     0.005 A 
ENDROOT
BRANCH   6   7
HETATM    7  N1  PAP L   1      -8.263  -2.308  -3.308  1.00  0.00    -0.303 NA
HETATM    8  H5  PAP L   1      -8.492  -1.920  -4.217  1.00  0.00     0.124 HD
HETATM    9  H6  PAP L   1      -9.082  -2.419  -2.719  1.00  0.00     0.124 HD
ENDBRANCH   6   7
BRANCH   3  10
HETATM   10  O1  PAP L   1      -4.289   0.516  -0.648  1.00  0.00    -0.361 OA
HETATM   11  H7  PAP L   1      -4.638   0.741   0.229  1.00  0.00     0.217 HD
ENDBRANCH   3  10
TORSDOF 2
ENDMDL
MODEL 8
REMARK VINA RESULT:      -4.9      2.524      2.988
REMARK  2 active torsions:
REMARK  status: ('A' for Active; 'I' for Inactive)
REMARK    1  A    between atoms: C3_3  and  O1_10 
REMARK    2  A    between atoms: C6_6  and  N1_7 
ROOT
HETATM    1  C1  PAP L   1      -5.812  -1.515  -0.129  1.00  0.00     0.026 A 
HETATM    2  C2  PAP L   1      -6.854  -2.114  -0.842  1.00  0.00     0.038 A 
HETATM    3  C3  PAP L   1      -7.137  -1.688  -2.133  1.00  0.00     0.065 A 
HETATM    4  C4  PAP L   1      -6.383  -0.683  -2.729  1.00  0.00     0.038 A 
HETATM    5  C5  PAP L   1      -5.343  -0.088  -2.008  1.00  0.00     0.026 A 
HETATM    6  C6  PAP L   1      -5.080  -0.462  -0.686  1.00  0.00     0.005 A 
ENDROOT
BRANCH   6   7
HETATM    7  N1  PAP L   1      -3.964   0.052  -0.016  1.00  0.00    -0.303 NA
HETATM    8  H5  PAP L   1      -3.097  -0.045  -0.534  1.00  0.00     0.124 HD
HETATM    9  H6  PAP L   1      -3.879  -0.266   0.944  1.00  0.00     0.124 HD
ENDBRANCH   6   7
BRANCH   3  10
HETATM   10  O1  PAP L   1      -8.158  -2.298  -2.797  1.00  0.00    -0.361 OA
HETATM   11  H7  PAP L   1      -7.801  -2.727  -3.590  1.00  0.00     0.217 HD
ENDBRANCH   3  10
TORSDOF 2
ENDMDL
MODEL 9
REMARK VINA RESULT:      -4.9      3.037      3.768
REMARK  2 active torsions:
REMARK  status: ('A' for Active; 'I' for Inactive)
REMARK    1  A    between atoms: C3_3  and  O1_10 
REMARK    2  A    between atoms: C6_6  and  N1_7 
ROOT
HETATM    1  C1  PAP L   1      -4.643   0.779  -1.165  1.00  0.00     0.026 A 
HETATM    2  C2  PAP L   1      -4.382   0.782   0.208  1.00  0.00     0.038 A 
HETATM    3  C3  PAP L   1      -4.762  -0.305   0.983  1.00  0.00     0.065 A 
HETATM    4  C4  PAP L   1      -5.384  -1.405   0.403  1.00  0.00     0.038 A 
HETATM    5  C5  PAP L   1      -5.642  -1.401  -0.971  1.00  0.00     0.026 A 
HETATM    6  C6  PAP L   1      -5.321  -0.290  -1.758  1.00  0.00     0.005 A 
ENDROOT
BRANCH   6   7
HETATM    7  N1  PAP L   1      -5.473  -0.344  -3.148  1.00  0.00    -0.303 NA
HETATM    8  H5  PAP L   1      -5.557  -1.287  -3.513  1.00  0.00     0.124 HD
HETATM    9  H6  PAP L   1      -4.791   0.208  -3.658  1.00  0.00     0.124 HD
ENDBRANCH   6   7
BRANCH   3  10
HETATM   10  O1  PAP L   1      -4.489  -0.265   2.317  1.00  0.00    -0.361 OA
HETATM   11  H7  PAP L   1      -3.634   0.177   2.445  1.00  0.00     0.217 HD
ENDBRANCH   3  10
TORSDOF 2
ENDMDL
MODEL 10
REMARK VINA RESULT:      -4.7      2.396      3.095
REMARK  2 active torsions:
REMARK  status: ('A' for Active; 'I' for Inactive)
REMARK    1  A    between atoms: C3_3  and  O1_10 
REMARK    2  A    between atoms: C6_6  and  N1_7 
ROOT
HETATM    1  C1  PAP L   1      -4.527   0.661  -0.153  1.00  0.00     0.026 A 
HETATM    2  C2  PAP L   1      -4.834   0.458  -1.501  1.00  0.00     0.038 A 
HETATM    3  C3  PAP L   1      -5.444  -0.724  -1.896  1.00  0.00     0.065 A 
HETATM    4  C4  PAP L   1      -5.768  -1.702  -0.961  1.00  0.00     0.038 A 
HETATM    5  C5  PAP L   1      -5.456  -1.492   0.386  1.00  0.00     0.026 A 
HETATM    6  C6  PAP L   1      -4.788  -0.333   0.795  1.00  0.00     0.005 A 
ENDROOT
BRANCH   6   7
HETATM    7  N1  PAP L   1      -4.589  -0.079   2.157  1.00  0.00    -0.303 NA
HETATM    8  H5  PAP L   1      -3.853   0.594   2.343  1.00  0.00     0.124 HD
HETATM    9  H6  PAP L   1      -4.498  -0.917   2.722  1.00  0.00     0.124 HD
ENDBRANCH   6   7
BRANCH   3  10
HETATM   10  O1  PAP L   1      -5.730  -0.884  -3.218  1.00  0.00    -0.361 OA
HETATM   11  H7  PAP L   1      -5.076  -1.488  -3.606  1.00  0.00     0.217 HD
ENDBRANCH   3  10
TORSDOF 2
ENDMDL
MODEL 11
REMARK VINA RESULT:      -4.5      3.170      3.794
REMARK  2 active torsions:
REMARK  status: ('A' for Active; 'I' for Inactive)
REMARK    1  A    between atoms: C3_3  and  O1_10 
REMARK    2  A    between atoms: C6_6  and  N1_7 
ROOT
HETATM    1  C1  PAP L   1      -7.395  -0.108  -2.399  1.00  0.00     0.026 A 
HETATM    2  C2  PAP L   1      -8.636  -0.738  -2.525  1.00  0.00     0.038 A 
HETATM    3  C3  PAP L   1      -8.787  -1.787  -3.421  1.00  0.00     0.065 A 
HETATM    4  C4  PAP L   1      -7.711  -2.228  -4.184  1.00  0.00     0.038 A 
HETATM    5  C5  PAP L   1      -6.472  -1.592  -4.054  1.00  0.00     0.026 A 
HETATM    6  C6  PAP L   1      -6.315  -0.495  -3.199  1.00  0.00     0.005 A 
ENDROOT
BRANCH   6   7
HETATM    7  N1  PAP L   1      -5.047   0.056  -2.987  1.00  0.00    -0.303 NA
HETATM    8  H5  PAP L   1      -5.069   0.982  -2.573  1.00  0.00     0.124 HD
HETATM    9  H6  PAP L   1      -4.438   0.010  -3.797  1.00  0.00     0.124 HD
ENDBRANCH   6   7
BRANCH   3  10
HETATM   10  O1  PAP L   1     -10.011  -2.377  -3.513  1.00  0.00    -0.361 OA
HETATM   11  H7  PAP L   1     -10.467  -2.280  -2.662  1.00  0.00     0.217 HD
ENDBRANCH   3  10
TORSDOF 2
ENDMDL
MODEL 12
REMARK VINA RESULT:      -4.4     11.462     11.957
REMARK  2 active torsions:
REMARK  status: ('A' for Active; 'I' for Inactive)
REMARK    1  A    between atoms: C3_3  and  O1_10 
REMARK    2  A    between atoms: C6_6  and  N1_7 
ROOT
HETATM    1  C1  PAP L   1      -7.959   5.442   7.228  1.00  0.00     0.026 A 
HETATM    2  C2  PAP L   1      -7.986   6.038   8.492  1.00  0.00     0.038 A 
HETATM    3  C3  PAP L   1      -7.624   5.298   9.609  1.00  0.00     0.065 A 
HETATM    4  C4  PAP L   1      -7.218   3.974   9.481  1.00  0.00     0.038 A 
HETATM    5  C5  PAP L   1      -7.194   3.384   8.213  1.00  0.00     0.026 A 
HETATM    6  C6  PAP L   1      -7.612   4.096   7.083  1.00  0.00     0.005 A 
ENDROOT
BRANCH   6   7
HETATM    7  N1  PAP L   1      -7.471   3.538   5.807  1.00  0.00    -0.303 NA
HETATM    8  H5  PAP L   1      -6.819   4.038   5.213  1.00  0.00     0.124 HD
HETATM    9  H6  PAP L   1      -8.353   3.351   5.341  1.00  0.00     0.124 HD
ENDBRANCH   6   7
BRANCH   3  10
HETATM   10  O1  PAP L   1      -7.661   5.915  10.823  1.00  0.00    -0.361 OA
HETATM   11  H7  PAP L   1      -8.540   6.308  10.944  1.00  0.00     0.217 HD
ENDBRANCH   3  10
TORSDOF 2
ENDMDL
MODEL 13
REMARK VINA RESULT:      -4.4      1.859      2.222
REMARK  2 active torsions:
REMARK  status: ('A' for Active; 'I' for Inactive)
REMARK    1  A    between atoms: C3_3  and  O1_10 
REMARK    2  A    between atoms: C6_6  and  N1_7 
ROOT
HETATM    1  C1  PAP L   1      -8.391  -0.407  -2.022  1.00  0.00     0.026 A 
HETATM    2  C2  PAP L   1      -7.028  -0.100  -2.045  1.00  0.00     0.038 A 
HETATM    3  C3  PAP L   1      -6.238  -0.556  -3.091  1.00  0.00     0.065 A 
HETATM    4  C4  PAP L   1      -6.793  -1.303  -4.125  1.00  0.00     0.038 A 
HETATM    5  C5  PAP L   1      -8.158  -1.607  -4.094  1.00  0.00     0.026 A 
HETATM    6  C6  PAP L   1      -8.958  -1.206  -3.019  1.00  0.00     0.005 A 
ENDROOT
BRANCH   6   7
HETATM    7  N1  PAP L   1     -10.342  -1.411  -3.056  1.00  0.00    -0.303 NA
HETATM    8  H5  PAP L   1     -10.818  -1.132  -2.205  1.00  0.00     0.124 HD
HETATM    9  H6  PAP L   1     -10.611  -2.341  -3.362  1.00  0.00     0.124 HD
ENDBRANCH   6   7
BRANCH   3  10
HETATM   10  O1  PAP L   1      -4.914  -0.234  -3.079  1.00  0.00    -0.361 OA
HETATM   11  H7  PAP L   1      -4.686   0.172  -3.931  1.00  0.00     0.217 HD
ENDBRANCH   3  10
TORSDOF 2
ENDMDL
MODEL 14
REMARK VINA RESULT:      -4.3     11.376     11.945
REMARK  2 active torsions:
REMARK  status: ('A' for Active; 'I' for Inactive)
REMARK    1  A    between atoms: C3_3  and  O1_10 
REMARK    2  A    between atoms: C6_6  and  N1_7 
ROOT
HETATM    1  C1  PAP L   1      -7.595   5.209   8.500  1.00  0.00     0.026 A 
HETATM    2  C2  PAP L   1      -7.541   4.633   9.773  1.00  0.00     0.038 A 
HETATM    3  C3  PAP L   1      -6.915   3.406   9.946  1.00  0.00     0.065 A 
HETATM    4  C4  PAP L   1      -6.327   2.752   8.869  1.00  0.00     0.038 A 
HETATM    5  C5  PAP L   1      -6.386   3.334   7.598  1.00  0.00     0.026 A 
HETATM    6  C6  PAP L   1      -7.064   4.541   7.393  1.00  0.00     0.005 A 
ENDROOT
BRANCH   6   7
HETATM    7  N1  PAP L   1      -7.014   5.173   6.145  1.00  0.00    -0.303 NA
HETATM    8  H5  PAP L   1      -6.866   6.175   6.201  1.00  0.00     0.124 HD
HETATM    9  H6  PAP L   1      -7.786   4.930   5.532  1.00  0.00     0.124 HD
ENDBRANCH   6   7
BRANCH   3  10
HETATM   10  O1  PAP L   1      -6.881   2.879  11.201  1.00  0.00    -0.361 OA
HETATM   11  H7  PAP L   1      -6.797   3.604  11.841  1.00  0.00     0.217 HD
ENDBRANCH   3  10
TORSDOF 2
ENDMDL
MODEL 15
REMARK VINA RESULT:      -4.3     12.108     12.387
REMARK  2 active torsions:
REMARK  status: ('A' for Active; 'I' for Inactive)
REMARK    1  A    between atoms: C3_3  and  O1_10 
REMARK    2  A    between atoms: C6_6  and  N1_7 
ROOT
HETATM    1  C1  PAP L   1      -3.848   3.285   9.535  1.00  0.00     0.026 A 
HETATM    2  C2  PAP L   1      -2.930   3.749   8.588  1.00  0.00     0.038 A 
HETATM    3  C3  PAP L   1      -3.070   5.026   8.064  1.00  0.00     0.065 A 
HETATM    4  C4  PAP L   1      -4.104   5.855   8.484  1.00  0.00     0.038 A 
HETATM    5  C5  PAP L   1      -5.019   5.384   9.431  1.00  0.00     0.026 A 
HETATM    6  C6  PAP L   1      -4.929   4.079   9.927  1.00  0.00     0.005 A 
ENDROOT
BRANCH   6   7
HETATM    7  N1  PAP L   1      -5.775   3.659  10.960  1.00  0.00    -0.303 NA
HETATM    8  H5  PAP L   1      -5.418   2.865  11.481  1.00  0.00     0.124 HD
HETATM    9  H6  PAP L   1      -6.740   3.531  10.674  1.00  0.00     0.124 HD
ENDBRANCH   6   7
BRANCH   3  10
HETATM   10  O1  PAP L   1      -2.155   5.443   7.144  1.00  0.00    -0.361 OA
HETATM   11  H7  PAP L   1      -2.614   5.953   6.458  1.00  0.00     0.217 HD
ENDBRANCH   3  10
TORSDOF 2
ENDMDL
MODEL 16
REMARK VINA RESULT:      -4.3     10.863     11.462
REMARK  2 active torsions:
REMARK  status: ('A' for Active; 'I' for Inactive)
REMARK    1  A    between atoms: C3_3  and  O1_10 
REMARK    2  A    between atoms: C6_6  and  N1_7 
ROOT
HETATM    1  C1  PAP L   1      -6.145   3.350   8.641  1.00  0.00     0.026 A 
HETATM    2  C2  PAP L   1      -5.556   3.291   7.375  1.00  0.00     0.038 A 
HETATM    3  C3  PAP L   1      -4.179   3.415   7.251  1.00  0.00     0.065 A 
HETATM    4  C4  PAP L   1      -3.378   3.581   8.375  1.00  0.00     0.038 A 
HETATM    5  C5  PAP L   1      -3.975   3.640   9.639  1.00  0.00     0.026 A 
HETATM    6  C6  PAP L   1      -5.365   3.577   9.779  1.00  0.00     0.005 A 
ENDROOT
BRANCH   6   7
HETATM    7  N1  PAP L   1      -5.942   3.516  11.052  1.00  0.00    -0.303 NA
HETATM    8  H5  PAP L   1      -6.906   3.198  11.049  1.00  0.00     0.124 HD
HETATM    9  H6  PAP L   1      -5.817   4.361  11.600  1.00  0.00     0.124 HD
ENDBRANCH   6   7
BRANCH   3  10
HETATM   10  O1  PAP L   1      -3.642   3.350   6.000  1.00  0.00    -0.361 OA
HETATM   11  H7  PAP L   1      -2.679   3.264   6.080  1.00  0.00     0.217 HD
ENDBRANCH   3  10
TORSDOF 2
ENDMDL
MODEL 17
REMARK VINA RESULT:      -4.2      7.340      7.668
REMARK  2 active torsions:
REMARK  status: ('A' for Active; 'I' for Inactive)
REMARK    1  A    between atoms: C3_3  and  O1_10 
REMARK    2  A    between atoms: C6_6  and  N1_7 
ROOT
HETATM    1  C1  PAP L   1      -4.961   2.422   4.269  1.00  0.00     0.026 A 
HETATM    2  C2  PAP L   1      -5.820   2.893   5.266  1.00  0.00     0.038 A 
HETATM    3  C3  PAP L   1      -6.888   3.710   4.923  1.00  0.00     0.065 A 
HETATM    4  C4  PAP L   1      -7.122   4.052   3.595  1.00  0.00     0.038 A 
HETATM    5  C5  PAP L   1      -6.258   3.577   2.603  1.00  0.00     0.026 A 
HETATM    6  C6  PAP L   1      -5.142   2.801   2.935  1.00  0.00     0.005 A 
ENDROOT
BRANCH   6   7
HETATM    7  N1  PAP L   1      -4.354   2.234   1.927  1.00  0.00    -0.303 NA
HETATM    8  H5  PAP L   1      -3.704   2.886   1.502  1.00  0.00     0.124 HD
HETATM    9  H6  PAP L   1      -4.884   1.712   1.237  1.00  0.00     0.124 HD
ENDBRANCH   6   7
BRANCH   3  10
HETATM   10  O1  PAP L   1      -7.704   4.147   5.923  1.00  0.00    -0.361 OA
HETATM   11  H7  PAP L   1      -8.607   3.841   5.743  1.00  0.00     0.217 HD
ENDBRANCH   3  10
TORSDOF 2
ENDMDL
MODEL 18
REMARK VINA RESULT:      -4.2     10.642     11.118
REMARK  2 active torsions:
REMARK  status: ('A' for Active; 'I' for Inactive)
REMARK    1  A    between atoms: C3_3  and  O1_10 
REMARK    2  A    between atoms: C6_6  and  N1_7 
ROOT
HETATM    1  C1  PAP L   1      -4.880   3.276   8.981  1.00  0.00     0.026 A 
HETATM    2  C2  PAP L   1      -4.924   3.315   7.585  1.00  0.00     0.038 A 
HETATM    3  C3  PAP L   1      -6.133   3.536   6.941  1.00  0.00     0.065 A 
HETATM    4  C4  PAP L   1      -7.299   3.736   7.672  1.00  0.00     0.038 A 
HETATM    5  C5  PAP L   1      -7.247   3.695   9.069  1.00  0.00     0.026 A 
HETATM    6  C6  PAP L   1      -6.049   3.415   9.735  1.00  0.00     0.005 A 
ENDROOT
BRANCH   6   7
HETATM    7  N1  PAP L   1      -5.983   3.494  11.130  1.00  0.00    -0.303 NA
HETATM    8  H5  PAP L   1      -6.040   2.594  11.593  1.00  0.00     0.124 HD
HETATM    9  H6  PAP L   1      -6.619   4.176  11.533  1.00  0.00     0.124 HD
ENDBRANCH   6   7
BRANCH   3  10
HETATM   10  O1  PAP L   1      -6.135   3.569   5.579  1.00  0.00    -0.361 OA
HETATM   11  H7  PAP L   1      -6.327   2.677   5.248  1.00  0.00     0.217 HD
ENDBRANCH   3  10
TORSDOF 2
ENDMDL
MODEL 19
REMARK VINA RESULT:      -4.2      6.975      7.191
REMARK  2 active torsions:
REMARK  status: ('A' for Active; 'I' for Inactive)
REMARK    1  A    between atoms: C3_3  and  O1_10 
REMARK    2  A    between atoms: C6_6  and  N1_7 
ROOT
HETATM    1  C1  PAP L   1      -5.757   2.742   5.290  1.00  0.00     0.026 A 
HETATM    2  C2  PAP L   1      -4.925   2.362   4.233  1.00  0.00     0.038 A 
HETATM    3  C3  PAP L   1      -5.228   2.765   2.940  1.00  0.00     0.065 A 
HETATM    4  C4  PAP L   1      -6.343   3.557   2.688  1.00  0.00     0.038 A 
HETATM    5  C5  PAP L   1      -7.172   3.932   3.750  1.00  0.00     0.026 A 
HETATM    6  C6  PAP L   1      -6.916   3.487   5.051  1.00  0.00     0.005 A 
ENDROOT
BRANCH   6   7
HETATM    7  N1  PAP L   1      -7.680   3.965   6.122  1.00  0.00    -0.303 NA
HETATM    8  H5  PAP L   1      -7.510   3.475   6.995  1.00  0.00     0.124 HD
HETATM    9  H6  PAP L   1      -8.669   4.051   5.914  1.00  0.00     0.124 HD
ENDBRANCH   6   7
BRANCH   3  10
HETATM   10  O1  PAP L   1      -4.392   2.376   1.938  1.00  0.00    -0.361 OA
HETATM   11  H7  PAP L   1      -4.063   1.485   2.136  1.00  0.00     0.217 HD
ENDBRANCH   3  10
TORSDOF 2
ENDMDL
MODEL 20
REMARK VINA RESULT:      -4.2      7.623      7.911
REMARK  2 active torsions:
REMARK  status: ('A' for Active; 'I' for Inactive)
REMARK    1  A    between atoms: C3_3  and  O1_10 
REMARK    2  A    between atoms: C6_6  and  N1_7 
ROOT
HETATM    1  C1  PAP L   1      -4.987   5.580   3.772  1.00  0.00     0.026 A 
HETATM    2  C2  PAP L   1      -4.245   4.452   4.134  1.00  0.00     0.038 A 
HETATM    3  C3  PAP L   1      -4.654   3.195   3.711  1.00  0.00     0.065 A 
HETATM    4  C4  PAP L   1      -5.787   3.048   2.918  1.00  0.00     0.038 A 
HETATM    5  C5  PAP L   1      -6.525   4.181   2.561  1.00  0.00     0.026 A 
HETATM    6  C6  PAP L   1      -6.162   5.449   3.026  1.00  0.00     0.005 A 
ENDROOT
BRANCH   6   7
HETATM    7  N1  PAP L   1      -6.835   6.587   2.566  1.00  0.00    -0.303 NA
HETATM    8  H5  PAP L   1      -7.668   6.378   2.026  1.00  0.00     0.124 HD
HETATM    9  H6  PAP L   1      -6.233   7.261   2.103  1.00  0.00     0.124 HD
ENDBRANCH   6   7
BRANCH   3  10
HETATM   10  O1  PAP L   1      -3.903   2.121   4.082  1.00  0.00    -0.361 OA
HETATM   11  H7  PAP L   1      -3.973   1.440   3.394  1.00  0.00     0.217 HD
ENDBRANCH   3  10
TORSDOF 2
ENDMDL
