MODEL 1
REMARK VINA RESULT:      -2.9      0.000      0.000
REMARK  2 active torsions:
REMARK  status: ('A' for Active; 'I' for Inactive)
REMARK    1  A    between atoms: C3_3  and  O1_8 
REMARK    2  A    between atoms: C6_6  and  N1_7 
ROOT
HETATM    1  C1  UNL     1      15.833  14.067  -4.092  1.00  0.00     0.026 A 
HETATM    2  C2  UNL     1      15.011  14.907  -4.848  1.00  0.00     0.038 A 
HETATM    3  C3  UNL     1      15.539  15.591  -5.933  1.00  0.00     0.065 A 
HETATM    4  C4  UNL     1      16.875  15.436  -6.285  1.00  0.00     0.038 A 
HETATM    5  C5  UNL     1      17.692  14.596  -5.523  1.00  0.00     0.026 A 
HETATM    6  C6  UNL     1      17.193  13.944  -4.391  1.00  0.00     0.005 A 
ENDROOT
BRANCH   6   7
HETATM    7  N1  UNL     1      17.984  13.014  -3.707  1.00  0.00    -0.303 NA
HETATM    8  H5  UNL     1      18.744  13.434  -3.181  1.00  0.00     0.124 HD
HETATM    9  H6  UNL     1      18.295  12.238  -4.282  1.00  0.00     0.124 HD
ENDBRANCH   6   7
BRANCH   3  10
HETATM   10  O1  UNL     1      14.705  16.398  -6.647  1.00  0.00    -0.361 OA
HETATM   11  H7  UNL     1      14.062  16.795  -6.037  1.00  0.00     0.217 HD
ENDBRANCH   3  10
TORSDOF 2
ENDMDL
MODEL 2
REMARK VINA RESULT:      -2.8      2.621      3.277
REMARK  2 active torsions:
REMARK  status: ('A' for Active; 'I' for Inactive)
REMARK    1  A    between atoms: C3_3  and  O1_8 
REMARK    2  A    between atoms: C6_6  and  N1_7 
ROOT
HETATM    1  C1  UNL     1      16.408  14.260  -5.560  1.00  0.00     0.026 A 
HETATM    2  C2  UNL     1      16.289  14.184  -4.171  1.00  0.00     0.038 A 
HETATM    3  C3  UNL     1      15.519  15.119  -3.494  1.00  0.00     0.065 A 
HETATM    4  C4  UNL     1      14.851  16.122  -4.188  1.00  0.00     0.038 A 
HETATM    5  C5  UNL     1      14.976  16.193  -5.578  1.00  0.00     0.026 A 
HETATM    6  C6  UNL     1      15.794  15.296  -6.272  1.00  0.00     0.005 A 
ENDROOT
BRANCH   6   7
HETATM    7  N1  UNL     1      15.818  15.300  -7.671  1.00  0.00    -0.303 NA
HETATM    8  H5  UNL     1      16.696  15.626  -8.063  1.00  0.00     0.124 HD
HETATM    9  H6  UNL     1      15.015  15.753  -8.094  1.00  0.00     0.124 HD
ENDBRANCH   6   7
BRANCH   3  10
HETATM   10  O1  UNL     1      15.425  15.009  -2.139  1.00  0.00    -0.361 OA
HETATM   11  H7  UNL     1      16.266  14.665  -1.797  1.00  0.00     0.217 HD
ENDBRANCH   3  10
TORSDOF 2
ENDMDL
MODEL 3
REMARK VINA RESULT:      -2.8      1.756      2.150
REMARK  2 active torsions:
REMARK  status: ('A' for Active; 'I' for Inactive)
REMARK    1  A    between atoms: C3_3  and  O1_8 
REMARK    2  A    between atoms: C6_6  and  N1_7 
ROOT
HETATM    1  C1  UNL     1      14.868  16.140  -4.161  1.00  0.00     0.026 A 
HETATM    2  C2  UNL     1      14.959  16.126  -5.555  1.00  0.00     0.038 A 
HETATM    3  C3  UNL     1      15.741  15.167  -6.183  1.00  0.00     0.065 A 
HETATM    4  C4  UNL     1      16.423  14.211  -5.439  1.00  0.00     0.038 A 
HETATM    5  C5  UNL     1      16.328  14.232  -4.044  1.00  0.00     0.026 A 
HETATM    6  C6  UNL     1      15.592  15.226  -3.390  1.00  0.00     0.005 A 
ENDROOT
BRANCH   6   7
HETATM    7  N1  UNL     1      15.406  15.168  -2.004  1.00  0.00    -0.303 NA
HETATM    8  H5  UNL     1      15.598  14.255  -1.605  1.00  0.00     0.124 HD
HETATM    9  H6  UNL     1      14.518  15.547  -1.693  1.00  0.00     0.124 HD
ENDBRANCH   6   7
BRANCH   3  10
HETATM   10  O1  UNL     1      15.802  15.185  -7.544  1.00  0.00    -0.361 OA
HETATM   11  H7  UNL     1      16.533  14.614  -7.829  1.00  0.00     0.217 HD
ENDBRANCH   3  10
TORSDOF 2
ENDMDL
MODEL 4
REMARK VINA RESULT:      -2.8      2.779      3.681
REMARK  2 active torsions:
REMARK  status: ('A' for Active; 'I' for Inactive)
REMARK    1  A    between atoms: C3_3  and  O1_8 
REMARK    2  A    between atoms: C6_6  and  N1_7 
ROOT
HETATM    1  C1  UNL     1      16.850  15.494  -6.304  1.00  0.00     0.026 A 
HETATM    2  C2  UNL     1      17.635  14.579  -5.598  1.00  0.00     0.038 A 
HETATM    3  C3  UNL     1      17.086  13.878  -4.534  1.00  0.00     0.065 A 
HETATM    4  C4  UNL     1      15.756  14.066  -4.174  1.00  0.00     0.038 A 
HETATM    5  C5  UNL     1      14.977  14.983  -4.884  1.00  0.00     0.026 A 
HETATM    6  C6  UNL     1      15.528  15.742  -5.921  1.00  0.00     0.005 A 
ENDROOT
BRANCH   6   7
HETATM    7  N1  UNL     1      14.711  16.568  -6.702  1.00  0.00    -0.303 NA
HETATM    8  H5  UNL     1      13.820  16.148  -6.945  1.00  0.00     0.124 HD
HETATM    9  H6  UNL     1      15.182  16.969  -7.506  1.00  0.00     0.124 HD
ENDBRANCH   6   7
BRANCH   3  10
HETATM   10  O1  UNL     1      17.884  12.994  -3.872  1.00  0.00    -0.361 OA
HETATM   11  H7  UNL     1      18.235  13.427  -3.078  1.00  0.00     0.217 HD
ENDBRANCH   3  10
TORSDOF 2
ENDMDL
MODEL 5
REMARK VINA RESULT:      -2.7      8.151      9.000
REMARK  2 active torsions:
REMARK  status: ('A' for Active; 'I' for Inactive)
REMARK    1  A    between atoms: C3_3  and  O1_8 
REMARK    2  A    between atoms: C6_6  and  N1_7 
ROOT
HETATM    1  C1  UNL     1       8.557  17.192  -6.080  1.00  0.00     0.026 A 
HETATM    2  C2  UNL     1       7.208  17.460  -6.324  1.00  0.00     0.038 A 
HETATM    3  C3  UNL     1       6.745  17.526  -7.630  1.00  0.00     0.065 A 
HETATM    4  C4  UNL     1       7.609  17.313  -8.699  1.00  0.00     0.038 A 
HETATM    5  C5  UNL     1       8.958  17.047  -8.447  1.00  0.00     0.026 A 
HETATM    6  C6  UNL     1       9.455  17.034  -7.140  1.00  0.00     0.005 A 
ENDROOT
BRANCH   6   7
HETATM    7  N1  UNL     1      10.778  16.650  -6.893  1.00  0.00    -0.303 NA
HETATM    8  H5  UNL     1      10.860  15.817  -6.319  1.00  0.00     0.124 HD
HETATM    9  H6  UNL     1      11.370  17.406  -6.564  1.00  0.00     0.124 HD
ENDBRANCH   6   7
BRANCH   3  10
HETATM   10  O1  UNL     1       5.422  17.787  -7.826  1.00  0.00    -0.361 OA
HETATM   11  H7  UNL     1       5.022  17.030  -8.285  1.00  0.00     0.217 HD
ENDBRANCH   3  10
TORSDOF 2
ENDMDL
MODEL 6
REMARK VINA RESULT:      -2.6      8.837      9.862
REMARK  2 active torsions:
REMARK  status: ('A' for Active; 'I' for Inactive)
REMARK    1  A    between atoms: C3_3  and  O1_8 
REMARK    2  A    between atoms: C6_6  and  N1_7 
ROOT
HETATM    1  C1  UNL     1       7.261  17.516  -9.276  1.00  0.00     0.026 A 
HETATM    2  C2  UNL     1       8.613  17.167  -9.300  1.00  0.00     0.038 A 
HETATM    3  C3  UNL     1       9.286  16.940  -8.108  1.00  0.00     0.065 A 
HETATM    4  C4  UNL     1       8.623  17.041  -6.890  1.00  0.00     0.038 A 
HETATM    5  C5  UNL     1       7.270  17.392  -6.874  1.00  0.00     0.026 A 
HETATM    6  C6  UNL     1       6.589  17.681  -8.061  1.00  0.00     0.005 A 
ENDROOT
BRANCH   6   7
HETATM    7  N1  UNL     1       5.210  17.914  -8.044  1.00  0.00    -0.303 NA
HETATM    8  H5  UNL     1       4.893  18.546  -8.773  1.00  0.00     0.124 HD
HETATM    9  H6  UNL     1       4.847  18.167  -7.130  1.00  0.00     0.124 HD
ENDBRANCH   6   7
BRANCH   3  10
HETATM   10  O1  UNL     1      10.604  16.600  -8.174  1.00  0.00    -0.361 OA
HETATM   11  H7  UNL     1      10.778  16.201  -9.042  1.00  0.00     0.217 HD
ENDBRANCH   3  10
TORSDOF 2
ENDMDL
MODEL 7
REMARK VINA RESULT:      -2.6      9.859     10.717
REMARK  2 active torsions:
REMARK  status: ('A' for Active; 'I' for Inactive)
REMARK    1  A    between atoms: C3_3  and  O1_8 
REMARK    2  A    between atoms: C6_6  and  N1_7 
ROOT
HETATM    1  C1  UNL     1       7.460  17.258  -3.624  1.00  0.00     0.026 A 
HETATM    2  C2  UNL     1       7.131  18.193  -2.640  1.00  0.00     0.038 A 
HETATM    3  C3  UNL     1       6.189  17.871  -1.673  1.00  0.00     0.065 A 
HETATM    4  C4  UNL     1       5.582  16.621  -1.665  1.00  0.00     0.038 A 
HETATM    5  C5  UNL     1       5.915  15.691  -2.654  1.00  0.00     0.026 A 
HETATM    6  C6  UNL     1       6.818  16.017  -3.671  1.00  0.00     0.005 A 
ENDROOT
BRANCH   6   7
HETATM    7  N1  UNL     1       7.233  15.042  -4.584  1.00  0.00    -0.303 NA
HETATM    8  H5  UNL     1       8.084  15.285  -5.082  1.00  0.00     0.124 HD
HETATM    9  H6  UNL     1       6.499  14.723  -5.208  1.00  0.00     0.124 HD
ENDBRANCH   6   7
BRANCH   3  10
HETATM   10  O1  UNL     1       5.898  18.809  -0.729  1.00  0.00    -0.361 OA
HETATM   11  H7  UNL     1       5.828  19.675  -1.163  1.00  0.00     0.217 HD
ENDBRANCH   3  10
TORSDOF 2
ENDMDL
MODEL 8
REMARK VINA RESULT:      -2.6      2.544      3.068
REMARK  2 active torsions:
REMARK  status: ('A' for Active; 'I' for Inactive)
REMARK    1  A    between atoms: C3_3  and  O1_8 
REMARK    2  A    between atoms: C6_6  and  N1_7 
ROOT
HETATM    1  C1  UNL     1      16.008  15.181  -3.259  1.00  0.00     0.026 A 
HETATM    2  C2  UNL     1      17.046  14.568  -3.965  1.00  0.00     0.038 A 
HETATM    3  C3  UNL     1      16.994  14.508  -5.350  1.00  0.00     0.065 A 
HETATM    4  C4  UNL     1      15.925  15.066  -6.043  1.00  0.00     0.038 A 
HETATM    5  C5  UNL     1      14.889  15.676  -5.330  1.00  0.00     0.026 A 
HETATM    6  C6  UNL     1      14.895  15.695  -3.932  1.00  0.00     0.005 A 
ENDROOT
BRANCH   6   7
HETATM    7  N1  UNL     1      13.917  16.411  -3.232  1.00  0.00    -0.303 NA
HETATM    8  H5  UNL     1      13.211  16.828  -3.831  1.00  0.00     0.124 HD
HETATM    9  H6  UNL     1      14.293  17.071  -2.561  1.00  0.00     0.124 HD
ENDBRANCH   6   7
BRANCH   3  10
HETATM   10  O1  UNL     1      18.027  13.904  -6.002  1.00  0.00    -0.361 OA
HETATM   11  H7  UNL     1      17.697  13.094  -6.422  1.00  0.00     0.217 HD
ENDBRANCH   3  10
TORSDOF 2
ENDMDL
MODEL 9
REMARK VINA RESULT:      -2.5     10.007     10.864
REMARK  2 active torsions:
REMARK  status: ('A' for Active; 'I' for Inactive)
REMARK    1  A    between atoms: C3_3  and  O1_8 
REMARK    2  A    between atoms: C6_6  and  N1_7 
ROOT
HETATM    1  C1  UNL     1       5.737  16.019  -2.401  1.00  0.00     0.026 A 
HETATM    2  C2  UNL     1       6.679  15.599  -3.342  1.00  0.00     0.038 A 
HETATM    3  C3  UNL     1       7.160  16.498  -4.283  1.00  0.00     0.065 A 
HETATM    4  C4  UNL     1       6.724  17.819  -4.287  1.00  0.00     0.038 A 
HETATM    5  C5  UNL     1       5.780  18.232  -3.343  1.00  0.00     0.026 A 
HETATM    6  C6  UNL     1       5.240  17.326  -2.424  1.00  0.00     0.005 A 
ENDROOT
BRANCH   6   7
HETATM    7  N1  UNL     1       4.387  17.774  -1.410  1.00  0.00    -0.303 NA
HETATM    8  H5  UNL     1       3.408  17.563  -1.576  1.00  0.00     0.124 HD
HETATM    9  H6  UNL     1       4.534  18.744  -1.149  1.00  0.00     0.124 HD
ENDBRANCH   6   7
BRANCH   3  10
HETATM   10  O1  UNL     1       8.081  16.050  -5.182  1.00  0.00    -0.361 OA
HETATM   11  H7  UNL     1       7.925  15.106  -5.341  1.00  0.00     0.217 HD
ENDBRANCH   3  10
TORSDOF 2
ENDMDL
MODEL 10
REMARK VINA RESULT:      -2.5      1.447      2.223
REMARK  2 active torsions:
REMARK  status: ('A' for Active; 'I' for Inactive)
REMARK    1  A    between atoms: C3_3  and  O1_8 
REMARK    2  A    between atoms: C6_6  and  N1_7 
ROOT
HETATM    1  C1  UNL     1      16.626  15.488  -6.314  1.00  0.00     0.026 A 
HETATM    2  C2  UNL     1      15.389  15.871  -5.791  1.00  0.00     0.038 A 
HETATM    3  C3  UNL     1      14.992  15.400  -4.548  1.00  0.00     0.065 A 
HETATM    4  C4  UNL     1      15.822  14.563  -3.810  1.00  0.00     0.038 A 
HETATM    5  C5  UNL     1      17.058  14.183  -4.340  1.00  0.00     0.026 A 
HETATM    6  C6  UNL     1      17.450  14.600  -5.616  1.00  0.00     0.005 A 
ENDROOT
BRANCH   6   7
HETATM    7  N1  UNL     1      18.736  14.312  -6.087  1.00  0.00    -0.303 NA
HETATM    8  H5  UNL     1      19.327  13.848  -5.404  1.00  0.00     0.124 HD
HETATM    9  H6  UNL     1      19.199  15.102  -6.525  1.00  0.00     0.124 HD
ENDBRANCH   6   7
BRANCH   3  10
HETATM   10  O1  UNL     1      13.779  15.799  -4.071  1.00  0.00    -0.361 OA
HETATM   11  H7  UNL     1      13.833  15.867  -3.105  1.00  0.00     0.217 HD
ENDBRANCH   3  10
TORSDOF 2
ENDMDL
MODEL 11
REMARK VINA RESULT:      -2.3      7.950      8.882
REMARK  2 active torsions:
REMARK  status: ('A' for Active; 'I' for Inactive)
REMARK    1  A    between atoms: C3_3  and  O1_8 
REMARK    2  A    between atoms: C6_6  and  N1_7 
ROOT
HETATM    1  C1  UNL     1       7.843  17.440  -6.368  1.00  0.00     0.026 A 
HETATM    2  C2  UNL     1       9.205  17.278  -6.104  1.00  0.00     0.038 A 
HETATM    3  C3  UNL     1      10.074  16.970  -7.141  1.00  0.00     0.065 A 
HETATM    4  C4  UNL     1       9.605  16.836  -8.443  1.00  0.00     0.038 A 
HETATM    5  C5  UNL     1       8.240  16.998  -8.699  1.00  0.00     0.026 A 
HETATM    6  C6  UNL     1       7.340  17.251  -7.659  1.00  0.00     0.005 A 
ENDROOT
BRANCH   6   7
HETATM    7  N1  UNL     1       5.997  17.529  -7.941  1.00  0.00    -0.303 NA
HETATM    8  H5  UNL     1       5.828  17.785  -8.909  1.00  0.00     0.124 HD
HETATM    9  H6  UNL     1       5.567  18.177  -7.289  1.00  0.00     0.124 HD
ENDBRANCH   6   7
BRANCH   3  10
HETATM   10  O1  UNL     1      11.396  16.823  -6.843  1.00  0.00    -0.361 OA
HETATM   11  H7  UNL     1      11.498  16.056  -6.257  1.00  0.00     0.217 HD
ENDBRANCH   3  10
TORSDOF 2
ENDMDL
MODEL 12
REMARK VINA RESULT:      -2.3      9.069      9.462
REMARK  2 active torsions:
REMARK  status: ('A' for Active; 'I' for Inactive)
REMARK    1  A    between atoms: C3_3  and  O1_8 
REMARK    2  A    between atoms: C6_6  and  N1_7 
ROOT
HETATM    1  C1  UNL     1       7.373  17.916  -3.231  1.00  0.00     0.026 A 
HETATM    2  C2  UNL     1       7.067  16.574  -3.469  1.00  0.00     0.038 A 
HETATM    3  C3  UNL     1       7.392  16.001  -4.690  1.00  0.00     0.065 A 
HETATM    4  C4  UNL     1       8.035  16.745  -5.673  1.00  0.00     0.038 A 
HETATM    5  C5  UNL     1       8.336  18.088  -5.428  1.00  0.00     0.026 A 
HETATM    6  C6  UNL     1       7.964  18.699  -4.227  1.00  0.00     0.005 A 
ENDROOT
BRANCH   6   7
HETATM    7  N1  UNL     1       8.375  20.007  -3.944  1.00  0.00    -0.303 NA
HETATM    8  H5  UNL     1       8.167  20.669  -4.686  1.00  0.00     0.124 HD
HETATM    9  H6  UNL     1       9.335  20.075  -3.623  1.00  0.00     0.124 HD
ENDBRANCH   6   7
BRANCH   3  10
HETATM   10  O1  UNL     1       7.080  14.688  -4.882  1.00  0.00    -0.361 OA
HETATM   11  H7  UNL     1       6.197  14.635  -5.280  1.00  0.00     0.217 HD
ENDBRANCH   3  10
TORSDOF 2
ENDMDL
MODEL 13
REMARK VINA RESULT:      -2.2      2.577      3.136
REMARK  2 active torsions:
REMARK  status: ('A' for Active; 'I' for Inactive)
REMARK    1  A    between atoms: C3_3  and  O1_8 
REMARK    2  A    between atoms: C6_6  and  N1_7 
ROOT
HETATM    1  C1  UNL     1      17.099  15.513  -5.744  1.00  0.00     0.026 A 
HETATM    2  C2  UNL     1      16.380  14.323  -5.601  1.00  0.00     0.038 A 
HETATM    3  C3  UNL     1      15.817  14.003  -4.374  1.00  0.00     0.065 A 
HETATM    4  C4  UNL     1      15.948  14.863  -3.289  1.00  0.00     0.038 A 
HETATM    5  C5  UNL     1      16.670  16.051  -3.439  1.00  0.00     0.026 A 
HETATM    6  C6  UNL     1      17.294  16.363  -4.651  1.00  0.00     0.005 A 
ENDROOT
BRANCH   6   7
HETATM    7  N1  UNL     1      17.911  17.606  -4.826  1.00  0.00    -0.303 NA
HETATM    8  H5  UNL     1      18.179  18.055  -3.956  1.00  0.00     0.124 HD
HETATM    9  H6  UNL     1      17.405  18.232  -5.443  1.00  0.00     0.124 HD
ENDBRANCH   6   7
BRANCH   3  10
HETATM   10  O1  UNL     1      15.122  12.835  -4.276  1.00  0.00    -0.361 OA
HETATM   11  H7  UNL     1      15.699  12.107  -4.555  1.00  0.00     0.217 HD
ENDBRANCH   3  10
TORSDOF 2
ENDMDL
MODEL 14
REMARK VINA RESULT:      -2.1      3.265      4.051
REMARK  2 active torsions:
REMARK  status: ('A' for Active; 'I' for Inactive)
REMARK    1  A    between atoms: C3_3  and  O1_8 
REMARK    2  A    between atoms: C6_6  and  N1_7 
ROOT
HETATM    1  C1  UNL     1      14.245  15.665  -4.930  1.00  0.00     0.026 A 
HETATM    2  C2  UNL     1      15.245  14.697  -4.809  1.00  0.00     0.038 A 
HETATM    3  C3  UNL     1      16.016  14.646  -3.657  1.00  0.00     0.065 A 
HETATM    4  C4  UNL     1      15.792  15.540  -2.615  1.00  0.00     0.038 A 
HETATM    5  C5  UNL     1      14.791  16.507  -2.744  1.00  0.00     0.026 A 
HETATM    6  C6  UNL     1      14.043  16.611  -3.921  1.00  0.00     0.005 A 
ENDROOT
BRANCH   6   7
HETATM    7  N1  UNL     1      12.966  17.502  -3.995  1.00  0.00    -0.303 NA
HETATM    8  H5  UNL     1      12.567  17.583  -4.925  1.00  0.00     0.124 HD
HETATM    9  H6  UNL     1      13.151  18.406  -3.573  1.00  0.00     0.124 HD
ENDBRANCH   6   7
BRANCH   3  10
HETATM   10  O1  UNL     1      16.979  13.686  -3.575  1.00  0.00    -0.361 OA
HETATM   11  H7  UNL     1      17.678  13.997  -2.977  1.00  0.00     0.217 HD
ENDBRANCH   3  10
TORSDOF 2
ENDMDL
MODEL 15
REMARK VINA RESULT:      -2.1      6.718      7.580
REMARK  2 active torsions:
REMARK  status: ('A' for Active; 'I' for Inactive)
REMARK    1  A    between atoms: C3_3  and  O1_8 
REMARK    2  A    between atoms: C6_6  and  N1_7 
ROOT
HETATM    1  C1  UNL     1      13.385  17.996  -0.643  1.00  0.00     0.026 A 
HETATM    2  C2  UNL     1      13.898  16.709  -0.820  1.00  0.00     0.038 A 
HETATM    3  C3  UNL     1      13.772  15.773   0.196  1.00  0.00     0.065 A 
HETATM    4  C4  UNL     1      13.124  16.099   1.383  1.00  0.00     0.038 A 
HETATM    5  C5  UNL     1      12.615  17.390   1.553  1.00  0.00     0.026 A 
HETATM    6  C6  UNL     1      12.784  18.364   0.564  1.00  0.00     0.005 A 
ENDROOT
BRANCH   6   7
HETATM    7  N1  UNL     1      12.168  19.614   0.693  1.00  0.00    -0.303 NA
HETATM    8  H5  UNL     1      11.166  19.561   0.850  1.00  0.00     0.124 HD
HETATM    9  H6  UNL     1      12.410  20.269  -0.043  1.00  0.00     0.124 HD
ENDBRANCH   6   7
BRANCH   3  10
HETATM   10  O1  UNL     1      14.283  14.528  -0.016  1.00  0.00    -0.361 OA
HETATM   11  H7  UNL     1      13.675  13.874   0.365  1.00  0.00     0.217 HD
ENDBRANCH   3  10
TORSDOF 2
ENDMDL
MODEL 16
REMARK VINA RESULT:      -2.1      9.209      9.466
REMARK  2 active torsions:
REMARK  status: ('A' for Active; 'I' for Inactive)
REMARK    1  A    between atoms: C3_3  and  O1_8 
REMARK    2  A    between atoms: C6_6  and  N1_7 
ROOT
HETATM    1  C1  UNL     1      12.543  18.399   2.441  1.00  0.00     0.026 A 
HETATM    2  C2  UNL     1      11.853  17.225   2.130  1.00  0.00     0.038 A 
HETATM    3  C3  UNL     1      12.328  16.005   2.591  1.00  0.00     0.065 A 
HETATM    4  C4  UNL     1      13.476  15.942   3.373  1.00  0.00     0.038 A 
HETATM    5  C5  UNL     1      14.162  17.121   3.679  1.00  0.00     0.026 A 
HETATM    6  C6  UNL     1      13.732  18.353   3.175  1.00  0.00     0.005 A 
ENDROOT
BRANCH   6   7
HETATM    7  N1  UNL     1      14.354  19.538   3.584  1.00  0.00    -0.303 NA
HETATM    8  H5  UNL     1      13.712  20.227   3.962  1.00  0.00     0.124 HD
HETATM    9  H6  UNL     1      14.980  19.933   2.891  1.00  0.00     0.124 HD
ENDBRANCH   6   7
BRANCH   3  10
HETATM   10  O1  UNL     1      11.625  14.883   2.268  1.00  0.00    -0.361 OA
HETATM   11  H7  UNL     1      10.723  15.143   2.023  1.00  0.00     0.217 HD
ENDBRANCH   3  10
TORSDOF 2
ENDMDL
MODEL 17
REMARK VINA RESULT:      -2.0      1.721      1.908
REMARK  2 active torsions:
REMARK  status: ('A' for Active; 'I' for Inactive)
REMARK    1  A    between atoms: C3_3  and  O1_8 
REMARK    2  A    between atoms: C6_6  and  N1_7 
ROOT
HETATM    1  C1  UNL     1      15.241  15.573  -3.911  1.00  0.00     0.026 A 
HETATM    2  C2  UNL     1      15.400  16.879  -4.377  1.00  0.00     0.038 A 
HETATM    3  C3  UNL     1      15.910  17.098  -5.649  1.00  0.00     0.065 A 
HETATM    4  C4  UNL     1      16.250  16.028  -6.470  1.00  0.00     0.038 A 
HETATM    5  C5  UNL     1      16.089  14.723  -5.995  1.00  0.00     0.026 A 
HETATM    6  C6  UNL     1      15.632  14.483  -4.696  1.00  0.00     0.005 A 
ENDROOT
BRANCH   6   7
HETATM    7  N1  UNL     1      15.362  13.177  -4.273  1.00  0.00    -0.303 NA
HETATM    8  H5  UNL     1      15.581  12.470  -4.968  1.00  0.00     0.124 HD
HETATM    9  H6  UNL     1      14.435  13.056  -3.879  1.00  0.00     0.124 HD
ENDBRANCH   6   7
BRANCH   3  10
HETATM   10  O1  UNL     1      16.048  18.388  -6.069  1.00  0.00    -0.361 OA
HETATM   11  H7  UNL     1      15.165  18.783  -6.150  1.00  0.00     0.217 HD
ENDBRANCH   3  10
TORSDOF 2
ENDMDL
MODEL 18
REMARK VINA RESULT:      -2.0      2.790      3.142
REMARK  2 active torsions:
REMARK  status: ('A' for Active; 'I' for Inactive)
REMARK    1  A    between atoms: C3_3  and  O1_8 
REMARK    2  A    between atoms: C6_6  and  N1_7 
ROOT
HETATM    1  C1  UNL     1      15.995  14.596  -4.079  1.00  0.00     0.026 A 
HETATM    2  C2  UNL     1      15.778  15.259  -2.868  1.00  0.00     0.038 A 
HETATM    3  C3  UNL     1      16.842  15.865  -2.216  1.00  0.00     0.065 A 
HETATM    4  C4  UNL     1      18.119  15.833  -2.764  1.00  0.00     0.038 A 
HETATM    5  C5  UNL     1      18.329  15.167  -3.975  1.00  0.00     0.026 A 
HETATM    6  C6  UNL     1      17.281  14.500  -4.618  1.00  0.00     0.005 A 
ENDROOT
BRANCH   6   7
HETATM    7  N1  UNL     1      17.475  13.939  -5.885  1.00  0.00    -0.303 NA
HETATM    8  H5  UNL     1      16.758  14.195  -6.558  1.00  0.00     0.124 HD
HETATM    9  H6  UNL     1      17.651  12.941  -5.870  1.00  0.00     0.124 HD
ENDBRANCH   6   7
BRANCH   3  10
HETATM   10  O1  UNL     1      16.589  16.503  -1.039  1.00  0.00    -0.361 OA
HETATM   11  H7  UNL     1      15.648  16.741  -1.011  1.00  0.00     0.217 HD
ENDBRANCH   3  10
TORSDOF 2
ENDMDL
MODEL 19
REMARK VINA RESULT:      -2.0      7.395      8.293
REMARK  2 active torsions:
REMARK  status: ('A' for Active; 'I' for Inactive)
REMARK    1  A    between atoms: C3_3  and  O1_8 
REMARK    2  A    between atoms: C6_6  and  N1_7 
ROOT
HETATM    1  C1  UNL     1      10.389  17.973  -4.902  1.00  0.00     0.026 A 
HETATM    2  C2  UNL     1       9.614  18.435  -3.836  1.00  0.00     0.038 A 
HETATM    3  C3  UNL     1       8.265  18.116  -3.776  1.00  0.00     0.065 A 
HETATM    4  C4  UNL     1       7.681  17.325  -4.760  1.00  0.00     0.038 A 
HETATM    5  C5  UNL     1       8.462  16.867  -5.825  1.00  0.00     0.026 A 
HETATM    6  C6  UNL     1       9.809  17.227  -5.933  1.00  0.00     0.005 A 
ENDROOT
BRANCH   6   7
HETATM    7  N1  UNL     1      10.610  16.667  -6.935  1.00  0.00    -0.303 NA
HETATM    8  H5  UNL     1      11.388  16.122  -6.578  1.00  0.00     0.124 HD
HETATM    9  H6  UNL     1      10.896  17.328  -7.649  1.00  0.00     0.124 HD
ENDBRANCH   6   7
BRANCH   3  10
HETATM   10  O1  UNL     1       7.545  18.584  -2.719  1.00  0.00    -0.361 OA
HETATM   11  H7  UNL     1       6.600  18.517  -2.934  1.00  0.00     0.217 HD
ENDBRANCH   3  10
TORSDOF 2
ENDMDL
MODEL 20
REMARK VINA RESULT:      -2.0      9.293     10.102
REMARK  2 active torsions:
REMARK  status: ('A' for Active; 'I' for Inactive)
REMARK    1  A    between atoms: C3_3  and  O1_8 
REMARK    2  A    between atoms: C6_6  and  N1_7 
ROOT
HETATM    1  C1  UNL     1       6.178  18.522  -5.863  1.00  0.00     0.026 A 
HETATM    2  C2  UNL     1       6.104  18.530  -7.257  1.00  0.00     0.038 A 
HETATM    3  C3  UNL     1       6.884  17.649  -7.993  1.00  0.00     0.065 A 
HETATM    4  C4  UNL     1       7.727  16.746  -7.353  1.00  0.00     0.038 A 
HETATM    5  C5  UNL     1       7.796  16.744  -5.957  1.00  0.00     0.026 A 
HETATM    6  C6  UNL     1       7.062  17.664  -5.201  1.00  0.00     0.005 A 
ENDROOT
BRANCH   6   7
HETATM    7  N1  UNL     1       7.047  17.576  -3.804  1.00  0.00    -0.303 NA
HETATM    8  H5  UNL     1       6.896  16.634  -3.457  1.00  0.00     0.124 HD
HETATM    9  H6  UNL     1       6.440  18.254  -3.357  1.00  0.00     0.124 HD
ENDBRANCH   6   7
BRANCH   3  10
HETATM   10  O1  UNL     1       6.782  17.687  -9.351  1.00  0.00    -0.361 OA
HETATM   11  H7  UNL     1       5.848  17.801  -9.588  1.00  0.00     0.217 HD
ENDBRANCH   3  10
TORSDOF 2
ENDMDL
