MODEL 1
REMARK VINA RESULT:      -3.3      0.000      0.000
REMARK  2 active torsions:
REMARK  status: ('A' for Active; 'I' for Inactive)
REMARK    1  A    between atoms: C3_3  and  O1_8 
REMARK    2  A    between atoms: C6_6  and  N1_7 
ROOT
HETATM    1  C1  UNL     1       8.603  14.535  -2.832  1.00  0.00     0.026 A 
HETATM    2  C2  UNL     1       8.809  14.541  -1.451  1.00  0.00     0.038 A 
HETATM    3  C3  UNL     1       7.876  15.143  -0.619  1.00  0.00     0.065 A 
HETATM    4  C4  UNL     1       6.729  15.726  -1.147  1.00  0.00     0.038 A 
HETATM    5  C5  UNL     1       6.530  15.717  -2.530  1.00  0.00     0.026 A 
HETATM    6  C6  UNL     1       7.487  15.168  -3.389  1.00  0.00     0.005 A 
ENDROOT
BRANCH   6   7
HETATM    7  N1  UNL     1       7.224  15.057  -4.759  1.00  0.00    -0.303 NA
HETATM    8  H5  UNL     1       6.237  15.102  -4.990  1.00  0.00     0.124 HD
HETATM    9  H6  UNL     1       7.690  14.274  -5.205  1.00  0.00     0.124 HD
ENDBRANCH   6   7
BRANCH   3  10
HETATM   10  O1  UNL     1       8.111  15.125   0.723  1.00  0.00    -0.361 OA
HETATM   11  H7  UNL     1       7.409  14.613   1.154  1.00  0.00     0.217 HD
ENDBRANCH   3  10
TORSDOF 2
ENDMDL
MODEL 2
REMARK VINA RESULT:      -3.3      2.796      3.690
REMARK  2 active torsions:
REMARK  status: ('A' for Active; 'I' for Inactive)
REMARK    1  A    between atoms: C3_3  and  O1_8 
REMARK    2  A    between atoms: C6_6  and  N1_7 
ROOT
HETATM    1  C1  UNL     1       6.442  15.889  -1.497  1.00  0.00     0.026 A 
HETATM    2  C2  UNL     1       6.343  15.765  -2.885  1.00  0.00     0.038 A 
HETATM    3  C3  UNL     1       7.354  15.130  -3.592  1.00  0.00     0.065 A 
HETATM    4  C4  UNL     1       8.457  14.601  -2.931  1.00  0.00     0.038 A 
HETATM    5  C5  UNL     1       8.549  14.729  -1.542  1.00  0.00     0.026 A 
HETATM    6  C6  UNL     1       7.570  15.417  -0.818  1.00  0.00     0.005 A 
ENDROOT
BRANCH   6   7
HETATM    7  N1  UNL     1       7.611  15.437   0.581  1.00  0.00    -0.303 NA
HETATM    8  H5  UNL     1       8.226  14.735   0.981  1.00  0.00     0.124 HD
HETATM    9  H6  UNL     1       6.696  15.443   1.018  1.00  0.00     0.124 HD
ENDBRANCH   6   7
BRANCH   3  10
HETATM   10  O1  UNL     1       7.219  15.027  -4.944  1.00  0.00    -0.361 OA
HETATM   11  H7  UNL     1       7.554  14.160  -5.224  1.00  0.00     0.217 HD
ENDBRANCH   3  10
TORSDOF 2
ENDMDL
MODEL 3
REMARK VINA RESULT:      -3.3      0.166      1.711
REMARK  2 active torsions:
REMARK  status: ('A' for Active; 'I' for Inactive)
REMARK    1  A    between atoms: C3_3  and  O1_8 
REMARK    2  A    between atoms: C6_6  and  N1_7 
ROOT
HETATM    1  C1  UNL     1       6.630  15.643  -2.423  1.00  0.00     0.026 A 
HETATM    2  C2  UNL     1       6.885  15.640  -1.050  1.00  0.00     0.038 A 
HETATM    3  C3  UNL     1       8.043  15.048  -0.567  1.00  0.00     0.065 A 
HETATM    4  C4  UNL     1       8.961  14.473  -1.439  1.00  0.00     0.038 A 
HETATM    5  C5  UNL     1       8.698  14.479  -2.812  1.00  0.00     0.026 A 
HETATM    6  C6  UNL     1       7.508  15.018  -3.312  1.00  0.00     0.005 A 
ENDROOT
BRANCH   6   7
HETATM    7  N1  UNL     1       7.310  15.126  -4.693  1.00  0.00    -0.303 NA
HETATM    8  H5  UNL     1       7.781  14.405  -5.231  1.00  0.00     0.124 HD
HETATM    9  H6  UNL     1       7.481  16.056  -5.061  1.00  0.00     0.124 HD
ENDBRANCH   6   7
BRANCH   3  10
HETATM   10  O1  UNL     1       8.258  15.068   0.779  1.00  0.00    -0.361 OA
HETATM   11  H7  UNL     1       8.214  15.987   1.086  1.00  0.00     0.217 HD
ENDBRANCH   3  10
TORSDOF 2
ENDMDL
MODEL 4
REMARK VINA RESULT:      -3.3     12.272     13.194
REMARK  2 active torsions:
REMARK  status: ('A' for Active; 'I' for Inactive)
REMARK    1  A    between atoms: C3_3  and  O1_8 
REMARK    2  A    between atoms: C6_6  and  N1_7 
ROOT
HETATM    1  C1  UNL     1      17.212  14.994 -11.969  1.00  0.00     0.026 A 
HETATM    2  C2  UNL     1      16.240  15.467 -11.085  1.00  0.00     0.038 A 
HETATM    3  C3  UNL     1      14.915  15.094 -11.256  1.00  0.00     0.065 A 
HETATM    4  C4  UNL     1      14.547  14.240 -12.290  1.00  0.00     0.038 A 
HETATM    5  C5  UNL     1      15.525  13.772 -13.172  1.00  0.00     0.026 A 
HETATM    6  C6  UNL     1      16.857  14.184 -13.052  1.00  0.00     0.005 A 
ENDROOT
BRANCH   6   7
HETATM    7  N1  UNL     1      17.846  13.617 -13.864  1.00  0.00    -0.303 NA
HETATM    8  H5  UNL     1      17.813  13.935 -14.828  1.00  0.00     0.124 HD
HETATM    9  H6  UNL     1      17.907  12.608 -13.792  1.00  0.00     0.124 HD
ENDBRANCH   6   7
BRANCH   3  10
HETATM   10  O1  UNL     1      13.997  15.574 -10.370  1.00  0.00    -0.361 OA
HETATM   11  H7  UNL     1      13.194  15.817 -10.858  1.00  0.00     0.217 HD
ENDBRANCH   3  10
TORSDOF 2
ENDMDL
MODEL 5
REMARK VINA RESULT:      -3.2     12.457     13.426
REMARK  2 active torsions:
REMARK  status: ('A' for Active; 'I' for Inactive)
REMARK    1  A    between atoms: C3_3  and  O1_8 
REMARK    2  A    between atoms: C6_6  and  N1_7 
ROOT
HETATM    1  C1  UNL     1      16.216  15.494 -11.177  1.00  0.00     0.026 A 
HETATM    2  C2  UNL     1      17.192  15.011 -12.052  1.00  0.00     0.038 A 
HETATM    3  C3  UNL     1      16.834  14.134 -13.066  1.00  0.00     0.065 A 
HETATM    4  C4  UNL     1      15.509  13.744 -13.229  1.00  0.00     0.038 A 
HETATM    5  C5  UNL     1      14.538  14.230 -12.349  1.00  0.00     0.026 A 
HETATM    6  C6  UNL     1      14.888  15.069 -11.286  1.00  0.00     0.005 A 
ENDROOT
BRANCH   6   7
HETATM    7  N1  UNL     1      13.895  15.644 -10.485  1.00  0.00    -0.303 NA
HETATM    8  H5  UNL     1      13.143  16.074 -11.014  1.00  0.00     0.124 HD
HETATM    9  H6  UNL     1      14.256  16.255  -9.760  1.00  0.00     0.124 HD
ENDBRANCH   6   7
BRANCH   3  10
HETATM   10  O1  UNL     1      17.814  13.687 -13.900  1.00  0.00    -0.361 OA
HETATM   11  H7  UNL     1      17.432  13.547 -14.780  1.00  0.00     0.217 HD
ENDBRANCH   3  10
TORSDOF 2
ENDMDL
MODEL 6
REMARK VINA RESULT:      -3.0     12.174     13.099
REMARK  2 active torsions:
REMARK  status: ('A' for Active; 'I' for Inactive)
REMARK    1  A    between atoms: C3_3  and  O1_8 
REMARK    2  A    between atoms: C6_6  and  N1_7 
ROOT
HETATM    1  C1  UNL     1      14.421  14.389 -12.463  1.00  0.00     0.026 A 
HETATM    2  C2  UNL     1      15.598  13.913 -13.044  1.00  0.00     0.038 A 
HETATM    3  C3  UNL     1      16.827  14.333 -12.553  1.00  0.00     0.065 A 
HETATM    4  C4  UNL     1      16.896  15.210 -11.476  1.00  0.00     0.038 A 
HETATM    5  C5  UNL     1      15.713  15.683 -10.900  1.00  0.00     0.026 A 
HETATM    6  C6  UNL     1      14.467  15.318 -11.418  1.00  0.00     0.005 A 
ENDROOT
BRANCH   6   7
HETATM    7  N1  UNL     1      13.291  15.700 -10.762  1.00  0.00    -0.303 NA
HETATM    8  H5  UNL     1      12.467  15.197 -11.076  1.00  0.00     0.124 HD
HETATM    9  H6  UNL     1      13.144  16.703 -10.736  1.00  0.00     0.124 HD
ENDBRANCH   6   7
BRANCH   3  10
HETATM   10  O1  UNL     1      17.952  13.844 -13.145  1.00  0.00    -0.361 OA
HETATM   11  H7  UNL     1      18.538  13.494 -12.455  1.00  0.00     0.217 HD
ENDBRANCH   3  10
TORSDOF 2
ENDMDL
MODEL 7
REMARK VINA RESULT:      -2.9      3.051      3.627
REMARK  2 active torsions:
REMARK  status: ('A' for Active; 'I' for Inactive)
REMARK    1  A    between atoms: C3_3  and  O1_8 
REMARK    2  A    between atoms: C6_6  and  N1_7 
ROOT
HETATM    1  C1  UNL     1      10.219  13.904  -1.092  1.00  0.00     0.026 A 
HETATM    2  C2  UNL     1       9.706  13.973  -2.389  1.00  0.00     0.038 A 
HETATM    3  C3  UNL     1       8.473  14.570  -2.610  1.00  0.00     0.065 A 
HETATM    4  C4  UNL     1       7.750  15.113  -1.553  1.00  0.00     0.038 A 
HETATM    5  C5  UNL     1       8.270  15.039  -0.257  1.00  0.00     0.026 A 
HETATM    6  C6  UNL     1       9.483  14.390  -0.007  1.00  0.00     0.005 A 
ENDROOT
BRANCH   6   7
HETATM    7  N1  UNL     1      10.051  14.425   1.271  1.00  0.00    -0.303 NA
HETATM    8  H5  UNL     1       9.411  14.148   2.009  1.00  0.00     0.124 HD
HETATM    9  H6  UNL     1      10.532  15.292   1.483  1.00  0.00     0.124 HD
ENDBRANCH   6   7
BRANCH   3  10
HETATM   10  O1  UNL     1       8.008  14.620  -3.890  1.00  0.00    -0.361 OA
HETATM   11  H7  UNL     1       8.463  13.940  -4.412  1.00  0.00     0.217 HD
ENDBRANCH   3  10
TORSDOF 2
ENDMDL
MODEL 8
REMARK VINA RESULT:      -2.9      1.993      2.539
REMARK  2 active torsions:
REMARK  status: ('A' for Active; 'I' for Inactive)
REMARK    1  A    between atoms: C3_3  and  O1_8 
REMARK    2  A    between atoms: C6_6  and  N1_7 
ROOT
HETATM    1  C1  UNL     1       6.807  15.461  -3.207  1.00  0.00     0.026 A 
HETATM    2  C2  UNL     1       8.028  14.791  -3.314  1.00  0.00     0.038 A 
HETATM    3  C3  UNL     1       8.757  14.505  -2.168  1.00  0.00     0.065 A 
HETATM    4  C4  UNL     1       8.277  14.866  -0.914  1.00  0.00     0.038 A 
HETATM    5  C5  UNL     1       7.055  15.538  -0.816  1.00  0.00     0.026 A 
HETATM    6  C6  UNL     1       6.333  15.886  -1.962  1.00  0.00     0.005 A 
ENDROOT
BRANCH   6   7
HETATM    7  N1  UNL     1       5.058  16.451  -1.848  1.00  0.00    -0.303 NA
HETATM    8  H5  UNL     1       4.960  17.080  -1.057  1.00  0.00     0.124 HD
HETATM    9  H6  UNL     1       4.304  15.775  -1.899  1.00  0.00     0.124 HD
ENDBRANCH   6   7
BRANCH   3  10
HETATM   10  O1  UNL     1       9.942  13.847  -2.314  1.00  0.00    -0.361 OA
HETATM   11  H7  UNL     1      10.666  14.484  -2.200  1.00  0.00     0.217 HD
ENDBRANCH   3  10
TORSDOF 2
ENDMDL
MODEL 9
REMARK VINA RESULT:      -2.9     12.134     13.080
REMARK  2 active torsions:
REMARK  status: ('A' for Active; 'I' for Inactive)
REMARK    1  A    between atoms: C3_3  and  O1_8 
REMARK    2  A    between atoms: C6_6  and  N1_7 
ROOT
HETATM    1  C1  UNL     1      17.270  15.279 -11.815  1.00  0.00     0.026 A 
HETATM    2  C2  UNL     1      16.630  14.503 -12.784  1.00  0.00     0.038 A 
HETATM    3  C3  UNL     1      15.312  14.115 -12.593  1.00  0.00     0.065 A 
HETATM    4  C4  UNL     1      14.617  14.505 -11.453  1.00  0.00     0.038 A 
HETATM    5  C5  UNL     1      15.265  15.281 -10.487  1.00  0.00     0.026 A 
HETATM    6  C6  UNL     1      16.610  15.632 -10.634  1.00  0.00     0.005 A 
ENDROOT
BRANCH   6   7
HETATM    7  N1  UNL     1      17.214  16.506  -9.723  1.00  0.00    -0.303 NA
HETATM    8  H5  UNL     1      17.401  16.086  -8.818  1.00  0.00     0.124 HD
HETATM    9  H6  UNL     1      16.747  17.403  -9.643  1.00  0.00     0.124 HD
ENDBRANCH   6   7
BRANCH   3  10
HETATM   10  O1  UNL     1      14.721  13.361 -13.562  1.00  0.00    -0.361 OA
HETATM   11  H7  UNL     1      14.035  12.811 -13.152  1.00  0.00     0.217 HD
ENDBRANCH   3  10
TORSDOF 2
ENDMDL
MODEL 10
REMARK VINA RESULT:      -2.9      7.169      7.894
REMARK  2 active torsions:
REMARK  status: ('A' for Active; 'I' for Inactive)
REMARK    1  A    between atoms: C3_3  and  O1_8 
REMARK    2  A    between atoms: C6_6  and  N1_7 
ROOT
HETATM    1  C1  UNL     1       9.111  16.235 -10.802  1.00  0.00     0.026 A 
HETATM    2  C2  UNL     1       9.992  16.070  -9.731  1.00  0.00     0.038 A 
HETATM    3  C3  UNL     1       9.688  16.629  -8.497  1.00  0.00     0.065 A 
HETATM    4  C4  UNL     1       8.506  17.337  -8.313  1.00  0.00     0.038 A 
HETATM    5  C5  UNL     1       7.629  17.499  -9.390  1.00  0.00     0.026 A 
HETATM    6  C6  UNL     1       7.946  16.994 -10.655  1.00  0.00     0.005 A 
ENDROOT
BRANCH   6   7
HETATM    7  N1  UNL     1       7.010  17.058 -11.694  1.00  0.00    -0.303 NA
HETATM    8  H5  UNL     1       6.624  16.155 -11.952  1.00  0.00     0.124 HD
HETATM    9  H6  UNL     1       7.327  17.587 -12.500  1.00  0.00     0.124 HD
ENDBRANCH   6   7
BRANCH   3  10
HETATM   10  O1  UNL     1      10.572  16.443  -7.477  1.00  0.00    -0.361 OA
HETATM   11  H7  UNL     1      10.327  15.635  -6.998  1.00  0.00     0.217 HD
ENDBRANCH   3  10
TORSDOF 2
ENDMDL
MODEL 11
REMARK VINA RESULT:      -2.8      7.643      8.595
REMARK  2 active torsions:
REMARK  status: ('A' for Active; 'I' for Inactive)
REMARK    1  A    between atoms: C3_3  and  O1_8 
REMARK    2  A    between atoms: C6_6  and  N1_7 
ROOT
HETATM    1  C1  UNL     1       8.527  17.407  -8.363  1.00  0.00     0.026 A 
HETATM    2  C2  UNL     1       7.655  17.491  -9.450  1.00  0.00     0.038 A 
HETATM    3  C3  UNL     1       7.989  16.876 -10.649  1.00  0.00     0.065 A 
HETATM    4  C4  UNL     1       9.177  16.163 -10.771  1.00  0.00     0.038 A 
HETATM    5  C5  UNL     1      10.045  16.084  -9.679  1.00  0.00     0.026 A 
HETATM    6  C6  UNL     1       9.754  16.747  -8.482  1.00  0.00     0.005 A 
ENDROOT
BRANCH   6   7
HETATM    7  N1  UNL     1      10.569  16.564  -7.359  1.00  0.00    -0.303 NA
HETATM    8  H5  UNL     1      11.283  15.853  -7.484  1.00  0.00     0.124 HD
HETATM    9  H6  UNL     1      10.054  16.446  -6.493  1.00  0.00     0.124 HD
ENDBRANCH   6   7
BRANCH   3  10
HETATM   10  O1  UNL     1       7.111  16.978 -11.686  1.00  0.00    -0.361 OA
HETATM   11  H7  UNL     1       6.215  17.069 -11.324  1.00  0.00     0.217 HD
ENDBRANCH   3  10
TORSDOF 2
ENDMDL
MODEL 12
REMARK VINA RESULT:      -2.8      2.096      2.690
REMARK  2 active torsions:
REMARK  status: ('A' for Active; 'I' for Inactive)
REMARK    1  A    between atoms: C3_3  and  O1_8 
REMARK    2  A    between atoms: C6_6  and  N1_7 
ROOT
HETATM    1  C1  UNL     1       7.640  15.267  -0.367  1.00  0.00     0.026 A 
HETATM    2  C2  UNL     1       8.813  14.560  -0.642  1.00  0.00     0.038 A 
HETATM    3  C3  UNL     1       9.148  14.267  -1.956  1.00  0.00     0.065 A 
HETATM    4  C4  UNL     1       8.335  14.686  -3.004  1.00  0.00     0.038 A 
HETATM    5  C5  UNL     1       7.162  15.392  -2.721  1.00  0.00     0.026 A 
HETATM    6  C6  UNL     1       6.778  15.645  -1.401  1.00  0.00     0.005 A 
ENDROOT
BRANCH   6   7
HETATM    7  N1  UNL     1       5.667  16.454  -1.133  1.00  0.00    -0.303 NA
HETATM    8  H5  UNL     1       5.026  16.054  -0.455  1.00  0.00     0.124 HD
HETATM    9  H6  UNL     1       5.192  16.787  -1.964  1.00  0.00     0.124 HD
ENDBRANCH   6   7
BRANCH   3  10
HETATM   10  O1  UNL     1      10.301  13.578  -2.183  1.00  0.00    -0.361 OA
HETATM   11  H7  UNL     1      10.596  13.758  -3.090  1.00  0.00     0.217 HD
ENDBRANCH   3  10
TORSDOF 2
ENDMDL
MODEL 13
REMARK VINA RESULT:      -2.8     11.787     12.660
REMARK  2 active torsions:
REMARK  status: ('A' for Active; 'I' for Inactive)
REMARK    1  A    between atoms: C3_3  and  O1_8 
REMARK    2  A    between atoms: C6_6  and  N1_7 
ROOT
HETATM    1  C1  UNL     1      16.730  14.633 -12.578  1.00  0.00     0.026 A 
HETATM    2  C2  UNL     1      17.322  15.389 -11.564  1.00  0.00     0.038 A 
HETATM    3  C3  UNL     1      16.578  15.749 -10.449  1.00  0.00     0.065 A 
HETATM    4  C4  UNL     1      15.251  15.350 -10.326  1.00  0.00     0.038 A 
HETATM    5  C5  UNL     1      14.664  14.595 -11.345  1.00  0.00     0.026 A 
HETATM    6  C6  UNL     1      15.381  14.273 -12.502  1.00  0.00     0.005 A 
ENDROOT
BRANCH   6   7
HETATM    7  N1  UNL     1      14.824  13.418 -13.461  1.00  0.00    -0.303 NA
HETATM    8  H5  UNL     1      13.816  13.324 -13.387  1.00  0.00     0.124 HD
HETATM    9  H6  UNL     1      15.292  12.521 -13.532  1.00  0.00     0.124 HD
ENDBRANCH   6   7
BRANCH   3  10
HETATM   10  O1  UNL     1      17.193  16.483  -9.481  1.00  0.00    -0.361 OA
HETATM   11  H7  UNL     1      17.519  15.880  -8.794  1.00  0.00     0.217 HD
ENDBRANCH   3  10
TORSDOF 2
ENDMDL
MODEL 14
REMARK VINA RESULT:      -2.8     11.741     12.443
REMARK  2 active torsions:
REMARK  status: ('A' for Active; 'I' for Inactive)
REMARK    1  A    between atoms: C3_3  and  O1_8 
REMARK    2  A    between atoms: C6_6  and  N1_7 
ROOT
HETATM    1  C1  UNL     1      14.988  17.125 -12.332  1.00  0.00     0.026 A 
HETATM    2  C2  UNL     1      15.207  16.800 -10.992  1.00  0.00     0.038 A 
HETATM    3  C3  UNL     1      15.193  15.470 -10.595  1.00  0.00     0.065 A 
HETATM    4  C4  UNL     1      14.978  14.457 -11.524  1.00  0.00     0.038 A 
HETATM    5  C5  UNL     1      14.758  14.790 -12.863  1.00  0.00     0.026 A 
HETATM    6  C6  UNL     1      14.710  16.127 -13.271  1.00  0.00     0.005 A 
ENDROOT
BRANCH   6   7
HETATM    7  N1  UNL     1      14.608  16.446 -14.630  1.00  0.00    -0.303 NA
HETATM    8  H5  UNL     1      15.000  17.352 -14.867  1.00  0.00     0.124 HD
HETATM    9  H6  UNL     1      13.679  16.315 -15.014  1.00  0.00     0.124 HD
ENDBRANCH   6   7
BRANCH   3  10
HETATM   10  O1  UNL     1      15.414  15.193  -9.280  1.00  0.00    -0.361 OA
HETATM   11  H7  UNL     1      16.118  15.777  -8.954  1.00  0.00     0.217 HD
ENDBRANCH   3  10
TORSDOF 2
ENDMDL
MODEL 15
REMARK VINA RESULT:      -2.6     11.649     12.531
REMARK  2 active torsions:
REMARK  status: ('A' for Active; 'I' for Inactive)
REMARK    1  A    between atoms: C3_3  and  O1_8 
REMARK    2  A    between atoms: C6_6  and  N1_7 
ROOT
HETATM    1  C1  UNL     1      14.868  15.662 -13.603  1.00  0.00     0.026 A 
HETATM    2  C2  UNL     1      14.517  16.873 -13.002  1.00  0.00     0.038 A 
HETATM    3  C3  UNL     1      14.129  16.893 -11.670  1.00  0.00     0.065 A 
HETATM    4  C4  UNL     1      14.102  15.721 -10.923  1.00  0.00     0.038 A 
HETATM    5  C5  UNL     1      14.453  14.512 -11.532  1.00  0.00     0.026 A 
HETATM    6  C6  UNL     1      14.790  14.463 -12.888  1.00  0.00     0.005 A 
ENDROOT
BRANCH   6   7
HETATM    7  N1  UNL     1      15.254  13.271 -13.456  1.00  0.00    -0.303 NA
HETATM    8  H5  UNL     1      15.854  13.411 -14.263  1.00  0.00     0.124 HD
HETATM    9  H6  UNL     1      14.524  12.589 -13.632  1.00  0.00     0.124 HD
ENDBRANCH   6   7
BRANCH   3  10
HETATM   10  O1  UNL     1      13.797  18.095 -11.120  1.00  0.00    -0.361 OA
HETATM   11  H7  UNL     1      14.420  18.766 -11.442  1.00  0.00     0.217 HD
ENDBRANCH   3  10
TORSDOF 2
ENDMDL
MODEL 16
REMARK VINA RESULT:      -2.5      7.848      8.810
REMARK  2 active torsions:
REMARK  status: ('A' for Active; 'I' for Inactive)
REMARK    1  A    between atoms: C3_3  and  O1_8 
REMARK    2  A    between atoms: C6_6  and  N1_7 
ROOT
HETATM    1  C1  UNL     1       8.713  16.548 -11.189  1.00  0.00     0.026 A 
HETATM    2  C2  UNL     1       7.518  17.235 -11.412  1.00  0.00     0.038 A 
HETATM    3  C3  UNL     1       6.800  17.733 -10.334  1.00  0.00     0.065 A 
HETATM    4  C4  UNL     1       7.267  17.568  -9.035  1.00  0.00     0.038 A 
HETATM    5  C5  UNL     1       8.463  16.877  -8.819  1.00  0.00     0.026 A 
HETATM    6  C6  UNL     1       9.171  16.318  -9.888  1.00  0.00     0.005 A 
ENDROOT
BRANCH   6   7
HETATM    7  N1  UNL     1      10.424  15.733  -9.674  1.00  0.00    -0.303 NA
HETATM    8  H5  UNL     1      11.024  15.742 -10.493  1.00  0.00     0.124 HD
HETATM    9  H6  UNL     1      10.382  14.820  -9.235  1.00  0.00     0.124 HD
ENDBRANCH   6   7
BRANCH   3  10
HETATM   10  O1  UNL     1       5.640  18.400 -10.593  1.00  0.00    -0.361 OA
HETATM   11  H7  UNL     1       5.334  18.155 -11.481  1.00  0.00     0.217 HD
ENDBRANCH   3  10
TORSDOF 2
ENDMDL
MODEL 17
REMARK VINA RESULT:      -2.5      7.686      8.646
REMARK  2 active torsions:
REMARK  status: ('A' for Active; 'I' for Inactive)
REMARK    1  A    between atoms: C3_3  and  O1_8 
REMARK    2  A    between atoms: C6_6  and  N1_7 
ROOT
HETATM    1  C1  UNL     1       6.807  17.797  -8.261  1.00  0.00     0.026 A 
HETATM    2  C2  UNL     1       7.776  17.364  -9.168  1.00  0.00     0.038 A 
HETATM    3  C3  UNL     1       7.463  17.273 -10.517  1.00  0.00     0.065 A 
HETATM    4  C4  UNL     1       6.199  17.625 -10.976  1.00  0.00     0.038 A 
HETATM    5  C5  UNL     1       5.233  18.056 -10.062  1.00  0.00     0.026 A 
HETATM    6  C6  UNL     1       5.511  18.098  -8.692  1.00  0.00     0.005 A 
ENDROOT
BRANCH   6   7
HETATM    7  N1  UNL     1       4.580  18.643  -7.800  1.00  0.00    -0.303 NA
HETATM    8  H5  UNL     1       3.615  18.519  -8.092  1.00  0.00     0.124 HD
HETATM    9  H6  UNL     1       4.782  19.599  -7.530  1.00  0.00     0.124 HD
ENDBRANCH   6   7
BRANCH   3  10
HETATM   10  O1  UNL     1       8.437  16.849 -11.371  1.00  0.00    -0.361 OA
HETATM   11  H7  UNL     1       8.074  16.143 -11.929  1.00  0.00     0.217 HD
ENDBRANCH   3  10
TORSDOF 2
ENDMDL
MODEL 18
REMARK VINA RESULT:      -2.5     13.526     14.122
REMARK  2 active torsions:
REMARK  status: ('A' for Active; 'I' for Inactive)
REMARK    1  A    between atoms: C3_3  and  O1_8 
REMARK    2  A    between atoms: C6_6  and  N1_7 
ROOT
HETATM    1  C1  UNL     1      15.755  13.838 -13.273  1.00  0.00     0.026 A 
HETATM    2  C2  UNL     1      14.770  14.807 -13.069  1.00  0.00     0.038 A 
HETATM    3  C3  UNL     1      15.139  16.116 -12.794  1.00  0.00     0.065 A 
HETATM    4  C4  UNL     1      16.481  16.476 -12.736  1.00  0.00     0.038 A 
HETATM    5  C5  UNL     1      17.462  15.500 -12.940  1.00  0.00     0.026 A 
HETATM    6  C6  UNL     1      17.110  14.165 -13.161  1.00  0.00     0.005 A 
ENDROOT
BRANCH   6   7
HETATM    7  N1  UNL     1      18.092  13.221 -13.482  1.00  0.00    -0.303 NA
HETATM    8  H5  UNL     1      19.039  13.582 -13.423  1.00  0.00     0.124 HD
HETATM    9  H6  UNL     1      17.920  12.729 -14.352  1.00  0.00     0.124 HD
ENDBRANCH   6   7
BRANCH   3  10
HETATM   10  O1  UNL     1      14.149  17.032 -12.603  1.00  0.00    -0.361 OA
HETATM   11  H7  UNL     1      13.968  17.474 -13.448  1.00  0.00     0.217 HD
ENDBRANCH   3  10
TORSDOF 2
ENDMDL
MODEL 19
REMARK VINA RESULT:      -2.5      6.124      7.070
REMARK  2 active torsions:
REMARK  status: ('A' for Active; 'I' for Inactive)
REMARK    1  A    between atoms: C3_3  and  O1_8 
REMARK    2  A    between atoms: C6_6  and  N1_7 
ROOT
HETATM    1  C1  UNL     1       8.591  17.022  -7.057  1.00  0.00     0.026 A 
HETATM    2  C2  UNL     1       7.241  17.352  -6.918  1.00  0.00     0.038 A 
HETATM    3  C3  UNL     1       6.487  17.654  -8.044  1.00  0.00     0.065 A 
HETATM    4  C4  UNL     1       7.060  17.615  -9.310  1.00  0.00     0.038 A 
HETATM    5  C5  UNL     1       8.412  17.285  -9.441  1.00  0.00     0.026 A 
HETATM    6  C6  UNL     1       9.202  17.035  -8.314  1.00  0.00     0.005 A 
ENDROOT
BRANCH   6   7
HETATM    7  N1  UNL     1      10.521  16.591  -8.463  1.00  0.00    -0.303 NA
HETATM    8  H5  UNL     1      11.064  16.633  -7.606  1.00  0.00     0.124 HD
HETATM    9  H6  UNL     1      11.007  17.005  -9.250  1.00  0.00     0.124 HD
ENDBRANCH   6   7
BRANCH   3  10
HETATM   10  O1  UNL     1       5.173  17.968  -7.867  1.00  0.00    -0.361 OA
HETATM   11  H7  UNL     1       4.987  17.998  -6.915  1.00  0.00     0.217 HD
ENDBRANCH   3  10
TORSDOF 2
ENDMDL
MODEL 20
REMARK VINA RESULT:      -2.4      6.848      7.731
REMARK  2 active torsions:
REMARK  status: ('A' for Active; 'I' for Inactive)
REMARK    1  A    between atoms: C3_3  and  O1_8 
REMARK    2  A    between atoms: C6_6  and  N1_7 
ROOT
HETATM    1  C1  UNL     1      14.550  15.506  -5.213  1.00  0.00     0.026 A 
HETATM    2  C2  UNL     1      15.779  14.877  -5.003  1.00  0.00     0.038 A 
HETATM    3  C3  UNL     1      15.845  13.744  -4.205  1.00  0.00     0.065 A 
HETATM    4  C4  UNL     1      14.695  13.219  -3.625  1.00  0.00     0.038 A 
HETATM    5  C5  UNL     1      13.468  13.855  -3.839  1.00  0.00     0.026 A 
HETATM    6  C6  UNL     1      13.391  15.030  -4.592  1.00  0.00     0.005 A 
ENDROOT
BRANCH   6   7
HETATM    7  N1  UNL     1      12.146  15.591  -4.899  1.00  0.00    -0.303 NA
HETATM    8  H5  UNL     1      11.885  16.361  -4.291  1.00  0.00     0.124 HD
HETATM    9  H6  UNL     1      11.402  14.908  -4.998  1.00  0.00     0.124 HD
ENDBRANCH   6   7
BRANCH   3  10
HETATM   10  O1  UNL     1      17.062  13.158  -4.026  1.00  0.00    -0.361 OA
HETATM   11  H7  UNL     1      17.730  13.855  -3.931  1.00  0.00     0.217 HD
ENDBRANCH   3  10
TORSDOF 2
ENDMDL
