MODEL 1
REMARK VINA RESULT:      -5.3      0.000      0.000
REMARK  27 active torsions:
REMARK  status: ('A' for Active; 'I' for Inactive)
REMARK    1  A    between atoms: C2_2  and  S1_4 
REMARK    2  A    between atoms: S1_4  and  C3_5 
REMARK    3  A    between atoms: C3_5  and  C4_6 
REMARK    4  A    between atoms: C4_6  and  N1_7 
REMARK       I    between atoms: N1_7  and  C5_8 
REMARK    5  A    between atoms: C5_8  and  C6_10 
REMARK    6  A    between atoms: C6_10  and  C7_11 
REMARK    7  A    between atoms: C7_11  and  N2_12 
REMARK       I    between atoms: N2_12  and  C8_13 
REMARK    8  A    between atoms: C8_13  and  C9_15 
REMARK    9  A    between atoms: C9_15  and  C10_16 
REMARK   10  A    between atoms: C9_15  and  O17_54 
REMARK   11  A    between atoms: C10_16  and  C13_19 
REMARK   12  A    between atoms: C13_19  and  O4_20 
REMARK   13  A    between atoms: O4_20  and  P1_21 
REMARK   14  A    between atoms: P1_21  and  O6_23 
REMARK   15  A    between atoms: P1_21  and  O7_24 
REMARK   16  A    between atoms: O7_24  and  P2_25 
REMARK   17  A    between atoms: P2_25  and  O9_27 
REMARK   18  A    between atoms: P2_25  and  O10_28 
REMARK   19  A    between atoms: O10_28  and  C14_29 
REMARK   20  A    between atoms: C14_29  and  C15_30 
REMARK   21  A    between atoms: C16_31  and  O13_49 
REMARK   22  A    between atoms: C17_32  and  O12_48 
REMARK   23  A    between atoms: C18_33  and  N3_35 
REMARK   24  A    between atoms: C21_40  and  N7_47 
REMARK   25  A    between atoms: O13_49  and  P3_50 
REMARK   26  A    between atoms: P3_50  and  O15_52 
REMARK   27  A    between atoms: P3_50  and  O16_53 
ROOT
HETATM    1  C1  UNL     1      15.938  11.499  -0.928  1.00  0.00     0.104 C 
HETATM    2  C2  UNL     1      16.313  11.783  -2.351  1.00  0.00     0.182 C 
HETATM    3  O1  UNL     1      15.491  12.038  -3.227  1.00  0.00    -0.286 OA
ENDROOT
BRANCH   2   4
HETATM    4  S1  UNL     1      18.038  11.684  -2.679  1.00  0.00    -0.091 SA
BRANCH   4   5
HETATM    5  C3  UNL     1      18.446  13.456  -2.802  1.00  0.00     0.102 C 
BRANCH   5   6
HETATM    6  C4  UNL     1      18.059  14.037  -4.164  1.00  0.00     0.133 C 
BRANCH   6   7
HETATM    7  N1  UNL     1      16.807  14.764  -4.126  1.00  0.00    -0.360 N 
HETATM    8  C5  UNL     1      15.985  14.847  -5.226  1.00  0.00     0.219 C 
HETATM    9  O2  UNL     1      16.294  14.384  -6.318  1.00  0.00    -0.274 OA
HETATM   10  H8  UNL     1      16.532  15.215  -3.264  1.00  0.00     0.162 HD
BRANCH   8  11
HETATM   11  C6  UNL     1      14.702  15.604  -4.958  1.00  0.00     0.122 C 
BRANCH  11  12
HETATM   12  C7  UNL     1      13.567  14.673  -4.534  1.00  0.00     0.132 C 
BRANCH  12  13
HETATM   13  N2  UNL     1      13.451  14.537  -3.098  1.00  0.00    -0.358 N 
HETATM   14  C8  UNL     1      12.319  14.987  -2.444  1.00  0.00     0.247 C 
HETATM   15  O3  UNL     1      11.439  15.613  -3.021  1.00  0.00    -0.271 OA
HETATM   16  H13 UNL     1      13.936  13.738  -2.693  1.00  0.00     0.162 HD
BRANCH  14  17
HETATM   17  C9  UNL     1      12.247  14.622  -0.954  1.00  0.00     0.219 C 
BRANCH  17  18
HETATM   18  C10 UNL     1      11.105  13.639  -0.586  1.00  0.00     0.009 C 
HETATM   19  C11 UNL     1       9.743  14.343  -0.498  1.00  0.00     0.020 C 
HETATM   20  C12 UNL     1      10.985  12.501  -1.620  1.00  0.00     0.020 C 
BRANCH  18  21
HETATM   21  C13 UNL     1      11.480  13.049   0.803  1.00  0.00     0.192 C 
BRANCH  21  22
HETATM   22  O4  UNL     1      12.149  11.809   0.699  1.00  0.00    -0.296 OA
BRANCH  22  23
HETATM   23  P1  UNL     1      12.696  11.004   1.974  1.00  0.00     0.401 P 
HETATM   24  O5  UNL     1      11.623  10.381   2.811  1.00  0.00    -0.631 OA
BRANCH  23  25
HETATM   25  O6  UNL     1      13.650  12.015   2.786  1.00  0.00    -0.307 OA
HETATM   26  H23 UNL     1      13.156  12.541   3.428  1.00  0.00     0.222 HD
ENDBRANCH  23  25
BRANCH  23  27
HETATM   27  O7  UNL     1      13.761   9.979   1.386  1.00  0.00    -0.195 OA
BRANCH  27  28
HETATM   28  P2  UNL     1      14.927   9.452   2.335  1.00  0.00     0.401 P 
HETATM   29  O8  UNL     1      16.131  10.324   2.476  1.00  0.00    -0.631 OA
BRANCH  28  30
HETATM   30  O9  UNL     1      14.173   9.154   3.711  1.00  0.00    -0.307 OA
HETATM   31  H24 UNL     1      14.408   9.776   4.443  1.00  0.00     0.222 HD
ENDBRANCH  28  30
BRANCH  28  32
HETATM   32  O10 UNL     1      15.199   7.964   1.822  1.00  0.00    -0.294 OA
BRANCH  32  33
HETATM   33  C14 UNL     1      14.737   6.868   2.568  1.00  0.00     0.215 C 
BRANCH  33  34
HETATM   34  C15 UNL     1      13.620   6.232   1.743  1.00  0.00     0.180 C 
HETATM   35  C16 UNL     1      12.561   5.651   2.672  1.00  0.00     0.197 C 
HETATM   36  C17 UNL     1      12.567   4.163   2.380  1.00  0.00     0.199 C 
HETATM   37  C18 UNL     1      13.099   4.118   0.945  1.00  0.00     0.262 C 
HETATM   38  O11 UNL     1      14.083   5.174   0.896  1.00  0.00    -0.353 OA
BRANCH  35  39
HETATM   39  O13 UNL     1      11.313   6.256   2.349  1.00  0.00    -0.286 OA
BRANCH  39  40
HETATM   40  P3  UNL     1      10.565   6.983   3.561  1.00  0.00     0.391 P 
HETATM   41  O14 UNL     1       9.458   7.889   3.130  1.00  0.00    -0.632 OA
BRANCH  40  42
HETATM   42  O15 UNL     1      11.806   7.642   4.326  1.00  0.00    -0.307 OA
HETATM   43  H36 UNL     1      12.167   7.023   5.004  1.00  0.00     0.222 HD
ENDBRANCH  40  42
BRANCH  40  44
HETATM   44  O16 UNL     1      10.187   5.746   4.486  1.00  0.00    -0.307 OA
HETATM   45  H37 UNL     1       9.301   5.823   4.873  1.00  0.00     0.222 HD
ENDBRANCH  40  44
ENDBRANCH  39  40
ENDBRANCH  35  39
BRANCH  36  46
HETATM   46  O12 UNL     1      11.272   3.605   2.618  1.00  0.00    -0.388 OA
HETATM   47  H35 UNL     1      10.640   4.362   2.620  1.00  0.00     0.210 HD
ENDBRANCH  36  46
BRANCH  37  48
HETATM   48  N3  UNL     1      13.748   2.861   0.632  1.00  0.00    -0.297 N 
HETATM   49  C19 UNL     1      13.469   2.020  -0.421  1.00  0.00     0.188 A 
HETATM   50  N4  UNL     1      14.321   1.022  -0.501  1.00  0.00    -0.346 N 
HETATM   51  C20 UNL     1      15.199   1.227   0.548  1.00  0.00     0.116 A 
HETATM   52  H4  UNL     1      14.333   0.265  -1.185  1.00  0.00     0.167 HD
HETATM   53  C21 UNL     1      16.349   0.541   0.977  1.00  0.00     0.109 A 
HETATM   54  C23 UNL     1      14.833   2.341   1.282  1.00  0.00     0.142 A 
HETATM   55  N5  UNL     1      17.004   0.994   2.074  1.00  0.00    -0.341 N 
HETATM   56  C22 UNL     1      16.516   2.081   2.704  1.00  0.00     0.183 A 
HETATM   57  H5  UNL     1      17.843   0.524   2.413  1.00  0.00     0.167 HD
HETATM   58  N6  UNL     1      15.436   2.822   2.383  1.00  0.00    -0.336 N 
HETATM   59  H6  UNL     1      15.119   3.638   2.906  1.00  0.00     0.168 HD
BRANCH  53  60
HETATM   60  N7  UNL     1      16.845  -0.586   0.341  1.00  0.00    -0.287 NA
HETATM   61  H33 UNL     1      16.570  -0.672  -0.635  1.00  0.00     0.125 HD
HETATM   62  H34 UNL     1      16.780  -1.420   0.908  1.00  0.00     0.125 HD
ENDBRANCH  53  60
ENDBRANCH  37  48
ENDBRANCH  33  34
ENDBRANCH  32  33
ENDBRANCH  28  32
ENDBRANCH  27  28
ENDBRANCH  23  27
ENDBRANCH  22  23
ENDBRANCH  21  22
ENDBRANCH  18  21
ENDBRANCH  17  18
BRANCH  17  63
HETATM   63  O17 UNL     1      13.490  14.055  -0.525  1.00  0.00    -0.385 OA
HETATM   64  H38 UNL     1      14.190  14.378  -1.117  1.00  0.00     0.210 HD
ENDBRANCH  17  63
ENDBRANCH  14  17
ENDBRANCH  12  13
ENDBRANCH  11  12
ENDBRANCH   8  11
ENDBRANCH   6   7
ENDBRANCH   5   6
ENDBRANCH   4   5
ENDBRANCH   2   4
TORSDOF 27
ENDMDL
MODEL 2
REMARK VINA RESULT:      -5.0      3.756      5.953
REMARK  27 active torsions:
REMARK  status: ('A' for Active; 'I' for Inactive)
REMARK    1  A    between atoms: C2_2  and  S1_4 
REMARK    2  A    between atoms: S1_4  and  C3_5 
REMARK    3  A    between atoms: C3_5  and  C4_6 
REMARK    4  A    between atoms: C4_6  and  N1_7 
REMARK       I    between atoms: N1_7  and  C5_8 
REMARK    5  A    between atoms: C5_8  and  C6_10 
REMARK    6  A    between atoms: C6_10  and  C7_11 
REMARK    7  A    between atoms: C7_11  and  N2_12 
REMARK       I    between atoms: N2_12  and  C8_13 
REMARK    8  A    between atoms: C8_13  and  C9_15 
REMARK    9  A    between atoms: C9_15  and  C10_16 
REMARK   10  A    between atoms: C9_15  and  O17_54 
REMARK   11  A    between atoms: C10_16  and  C13_19 
REMARK   12  A    between atoms: C13_19  and  O4_20 
REMARK   13  A    between atoms: O4_20  and  P1_21 
REMARK   14  A    between atoms: P1_21  and  O6_23 
REMARK   15  A    between atoms: P1_21  and  O7_24 
REMARK   16  A    between atoms: O7_24  and  P2_25 
REMARK   17  A    between atoms: P2_25  and  O9_27 
REMARK   18  A    between atoms: P2_25  and  O10_28 
REMARK   19  A    between atoms: O10_28  and  C14_29 
REMARK   20  A    between atoms: C14_29  and  C15_30 
REMARK   21  A    between atoms: C16_31  and  O13_49 
REMARK   22  A    between atoms: C17_32  and  O12_48 
REMARK   23  A    between atoms: C18_33  and  N3_35 
REMARK   24  A    between atoms: C21_40  and  N7_47 
REMARK   25  A    between atoms: O13_49  and  P3_50 
REMARK   26  A    between atoms: P3_50  and  O15_52 
REMARK   27  A    between atoms: P3_50  and  O16_53 
ROOT
HETATM    1  C1  UNL     1      18.583  14.395   5.777  1.00  0.00     0.104 C 
HETATM    2  C2  UNL     1      17.778  13.508   4.876  1.00  0.00     0.182 C 
HETATM    3  O1  UNL     1      18.212  13.042   3.826  1.00  0.00    -0.286 OA
ENDROOT
BRANCH   2   4
HETATM    4  S1  UNL     1      16.134  13.217   5.427  1.00  0.00    -0.091 SA
BRANCH   4   5
HETATM    5  C3  UNL     1      16.234  11.440   5.817  1.00  0.00     0.102 C 
BRANCH   5   6
HETATM    6  C4  UNL     1      15.888  10.570   4.607  1.00  0.00     0.133 C 
BRANCH   6   7
HETATM    7  N1  UNL     1      15.504  11.351   3.449  1.00  0.00    -0.360 N 
HETATM    8  C5  UNL     1      14.399  11.032   2.694  1.00  0.00     0.219 C 
HETATM    9  O2  UNL     1      13.723  10.031   2.904  1.00  0.00    -0.274 OA
HETATM   10  H8  UNL     1      16.064  12.155   3.197  1.00  0.00     0.162 HD
BRANCH   8  11
HETATM   11  C6  UNL     1      14.143  12.005   1.564  1.00  0.00     0.122 C 
BRANCH  11  12
HETATM   12  C7  UNL     1      13.890  11.288   0.239  1.00  0.00     0.132 C 
BRANCH  12  13
HETATM   13  N2  UNL     1      14.966  10.395  -0.138  1.00  0.00    -0.358 N 
HETATM   14  C8  UNL     1      14.724   9.044  -0.304  1.00  0.00     0.247 C 
HETATM   15  O3  UNL     1      13.643   8.537  -0.031  1.00  0.00    -0.271 OA
HETATM   16  H13 UNL     1      15.701  10.810  -0.707  1.00  0.00     0.162 HD
BRANCH  14  17
HETATM   17  C9  UNL     1      15.904   8.244  -0.875  1.00  0.00     0.219 C 
BRANCH  17  18
HETATM   18  C10 UNL     1      17.268   8.538  -0.196  1.00  0.00     0.009 C 
HETATM   19  C11 UNL     1      17.975   9.750  -0.821  1.00  0.00     0.020 C 
HETATM   20  C12 UNL     1      17.102   8.810   1.312  1.00  0.00     0.020 C 
BRANCH  18  21
HETATM   21  C13 UNL     1      18.134   7.263  -0.407  1.00  0.00     0.192 C 
BRANCH  21  22
HETATM   22  O4  UNL     1      18.083   6.388   0.702  1.00  0.00    -0.296 OA
BRANCH  22  23
HETATM   23  P1  UNL     1      18.160   4.793   0.557  1.00  0.00     0.401 P 
HETATM   24  O5  UNL     1      19.337   4.306  -0.228  1.00  0.00    -0.631 OA
BRANCH  23  25
HETATM   25  O6  UNL     1      16.742   4.311  -0.031  1.00  0.00    -0.307 OA
HETATM   26  H23 UNL     1      16.846   3.711  -0.781  1.00  0.00     0.222 HD
ENDBRANCH  23  25
BRANCH  23  27
HETATM   27  O7  UNL     1      18.081   4.241   2.047  1.00  0.00    -0.195 OA
BRANCH  27  28
HETATM   28  P2  UNL     1      17.216   5.041   3.119  1.00  0.00     0.401 P 
HETATM   29  O8  UNL     1      16.738   4.276   4.310  1.00  0.00    -0.631 OA
BRANCH  28  30
HETATM   30  O9  UNL     1      18.141   6.292   3.478  1.00  0.00    -0.307 OA
HETATM   31  H24 UNL     1      19.082   6.192   3.193  1.00  0.00     0.222 HD
ENDBRANCH  28  30
BRANCH  28  32
HETATM   32  O10 UNL     1      16.083   5.754   2.248  1.00  0.00    -0.294 OA
BRANCH  32  33
HETATM   33  C14 UNL     1      14.895   6.184   2.857  1.00  0.00     0.215 C 
BRANCH  33  34
HETATM   34  C15 UNL     1      13.765   5.814   1.898  1.00  0.00     0.180 C 
HETATM   35  C16 UNL     1      12.580   5.267   2.684  1.00  0.00     0.197 C 
HETATM   36  C17 UNL     1      12.419   3.841   2.193  1.00  0.00     0.199 C 
HETATM   37  C18 UNL     1      13.037   3.908   0.795  1.00  0.00     0.262 C 
HETATM   38  O11 UNL     1      14.148   4.821   0.940  1.00  0.00    -0.353 OA
BRANCH  35  39
HETATM   39  O13 UNL     1      11.443   6.070   2.383  1.00  0.00    -0.286 OA
BRANCH  39  40
HETATM   40  P3  UNL     1      10.809   6.859   3.621  1.00  0.00     0.391 P 
HETATM   41  O14 UNL     1      11.761   7.799   4.287  1.00  0.00    -0.632 OA
BRANCH  40  42
HETATM   42  O15 UNL     1      10.240   5.642   4.491  1.00  0.00    -0.307 OA
HETATM   43  H36 UNL     1      10.646   5.636   5.390  1.00  0.00     0.222 HD
ENDBRANCH  40  42
BRANCH  40  44
HETATM   44  O16 UNL     1       9.500   7.477   2.964  1.00  0.00    -0.307 OA
HETATM   45  H37 UNL     1       8.951   7.960   3.602  1.00  0.00     0.222 HD
ENDBRANCH  40  44
ENDBRANCH  39  40
ENDBRANCH  35  39
BRANCH  36  46
HETATM   46  O12 UNL     1      11.051   3.436   2.288  1.00  0.00    -0.388 OA
HETATM   47  H35 UNL     1      10.520   4.149   1.859  1.00  0.00     0.210 HD
ENDBRANCH  36  46
BRANCH  37  48
HETATM   48  N3  UNL     1      13.543   2.626   0.348  1.00  0.00    -0.297 N 
HETATM   49  C19 UNL     1      13.134   1.910  -0.753  1.00  0.00     0.188 A 
HETATM   50  N4  UNL     1      13.877   0.844  -0.959  1.00  0.00    -0.346 N 
HETATM   51  C20 UNL     1      14.817   0.874   0.056  1.00  0.00     0.116 A 
HETATM   52  H4  UNL     1      13.782   0.151  -1.700  1.00  0.00     0.167 HD
HETATM   53  C21 UNL     1      15.910   0.046   0.367  1.00  0.00     0.109 A 
HETATM   54  C23 UNL     1      14.597   1.951   0.895  1.00  0.00     0.142 A 
HETATM   55  N5  UNL     1      16.655   0.339   1.461  1.00  0.00    -0.341 N 
HETATM   56  C22 UNL     1      16.308   1.410   2.202  1.00  0.00     0.183 A 
HETATM   57  H5  UNL     1      17.458  -0.237   1.716  1.00  0.00     0.167 HD
HETATM   58  N6  UNL     1      15.294   2.276   1.999  1.00  0.00    -0.336 N 
HETATM   59  H6  UNL     1      15.084   3.071   2.601  1.00  0.00     0.168 HD
BRANCH  53  60
HETATM   60  N7  UNL     1      16.262  -1.065  -0.383  1.00  0.00    -0.287 NA
HETATM   61  H33 UNL     1      17.061  -0.920  -0.997  1.00  0.00     0.125 HD
HETATM   62  H34 UNL     1      15.464  -1.543  -0.779  1.00  0.00     0.125 HD
ENDBRANCH  53  60
ENDBRANCH  37  48
ENDBRANCH  33  34
ENDBRANCH  32  33
ENDBRANCH  28  32
ENDBRANCH  27  28
ENDBRANCH  23  27
ENDBRANCH  22  23
ENDBRANCH  21  22
ENDBRANCH  18  21
ENDBRANCH  17  18
BRANCH  17  63
HETATM   63  O17 UNL     1      15.641   6.840  -0.776  1.00  0.00    -0.385 OA
HETATM   64  H38 UNL     1      15.822   6.437  -1.642  1.00  0.00     0.210 HD
ENDBRANCH  17  63
ENDBRANCH  14  17
ENDBRANCH  12  13
ENDBRANCH  11  12
ENDBRANCH   8  11
ENDBRANCH   6   7
ENDBRANCH   5   6
ENDBRANCH   4   5
ENDBRANCH   2   4
TORSDOF 27
ENDMDL
MODEL 3
REMARK VINA RESULT:      -4.9      3.855     10.774
REMARK  27 active torsions:
REMARK  status: ('A' for Active; 'I' for Inactive)
REMARK    1  A    between atoms: C2_2  and  S1_4 
REMARK    2  A    between atoms: S1_4  and  C3_5 
REMARK    3  A    between atoms: C3_5  and  C4_6 
REMARK    4  A    between atoms: C4_6  and  N1_7 
REMARK       I    between atoms: N1_7  and  C5_8 
REMARK    5  A    between atoms: C5_8  and  C6_10 
REMARK    6  A    between atoms: C6_10  and  C7_11 
REMARK    7  A    between atoms: C7_11  and  N2_12 
REMARK       I    between atoms: N2_12  and  C8_13 
REMARK    8  A    between atoms: C8_13  and  C9_15 
REMARK    9  A    between atoms: C9_15  and  C10_16 
REMARK   10  A    between atoms: C9_15  and  O17_54 
REMARK   11  A    between atoms: C10_16  and  C13_19 
REMARK   12  A    between atoms: C13_19  and  O4_20 
REMARK   13  A    between atoms: O4_20  and  P1_21 
REMARK   14  A    between atoms: P1_21  and  O6_23 
REMARK   15  A    between atoms: P1_21  and  O7_24 
REMARK   16  A    between atoms: O7_24  and  P2_25 
REMARK   17  A    between atoms: P2_25  and  O9_27 
REMARK   18  A    between atoms: P2_25  and  O10_28 
REMARK   19  A    between atoms: O10_28  and  C14_29 
REMARK   20  A    between atoms: C14_29  and  C15_30 
REMARK   21  A    between atoms: C16_31  and  O13_49 
REMARK   22  A    between atoms: C17_32  and  O12_48 
REMARK   23  A    between atoms: C18_33  and  N3_35 
REMARK   24  A    between atoms: C21_40  and  N7_47 
REMARK   25  A    between atoms: O13_49  and  P3_50 
REMARK   26  A    between atoms: P3_50  and  O15_52 
REMARK   27  A    between atoms: P3_50  and  O16_53 
ROOT
HETATM    1  C1  UNL     1      14.709  10.157   6.496  1.00  0.00     0.104 C 
HETATM    2  C2  UNL     1      14.399   8.940   7.312  1.00  0.00     0.182 C 
HETATM    3  O1  UNL     1      15.250   8.316   7.942  1.00  0.00    -0.286 OA
ENDROOT
BRANCH   2   4
HETATM    4  S1  UNL     1      12.713   8.445   7.266  1.00  0.00    -0.091 SA
BRANCH   4   5
HETATM    5  C3  UNL     1      12.329   8.769   5.514  1.00  0.00     0.102 C 
BRANCH   5   6
HETATM    6  C4  UNL     1      10.972   8.188   5.111  1.00  0.00     0.133 C 
BRANCH   6   7
HETATM    7  N1  UNL     1      11.037   6.772   4.809  1.00  0.00    -0.360 N 
HETATM    8  C5  UNL     1      10.456   6.246   3.678  1.00  0.00     0.219 C 
HETATM    9  O2  UNL     1       9.785   6.921   2.906  1.00  0.00    -0.274 OA
HETATM   10  H8  UNL     1      11.530   6.161   5.446  1.00  0.00     0.162 HD
BRANCH   8  11
HETATM   11  C6  UNL     1      10.688   4.759   3.523  1.00  0.00     0.122 C 
BRANCH  11  12
HETATM   12  C7  UNL     1      12.073   4.453   2.955  1.00  0.00     0.132 C 
BRANCH  12  13
HETATM   13  N2  UNL     1      12.517   5.431   1.984  1.00  0.00    -0.358 N 
HETATM   14  C8  UNL     1      13.524   6.323   2.304  1.00  0.00     0.247 C 
HETATM   15  O3  UNL     1      13.990   6.402   3.434  1.00  0.00    -0.271 OA
HETATM   16  H13 UNL     1      12.439   5.147   1.010  1.00  0.00     0.162 HD
BRANCH  14  17
HETATM   17  C9  UNL     1      14.020   7.183   1.132  1.00  0.00     0.219 C 
BRANCH  17  18
HETATM   18  C10 UNL     1      15.446   6.831   0.634  1.00  0.00     0.009 C 
HETATM   19  C11 UNL     1      16.529   7.256   1.638  1.00  0.00     0.020 C 
HETATM   20  C12 UNL     1      15.600   5.318   0.381  1.00  0.00     0.020 C 
BRANCH  18  21
HETATM   21  C13 UNL     1      15.637   7.608  -0.700  1.00  0.00     0.192 C 
BRANCH  21  22
HETATM   22  O4  UNL     1      15.436   8.999  -0.546  1.00  0.00    -0.296 OA
BRANCH  22  23
HETATM   23  P1  UNL     1      16.317  10.096  -1.315  1.00  0.00     0.401 P 
HETATM   24  O5  UNL     1      16.909   9.613  -2.602  1.00  0.00    -0.631 OA
BRANCH  23  25
HETATM   25  O6  UNL     1      17.407  10.639  -0.262  1.00  0.00    -0.307 OA
HETATM   26  H23 UNL     1      17.098  11.426   0.204  1.00  0.00     0.222 HD
ENDBRANCH  23  25
BRANCH  23  27
HETATM   27  O7  UNL     1      15.365  11.363  -1.455  1.00  0.00    -0.195 OA
BRANCH  27  28
HETATM   28  P2  UNL     1      15.851  12.598  -2.337  1.00  0.00     0.401 P 
HETATM   29  O8  UNL     1      17.179  13.191  -1.996  1.00  0.00    -0.631 OA
BRANCH  28  30
HETATM   30  O9  UNL     1      15.749  12.043  -3.831  1.00  0.00    -0.307 OA
HETATM   31  H24 UNL     1      16.603  11.702  -4.194  1.00  0.00     0.222 HD
ENDBRANCH  28  30
BRANCH  28  32
HETATM   32  O10 UNL     1      14.610  13.602  -2.311  1.00  0.00    -0.294 OA
BRANCH  32  33
HETATM   33  C14 UNL     1      14.177  14.214  -3.498  1.00  0.00     0.215 C 
BRANCH  33  34
HETATM   34  C15 UNL     1      12.652  14.125  -3.493  1.00  0.00     0.180 C 
HETATM   35  C16 UNL     1      12.054  15.523  -3.425  1.00  0.00     0.197 C 
HETATM   36  C17 UNL     1      11.282  15.549  -2.120  1.00  0.00     0.199 C 
HETATM   37  C18 UNL     1      10.965  14.068  -1.903  1.00  0.00     0.262 C 
HETATM   38  O11 UNL     1      12.140  13.378  -2.383  1.00  0.00    -0.353 OA
BRANCH  35  39
HETATM   39  O13 UNL     1      11.203  15.694  -4.555  1.00  0.00    -0.286 OA
BRANCH  39  40
HETATM   40  P3  UNL     1      11.490  16.992  -5.443  1.00  0.00     0.391 P 
HETATM   41  O14 UNL     1      11.135  18.276  -4.765  1.00  0.00    -0.632 OA
BRANCH  40  42
HETATM   42  O15 UNL     1      10.699  16.619  -6.782  1.00  0.00    -0.307 OA
HETATM   43  H36 UNL     1       9.833  17.090  -6.819  1.00  0.00     0.222 HD
ENDBRANCH  40  42
BRANCH  40  44
HETATM   44  O16 UNL     1      13.011  16.769  -5.847  1.00  0.00    -0.307 OA
HETATM   45  H37 UNL     1      13.536  16.374  -5.132  1.00  0.00     0.222 HD
ENDBRANCH  40  44
ENDBRANCH  39  40
ENDBRANCH  35  39
BRANCH  36  46
HETATM   46  O12 UNL     1      10.176  16.450  -2.215  1.00  0.00    -0.388 OA
HETATM   47  H35 UNL     1       9.526  16.166  -1.529  1.00  0.00     0.210 HD
ENDBRANCH  36  46
BRANCH  37  48
HETATM   48  N3  UNL     1      10.771  13.739  -0.505  1.00  0.00    -0.297 N 
HETATM   49  C19 UNL     1       9.800  14.229   0.337  1.00  0.00     0.188 A 
HETATM   50  N4  UNL     1       9.814  13.638   1.512  1.00  0.00    -0.346 N 
HETATM   51  C20 UNL     1      10.842  12.716   1.426  1.00  0.00     0.116 A 
HETATM   52  H4  UNL     1       9.203  13.819   2.309  1.00  0.00     0.167 HD
HETATM   53  C21 UNL     1      11.335  11.752   2.323  1.00  0.00     0.109 A 
HETATM   54  C23 UNL     1      11.469  12.795   0.196  1.00  0.00     0.142 A 
HETATM   55  N5  UNL     1      12.387  10.988   1.941  1.00  0.00    -0.341 N 
HETATM   56  C22 UNL     1      12.913  11.193   0.717  1.00  0.00     0.183 A 
HETATM   57  H5  UNL     1      12.769  10.276   2.563  1.00  0.00     0.167 HD
HETATM   58  N6  UNL     1      12.522  12.074  -0.226  1.00  0.00    -0.336 N 
HETATM   59  H6  UNL     1      12.966  12.180  -1.138  1.00  0.00     0.168 HD
BRANCH  53  60
HETATM   60  N7  UNL     1      10.807  11.548   3.588  1.00  0.00    -0.287 NA
HETATM   61  H33 UNL     1       9.822  11.789   3.675  1.00  0.00     0.125 HD
HETATM   62  H34 UNL     1      11.420  11.863   4.328  1.00  0.00     0.125 HD
ENDBRANCH  53  60
ENDBRANCH  37  48
ENDBRANCH  33  34
ENDBRANCH  32  33
ENDBRANCH  28  32
ENDBRANCH  27  28
ENDBRANCH  23  27
ENDBRANCH  22  23
ENDBRANCH  21  22
ENDBRANCH  18  21
ENDBRANCH  17  18
BRANCH  17  63
HETATM   63  O17 UNL     1      13.115   7.078   0.027  1.00  0.00    -0.385 OA
HETATM   64  H38 UNL     1      12.513   6.335   0.200  1.00  0.00     0.210 HD
ENDBRANCH  17  63
ENDBRANCH  14  17
ENDBRANCH  12  13
ENDBRANCH  11  12
ENDBRANCH   8  11
ENDBRANCH   6   7
ENDBRANCH   5   6
ENDBRANCH   4   5
ENDBRANCH   2   4
TORSDOF 27
ENDMDL
MODEL 4
REMARK VINA RESULT:      -4.8      3.716      6.745
REMARK  27 active torsions:
REMARK  status: ('A' for Active; 'I' for Inactive)
REMARK    1  A    between atoms: C2_2  and  S1_4 
REMARK    2  A    between atoms: S1_4  and  C3_5 
REMARK    3  A    between atoms: C3_5  and  C4_6 
REMARK    4  A    between atoms: C4_6  and  N1_7 
REMARK       I    between atoms: N1_7  and  C5_8 
REMARK    5  A    between atoms: C5_8  and  C6_10 
REMARK    6  A    between atoms: C6_10  and  C7_11 
REMARK    7  A    between atoms: C7_11  and  N2_12 
REMARK       I    between atoms: N2_12  and  C8_13 
REMARK    8  A    between atoms: C8_13  and  C9_15 
REMARK    9  A    between atoms: C9_15  and  C10_16 
REMARK   10  A    between atoms: C9_15  and  O17_54 
REMARK   11  A    between atoms: C10_16  and  C13_19 
REMARK   12  A    between atoms: C13_19  and  O4_20 
REMARK   13  A    between atoms: O4_20  and  P1_21 
REMARK   14  A    between atoms: P1_21  and  O6_23 
REMARK   15  A    between atoms: P1_21  and  O7_24 
REMARK   16  A    between atoms: O7_24  and  P2_25 
REMARK   17  A    between atoms: P2_25  and  O9_27 
REMARK   18  A    between atoms: P2_25  and  O10_28 
REMARK   19  A    between atoms: O10_28  and  C14_29 
REMARK   20  A    between atoms: C14_29  and  C15_30 
REMARK   21  A    between atoms: C16_31  and  O13_49 
REMARK   22  A    between atoms: C17_32  and  O12_48 
REMARK   23  A    between atoms: C18_33  and  N3_35 
REMARK   24  A    between atoms: C21_40  and  N7_47 
REMARK   25  A    between atoms: O13_49  and  P3_50 
REMARK   26  A    between atoms: P3_50  and  O15_52 
REMARK   27  A    between atoms: P3_50  and  O16_53 
ROOT
HETATM    1  C1  UNL     1      10.973  12.682  -1.129  1.00  0.00     0.104 C 
HETATM    2  C2  UNL     1      11.520  13.712  -2.068  1.00  0.00     0.182 C 
HETATM    3  O1  UNL     1      12.682  13.712  -2.466  1.00  0.00    -0.286 OA
ENDROOT
BRANCH   2   4
HETATM    4  S1  UNL     1      10.368  14.958  -2.529  1.00  0.00    -0.091 SA
BRANCH   4   5
HETATM    5  C3  UNL     1      10.241  15.878  -0.960  1.00  0.00     0.102 C 
BRANCH   5   6
HETATM    6  C4  UNL     1       8.874  15.692  -0.300  1.00  0.00     0.133 C 
BRANCH   6   7
HETATM    7  N1  UNL     1       8.970  15.170   1.048  1.00  0.00    -0.360 N 
HETATM    8  C5  UNL     1       7.932  14.483   1.634  1.00  0.00     0.219 C 
HETATM    9  O2  UNL     1       6.844  14.340   1.090  1.00  0.00    -0.274 OA
HETATM   10  H8  UNL     1       9.828  15.312   1.564  1.00  0.00     0.162 HD
BRANCH   8  11
HETATM   11  C6  UNL     1       8.258  13.977   3.023  1.00  0.00     0.122 C 
BRANCH  11  12
HETATM   12  C7  UNL     1       8.040  12.469   3.147  1.00  0.00     0.132 C 
BRANCH  12  13
HETATM   13  N2  UNL     1       9.035  11.818   3.972  1.00  0.00    -0.358 N 
HETATM   14  C8  UNL     1       8.861  10.504   4.367  1.00  0.00     0.247 C 
HETATM   15  O3  UNL     1       7.827   9.888   4.143  1.00  0.00    -0.271 OA
HETATM   16  H13 UNL     1       9.991  12.142   3.844  1.00  0.00     0.162 HD
BRANCH  14  17
HETATM   17  C9  UNL     1      10.068   9.882   5.086  1.00  0.00     0.219 C 
BRANCH  17  18
HETATM   18  C10 UNL     1      10.138  10.187   6.605  1.00  0.00     0.009 C 
HETATM   19  C11 UNL     1       8.758  10.519   7.193  1.00  0.00     0.020 C 
HETATM   20  C12 UNL     1      10.716   8.995   7.395  1.00  0.00     0.020 C 
BRANCH  18  21
HETATM   21  C13 UNL     1      11.077  11.418   6.751  1.00  0.00     0.192 C 
BRANCH  21  22
HETATM   22  O4  UNL     1      12.367  11.176   6.227  1.00  0.00    -0.296 OA
BRANCH  22  23
HETATM   23  P1  UNL     1      12.977  12.004   4.996  1.00  0.00     0.401 P 
HETATM   24  O5  UNL     1      14.276  12.682   5.299  1.00  0.00    -0.631 OA
BRANCH  23  25
HETATM   25  O6  UNL     1      11.823  13.006   4.493  1.00  0.00    -0.307 OA
HETATM   26  H23 UNL     1      11.027  12.533   4.219  1.00  0.00     0.222 HD
ENDBRANCH  23  25
BRANCH  23  27
HETATM   27  O7  UNL     1      13.033  10.967   3.791  1.00  0.00    -0.195 OA
BRANCH  27  28
HETATM   28  P2  UNL     1      12.638  11.463   2.330  1.00  0.00     0.401 P 
HETATM   29  O8  UNL     1      11.202  11.801   2.095  1.00  0.00    -0.631 OA
BRANCH  28  30
HETATM   30  O9  UNL     1      13.643  12.676   2.070  1.00  0.00    -0.307 OA
HETATM   31  H24 UNL     1      13.212  13.565   2.070  1.00  0.00     0.222 HD
ENDBRANCH  28  30
BRANCH  28  32
HETATM   32  O10 UNL     1      13.261  10.354   1.364  1.00  0.00    -0.294 OA
BRANCH  32  33
HETATM   33  C14 UNL     1      13.629   9.101   1.879  1.00  0.00     0.215 C 
BRANCH  33  34
HETATM   34  C15 UNL     1      15.070   8.862   1.429  1.00  0.00     0.180 C 
HETATM   35  C16 UNL     1      15.227   9.267  -0.031  1.00  0.00     0.197 C 
HETATM   36  C17 UNL     1      15.611   7.985  -0.746  1.00  0.00     0.199 C 
HETATM   37  C18 UNL     1      16.256   7.169   0.377  1.00  0.00     0.262 C 
HETATM   38  O11 UNL     1      15.472   7.493   1.547  1.00  0.00    -0.353 OA
BRANCH  35  39
HETATM   39  O13 UNL     1      16.253  10.252  -0.107  1.00  0.00    -0.286 OA
BRANCH  39  40
HETATM   40  P3  UNL     1      15.903  11.545  -0.979  1.00  0.00     0.391 P 
HETATM   41  O14 UNL     1      16.697  12.755  -0.608  1.00  0.00    -0.632 OA
BRANCH  40  42
HETATM   42  O15 UNL     1      14.316  11.614  -0.789  1.00  0.00    -0.307 OA
HETATM   43  H36 UNL     1      14.001  10.873  -0.219  1.00  0.00     0.222 HD
ENDBRANCH  40  42
BRANCH  40  44
HETATM   44  O16 UNL     1      16.066  10.982  -2.457  1.00  0.00    -0.307 OA
HETATM   45  H37 UNL     1      16.092  11.684  -3.127  1.00  0.00     0.222 HD
ENDBRANCH  40  44
ENDBRANCH  39  40
ENDBRANCH  35  39
BRANCH  36  46
HETATM   46  O12 UNL     1      16.417   8.278  -1.890  1.00  0.00    -0.388 OA
HETATM   47  H35 UNL     1      15.867   8.062  -2.680  1.00  0.00     0.210 HD
ENDBRANCH  36  46
BRANCH  37  48
HETATM   48  N3  UNL     1      16.177   5.741   0.144  1.00  0.00    -0.297 N 
HETATM   49  C19 UNL     1      17.191   4.909  -0.270  1.00  0.00     0.188 A 
HETATM   50  N4  UNL     1      16.831   3.644  -0.266  1.00  0.00    -0.346 N 
HETATM   51  C20 UNL     1      15.520   3.656   0.177  1.00  0.00     0.116 A 
HETATM   52  H4  UNL     1      17.393   2.835  -0.529  1.00  0.00     0.167 HD
HETATM   53  C21 UNL     1      14.594   2.632   0.438  1.00  0.00     0.109 A 
HETATM   54  C23 UNL     1      15.090   4.952   0.396  1.00  0.00     0.142 A 
HETATM   55  N5  UNL     1      13.352   2.972   0.863  1.00  0.00    -0.341 N 
HETATM   56  C22 UNL     1      13.065   4.281   1.010  1.00  0.00     0.183 A 
HETATM   57  H5  UNL     1      12.655   2.257   1.066  1.00  0.00     0.167 HD
HETATM   58  N6  UNL     1      13.869   5.344   0.801  1.00  0.00    -0.336 N 
HETATM   59  H6  UNL     1      13.588   6.316   0.931  1.00  0.00     0.168 HD
BRANCH  53  60
HETATM   60  N7  UNL     1      14.879   1.286   0.274  1.00  0.00    -0.287 NA
HETATM   61  H33 UNL     1      14.694   0.929  -0.661  1.00  0.00     0.125 HD
HETATM   62  H34 UNL     1      14.564   0.718   1.049  1.00  0.00     0.125 HD
ENDBRANCH  53  60
ENDBRANCH  37  48
ENDBRANCH  33  34
ENDBRANCH  32  33
ENDBRANCH  28  32
ENDBRANCH  27  28
ENDBRANCH  23  27
ENDBRANCH  22  23
ENDBRANCH  21  22
ENDBRANCH  18  21
ENDBRANCH  17  18
BRANCH  17  63
HETATM   63  O17 UNL     1      10.070   8.462   4.907  1.00  0.00    -0.385 OA
HETATM   64  H38 UNL     1       9.356   8.235   4.287  1.00  0.00     0.210 HD
ENDBRANCH  17  63
ENDBRANCH  14  17
ENDBRANCH  12  13
ENDBRANCH  11  12
ENDBRANCH   8  11
ENDBRANCH   6   7
ENDBRANCH   5   6
ENDBRANCH   4   5
ENDBRANCH   2   4
TORSDOF 27
ENDMDL
MODEL 5
REMARK VINA RESULT:      -4.5     12.419     17.492
REMARK  27 active torsions:
REMARK  status: ('A' for Active; 'I' for Inactive)
REMARK    1  A    between atoms: C2_2  and  S1_4 
REMARK    2  A    between atoms: S1_4  and  C3_5 
REMARK    3  A    between atoms: C3_5  and  C4_6 
REMARK    4  A    between atoms: C4_6  and  N1_7 
REMARK       I    between atoms: N1_7  and  C5_8 
REMARK    5  A    between atoms: C5_8  and  C6_10 
REMARK    6  A    between atoms: C6_10  and  C7_11 
REMARK    7  A    between atoms: C7_11  and  N2_12 
REMARK       I    between atoms: N2_12  and  C8_13 
REMARK    8  A    between atoms: C8_13  and  C9_15 
REMARK    9  A    between atoms: C9_15  and  C10_16 
REMARK   10  A    between atoms: C9_15  and  O17_54 
REMARK   11  A    between atoms: C10_16  and  C13_19 
REMARK   12  A    between atoms: C13_19  and  O4_20 
REMARK   13  A    between atoms: O4_20  and  P1_21 
REMARK   14  A    between atoms: P1_21  and  O6_23 
REMARK   15  A    between atoms: P1_21  and  O7_24 
REMARK   16  A    between atoms: O7_24  and  P2_25 
REMARK   17  A    between atoms: P2_25  and  O9_27 
REMARK   18  A    between atoms: P2_25  and  O10_28 
REMARK   19  A    between atoms: O10_28  and  C14_29 
REMARK   20  A    between atoms: C14_29  and  C15_30 
REMARK   21  A    between atoms: C16_31  and  O13_49 
REMARK   22  A    between atoms: C17_32  and  O12_48 
REMARK   23  A    between atoms: C18_33  and  N3_35 
REMARK   24  A    between atoms: C21_40  and  N7_47 
REMARK   25  A    between atoms: O13_49  and  P3_50 
REMARK   26  A    between atoms: P3_50  and  O15_52 
REMARK   27  A    between atoms: P3_50  and  O16_53 
ROOT
HETATM    1  C1  UNL     1      -2.992  14.261 -15.261  1.00  0.00     0.104 C 
HETATM    2  C2  UNL     1      -3.203  12.903 -15.857  1.00  0.00     0.182 C 
HETATM    3  O1  UNL     1      -3.410  12.716 -17.053  1.00  0.00    -0.286 OA
ENDROOT
BRANCH   2   4
HETATM    4  S1  UNL     1      -3.168  11.587 -14.691  1.00  0.00    -0.091 SA
BRANCH   4   5
HETATM    5  C3  UNL     1      -1.371  11.426 -14.437  1.00  0.00     0.102 C 
BRANCH   5   6
HETATM    6  C4  UNL     1      -0.734  10.479 -15.454  1.00  0.00     0.133 C 
BRANCH   6   7
HETATM    7  N1  UNL     1       0.315  11.111 -16.228  1.00  0.00    -0.360 N 
HETATM    8  C5  UNL     1       1.642  10.983 -15.889  1.00  0.00     0.219 C 
HETATM    9  O2  UNL     1       2.011  10.400 -14.877  1.00  0.00    -0.274 OA
HETATM   10  H8  UNL     1       0.059  11.655 -17.042  1.00  0.00     0.162 HD
BRANCH   8  11
HETATM   11  C6  UNL     1       2.577  11.675 -16.858  1.00  0.00     0.122 C 
BRANCH  11  12
HETATM   12  C7  UNL     1       2.281  13.170 -16.968  1.00  0.00     0.132 C 
BRANCH  12  13
HETATM   13  N2  UNL     1       3.199  13.988 -16.205  1.00  0.00    -0.358 N 
HETATM   14  C8  UNL     1       2.719  14.938 -15.323  1.00  0.00     0.247 C 
HETATM   15  O3  UNL     1       1.527  15.206 -15.239  1.00  0.00    -0.271 OA
HETATM   16  H13 UNL     1       4.091  13.552 -15.979  1.00  0.00     0.162 HD
BRANCH  14  17
HETATM   17  C9  UNL     1       3.791  15.609 -14.451  1.00  0.00     0.219 C 
BRANCH  17  18
HETATM   18  C10 UNL     1       4.594  16.727 -15.167  1.00  0.00     0.009 C 
HETATM   19  C11 UNL     1       5.788  16.168 -15.954  1.00  0.00     0.020 C 
HETATM   20  C12 UNL     1       3.707  17.520 -16.148  1.00  0.00     0.020 C 
BRANCH  18  21
HETATM   21  C13 UNL     1       5.106  17.671 -14.041  1.00  0.00     0.192 C 
BRANCH  21  22
HETATM   22  O4  UNL     1       5.754  16.967 -13.001  1.00  0.00    -0.296 OA
BRANCH  22  23
HETATM   23  P1  UNL     1       7.291  17.209 -12.612  1.00  0.00     0.401 P 
HETATM   24  O5  UNL     1       7.963  18.281 -13.411  1.00  0.00    -0.631 OA
BRANCH  23  25
HETATM   25  O6  UNL     1       8.023  15.778 -12.699  1.00  0.00    -0.307 OA
HETATM   26  H23 UNL     1       8.884  15.838 -13.134  1.00  0.00     0.222 HD
ENDBRANCH  23  25
BRANCH  23  27
HETATM   27  O7  UNL     1       7.283  17.457 -11.041  1.00  0.00    -0.195 OA
BRANCH  27  28
HETATM   28  P2  UNL     1       8.650  17.327 -10.234  1.00  0.00     0.401 P 
HETATM   29  O8  UNL     1       9.079  15.950  -9.847  1.00  0.00    -0.631 OA
BRANCH  28  30
HETATM   30  O9  UNL     1       9.697  18.099 -11.159  1.00  0.00    -0.307 OA
HETATM   31  H24 UNL     1       9.750  17.754 -12.084  1.00  0.00     0.222 HD
ENDBRANCH  28  30
BRANCH  28  32
HETATM   32  O10 UNL     1       8.492  18.371  -9.035  1.00  0.00    -0.294 OA
BRANCH  32  33
HETATM   33  C14 UNL     1       8.981  18.054  -7.759  1.00  0.00     0.215 C 
BRANCH  33  34
HETATM   34  C15 UNL     1       7.862  17.292  -7.050  1.00  0.00     0.180 C 
HETATM   35  C16 UNL     1       7.009  18.261  -6.243  1.00  0.00     0.197 C 
HETATM   36  C17 UNL     1       7.171  17.811  -4.804  1.00  0.00     0.199 C 
HETATM   37  C18 UNL     1       7.525  16.331  -4.967  1.00  0.00     0.262 C 
HETATM   38  O11 UNL     1       8.351  16.290  -6.151  1.00  0.00    -0.353 OA
BRANCH  35  39
HETATM   39  O13 UNL     1       5.663  18.144  -6.694  1.00  0.00    -0.286 OA
BRANCH  39  40
HETATM   40  P3  UNL     1       5.202  19.225  -7.778  1.00  0.00     0.391 P 
HETATM   41  O14 UNL     1       5.952  20.515  -7.698  1.00  0.00    -0.632 OA
BRANCH  40  42
HETATM   42  O15 UNL     1       3.626  19.267  -7.507  1.00  0.00    -0.307 OA
HETATM   43  H36 UNL     1       3.430  19.735  -6.661  1.00  0.00     0.222 HD
ENDBRANCH  40  42
BRANCH  40  44
HETATM   44  O16 UNL     1       5.316  18.389  -9.125  1.00  0.00    -0.307 OA
HETATM   45  H37 UNL     1       6.232  18.164  -9.353  1.00  0.00     0.222 HD
ENDBRANCH  40  44
ENDBRANCH  39  40
ENDBRANCH  35  39
BRANCH  36  46
HETATM   46  O12 UNL     1       5.998  18.127  -4.050  1.00  0.00    -0.388 OA
HETATM   47  H35 UNL     1       6.131  17.738  -3.153  1.00  0.00     0.210 HD
ENDBRANCH  36  46
BRANCH  37  48
HETATM   48  N3  UNL     1       8.287  15.815  -3.848  1.00  0.00    -0.297 N 
HETATM   49  C19 UNL     1       7.875  14.890  -2.917  1.00  0.00     0.188 A 
HETATM   50  N4  UNL     1       8.845  14.536  -2.103  1.00  0.00    -0.346 N 
HETATM   51  C20 UNL     1       9.942  15.262  -2.530  1.00  0.00     0.116 A 
HETATM   52  H4  UNL     1       8.799  13.873  -1.329  1.00  0.00     0.167 HD
HETATM   53  C21 UNL     1      11.282  15.303  -2.107  1.00  0.00     0.109 A 
HETATM   54  C23 UNL     1       9.601  16.088  -3.586  1.00  0.00     0.142 A 
HETATM   55  N5  UNL     1      12.136  16.147  -2.735  1.00  0.00    -0.341 N 
HETATM   56  C22 UNL     1      11.656  16.912  -3.736  1.00  0.00     0.183 A 
HETATM   57  H5  UNL     1      13.116  16.201  -2.458  1.00  0.00     0.167 HD
HETATM   58  N6  UNL     1      10.403  16.953  -4.232  1.00  0.00    -0.336 N 
HETATM   59  H6  UNL     1      10.102  17.559  -4.996  1.00  0.00     0.168 HD
BRANCH  53  60
HETATM   60  N7  UNL     1      11.777  14.529  -1.069  1.00  0.00    -0.287 NA
HETATM   61  H33 UNL     1      11.303  13.636  -0.949  1.00  0.00     0.125 HD
HETATM   62  H34 UNL     1      11.960  15.064  -0.231  1.00  0.00     0.125 HD
ENDBRANCH  53  60
ENDBRANCH  37  48
ENDBRANCH  33  34
ENDBRANCH  32  33
ENDBRANCH  28  32
ENDBRANCH  27  28
ENDBRANCH  23  27
ENDBRANCH  22  23
ENDBRANCH  21  22
ENDBRANCH  18  21
ENDBRANCH  17  18
BRANCH  17  63
HETATM   63  O17 UNL     1       3.194  16.161 -13.273  1.00  0.00    -0.385 OA
HETATM   64  H38 UNL     1       3.724  16.927 -12.996  1.00  0.00     0.210 HD
ENDBRANCH  17  63
ENDBRANCH  14  17
ENDBRANCH  12  13
ENDBRANCH  11  12
ENDBRANCH   8  11
ENDBRANCH   6   7
ENDBRANCH   5   6
ENDBRANCH   4   5
ENDBRANCH   2   4
TORSDOF 27
ENDMDL
MODEL 6
REMARK VINA RESULT:      -4.4      3.655      6.264
REMARK  27 active torsions:
REMARK  status: ('A' for Active; 'I' for Inactive)
REMARK    1  A    between atoms: C2_2  and  S1_4 
REMARK    2  A    between atoms: S1_4  and  C3_5 
REMARK    3  A    between atoms: C3_5  and  C4_6 
REMARK    4  A    between atoms: C4_6  and  N1_7 
REMARK       I    between atoms: N1_7  and  C5_8 
REMARK    5  A    between atoms: C5_8  and  C6_10 
REMARK    6  A    between atoms: C6_10  and  C7_11 
REMARK    7  A    between atoms: C7_11  and  N2_12 
REMARK       I    between atoms: N2_12  and  C8_13 
REMARK    8  A    between atoms: C8_13  and  C9_15 
REMARK    9  A    between atoms: C9_15  and  C10_16 
REMARK   10  A    between atoms: C9_15  and  O17_54 
REMARK   11  A    between atoms: C10_16  and  C13_19 
REMARK   12  A    between atoms: C13_19  and  O4_20 
REMARK   13  A    between atoms: O4_20  and  P1_21 
REMARK   14  A    between atoms: P1_21  and  O6_23 
REMARK   15  A    between atoms: P1_21  and  O7_24 
REMARK   16  A    between atoms: O7_24  and  P2_25 
REMARK   17  A    between atoms: P2_25  and  O9_27 
REMARK   18  A    between atoms: P2_25  and  O10_28 
REMARK   19  A    between atoms: O10_28  and  C14_29 
REMARK   20  A    between atoms: C14_29  and  C15_30 
REMARK   21  A    between atoms: C16_31  and  O13_49 
REMARK   22  A    between atoms: C17_32  and  O12_48 
REMARK   23  A    between atoms: C18_33  and  N3_35 
REMARK   24  A    between atoms: C21_40  and  N7_47 
REMARK   25  A    between atoms: O13_49  and  P3_50 
REMARK   26  A    between atoms: P3_50  and  O15_52 
REMARK   27  A    between atoms: P3_50  and  O16_53 
ROOT
HETATM    1  C1  UNL     1      14.915  17.941  -4.722  1.00  0.00     0.104 C 
HETATM    2  C2  UNL     1      13.639  17.220  -5.034  1.00  0.00     0.182 C 
HETATM    3  O1  UNL     1      13.563  16.306  -5.851  1.00  0.00    -0.286 OA
ENDROOT
BRANCH   2   4
HETATM    4  S1  UNL     1      12.236  17.818  -4.159  1.00  0.00    -0.091 SA
BRANCH   4   5
HETATM    5  C3  UNL     1      11.311  18.596  -5.523  1.00  0.00     0.102 C 
BRANCH   5   6
HETATM    6  C4  UNL     1      10.190  17.691  -6.039  1.00  0.00     0.133 C 
BRANCH   6   7
HETATM    7  N1  UNL     1       8.871  18.196  -5.717  1.00  0.00    -0.360 N 
HETATM    8  C5  UNL     1       7.820  17.352  -5.444  1.00  0.00     0.219 C 
HETATM    9  O2  UNL     1       7.912  16.133  -5.533  1.00  0.00    -0.274 OA
HETATM   10  H8  UNL     1       8.727  19.197  -5.687  1.00  0.00     0.162 HD
BRANCH   8  11
HETATM   11  C6  UNL     1       6.546  18.082  -5.078  1.00  0.00     0.122 C 
BRANCH  11  12
HETATM   12  C7  UNL     1       6.240  17.982  -3.583  1.00  0.00     0.132 C 
BRANCH  12  13
HETATM   13  N2  UNL     1       6.841  16.824  -2.957  1.00  0.00    -0.358 N 
HETATM   14  C8  UNL     1       6.953  16.755  -1.581  1.00  0.00     0.247 C 
HETATM   15  O3  UNL     1       6.666  17.699  -0.856  1.00  0.00    -0.271 OA
HETATM   16  H13 UNL     1       6.727  15.945  -3.459  1.00  0.00     0.162 HD
BRANCH  14  17
HETATM   17  C9  UNL     1       7.444  15.403  -1.040  1.00  0.00     0.219 C 
BRANCH  17  18
HETATM   18  C10 UNL     1       8.948  15.118  -1.293  1.00  0.00     0.009 C 
HETATM   19  C11 UNL     1       9.166  14.204  -2.508  1.00  0.00     0.020 C 
HETATM   20  C12 UNL     1       9.738  16.421  -1.531  1.00  0.00     0.020 C 
BRANCH  18  21
HETATM   21  C13 UNL     1       9.470  14.414  -0.008  1.00  0.00     0.192 C 
BRANCH  21  22
HETATM   22  O4  UNL     1      10.628  13.641  -0.251  1.00  0.00    -0.296 OA
BRANCH  22  23
HETATM   23  P1  UNL     1      12.032  13.926   0.469  1.00  0.00     0.401 P 
HETATM   24  O5  UNL     1      12.267  15.365   0.804  1.00  0.00    -0.631 OA
BRANCH  23  25
HETATM   25  O6  UNL     1      13.174  13.282  -0.465  1.00  0.00    -0.307 OA
HETATM   26  H23 UNL     1      12.799  12.790  -1.207  1.00  0.00     0.222 HD
ENDBRANCH  23  25
BRANCH  23  27
HETATM   27  O7  UNL     1      12.061  12.940   1.718  1.00  0.00    -0.195 OA
BRANCH  27  28
HETATM   28  P2  UNL     1      12.228  11.377   1.460  1.00  0.00     0.401 P 
HETATM   29  O8  UNL     1      11.646  10.457   2.483  1.00  0.00    -0.631 OA
BRANCH  28  30
HETATM   30  O9  UNL     1      11.630  11.181  -0.007  1.00  0.00    -0.307 OA
HETATM   31  H24 UNL     1      11.468  10.238  -0.255  1.00  0.00     0.222 HD
ENDBRANCH  28  30
BRANCH  28  32
HETATM   32  O10 UNL     1      13.788  11.198   1.168  1.00  0.00    -0.294 OA
BRANCH  32  33
HETATM   33  C14 UNL     1      14.656  10.812   2.201  1.00  0.00     0.215 C 
BRANCH  33  34
HETATM   34  C15 UNL     1      15.554   9.721   1.619  1.00  0.00     0.180 C 
HETATM   35  C16 UNL     1      15.407   9.688   0.103  1.00  0.00     0.197 C 
HETATM   36  C17 UNL     1      14.852   8.309  -0.199  1.00  0.00     0.199 C 
HETATM   37  C18 UNL     1      15.333   7.496   1.005  1.00  0.00     0.262 C 
HETATM   38  O11 UNL     1      15.241   8.415   2.116  1.00  0.00    -0.353 OA
BRANCH  35  39
HETATM   39  O13 UNL     1      16.696   9.884  -0.469  1.00  0.00    -0.286 OA
BRANCH  39  40
HETATM   40  P3  UNL     1      16.813  11.098  -1.503  1.00  0.00     0.391 P 
HETATM   41  O14 UNL     1      17.982  11.995  -1.250  1.00  0.00    -0.632 OA
BRANCH  40  42
HETATM   42  O15 UNL     1      15.351  11.736  -1.382  1.00  0.00    -0.307 OA
HETATM   43  H36 UNL     1      14.668  11.029  -1.295  1.00  0.00     0.222 HD
ENDBRANCH  40  42
BRANCH  40  44
HETATM   44  O16 UNL     1      16.760  10.333  -2.895  1.00  0.00    -0.307 OA
HETATM   45  H37 UNL     1      16.044  10.646  -3.470  1.00  0.00     0.222 HD
ENDBRANCH  40  44
ENDBRANCH  39  40
ENDBRANCH  35  39
BRANCH  36  46
HETATM   46  O12 UNL     1      15.275   7.877  -1.495  1.00  0.00    -0.388 OA
HETATM   47  H35 UNL     1      14.507   8.013  -2.098  1.00  0.00     0.210 HD
ENDBRANCH  36  46
BRANCH  37  48
HETATM   48  N3  UNL     1      14.488   6.350   1.277  1.00  0.00    -0.297 N 
HETATM   49  C19 UNL     1      14.790   5.025   1.062  1.00  0.00     0.188 A 
HETATM   50  N4  UNL     1      13.862   4.220   1.531  1.00  0.00    -0.346 N 
HETATM   51  C20 UNL     1      12.914   5.064   2.082  1.00  0.00     0.116 A 
HETATM   52  H4  UNL     1      13.845   3.201   1.497  1.00  0.00     0.167 HD
HETATM   53  C21 UNL     1      11.712   4.827   2.771  1.00  0.00     0.109 A 
HETATM   54  C23 UNL     1      13.271   6.388   1.896  1.00  0.00     0.142 A 
HETATM   55  N5  UNL     1      10.981   5.890   3.186  1.00  0.00    -0.341 N 
HETATM   56  C22 UNL     1      11.442   7.127   2.914  1.00  0.00     0.183 A 
HETATM   57  H5  UNL     1      10.106   5.757   3.693  1.00  0.00     0.167 HD
HETATM   58  N6  UNL     1      12.576   7.476   2.273  1.00  0.00    -0.336 N 
HETATM   59  H6  UNL     1      12.869   8.437   2.097  1.00  0.00     0.168 HD
BRANCH  53  60
HETATM   60  N7  UNL     1      11.227   3.557   3.041  1.00  0.00    -0.287 NA
HETATM   61  H33 UNL     1      11.919   2.816   2.952  1.00  0.00     0.125 HD
HETATM   62  H34 UNL     1      10.320   3.385   2.627  1.00  0.00     0.125 HD
ENDBRANCH  53  60
ENDBRANCH  37  48
ENDBRANCH  33  34
ENDBRANCH  32  33
ENDBRANCH  28  32
ENDBRANCH  27  28
ENDBRANCH  23  27
ENDBRANCH  22  23
ENDBRANCH  21  22
ENDBRANCH  18  21
ENDBRANCH  17  18
BRANCH  17  63
HETATM   63  O17 UNL     1       7.195  15.315   0.367  1.00  0.00    -0.385 OA
HETATM   64  H38 UNL     1       6.295  15.641   0.535  1.00  0.00     0.210 HD
ENDBRANCH  17  63
ENDBRANCH  14  17
ENDBRANCH  12  13
ENDBRANCH  11  12
ENDBRANCH   8  11
ENDBRANCH   6   7
ENDBRANCH   5   6
ENDBRANCH   4   5
ENDBRANCH   2   4
TORSDOF 27
ENDMDL
MODEL 7
REMARK VINA RESULT:      -4.3      6.942      9.948
REMARK  27 active torsions:
REMARK  status: ('A' for Active; 'I' for Inactive)
REMARK    1  A    between atoms: C2_2  and  S1_4 
REMARK    2  A    between atoms: S1_4  and  C3_5 
REMARK    3  A    between atoms: C3_5  and  C4_6 
REMARK    4  A    between atoms: C4_6  and  N1_7 
REMARK       I    between atoms: N1_7  and  C5_8 
REMARK    5  A    between atoms: C5_8  and  C6_10 
REMARK    6  A    between atoms: C6_10  and  C7_11 
REMARK    7  A    between atoms: C7_11  and  N2_12 
REMARK       I    between atoms: N2_12  and  C8_13 
REMARK    8  A    between atoms: C8_13  and  C9_15 
REMARK    9  A    between atoms: C9_15  and  C10_16 
REMARK   10  A    between atoms: C9_15  and  O17_54 
REMARK   11  A    between atoms: C10_16  and  C13_19 
REMARK   12  A    between atoms: C13_19  and  O4_20 
REMARK   13  A    between atoms: O4_20  and  P1_21 
REMARK   14  A    between atoms: P1_21  and  O6_23 
REMARK   15  A    between atoms: P1_21  and  O7_24 
REMARK   16  A    between atoms: O7_24  and  P2_25 
REMARK   17  A    between atoms: P2_25  and  O9_27 
REMARK   18  A    between atoms: P2_25  and  O10_28 
REMARK   19  A    between atoms: O10_28  and  C14_29 
REMARK   20  A    between atoms: C14_29  and  C15_30 
REMARK   21  A    between atoms: C16_31  and  O13_49 
REMARK   22  A    between atoms: C17_32  and  O12_48 
REMARK   23  A    between atoms: C18_33  and  N3_35 
REMARK   24  A    between atoms: C21_40  and  N7_47 
REMARK   25  A    between atoms: O13_49  and  P3_50 
REMARK   26  A    between atoms: P3_50  and  O15_52 
REMARK   27  A    between atoms: P3_50  and  O16_53 
ROOT
HETATM    1  C1  UNL     1       7.630  23.750   2.170  1.00  0.00     0.104 C 
HETATM    2  C2  UNL     1       8.031  22.426   1.596  1.00  0.00     0.182 C 
HETATM    3  O1  UNL     1       9.070  21.845   1.902  1.00  0.00    -0.286 OA
ENDROOT
BRANCH   2   4
HETATM    4  S1  UNL     1       6.907  21.779   0.409  1.00  0.00    -0.091 SA
BRANCH   4   5
HETATM    5  C3  UNL     1       6.630  20.115   1.098  1.00  0.00     0.102 C 
BRANCH   5   6
HETATM    6  C4  UNL     1       7.349  19.035   0.287  1.00  0.00     0.133 C 
BRANCH   6   7
HETATM    7  N1  UNL     1       6.499  18.435  -0.722  1.00  0.00    -0.360 N 
HETATM    8  C5  UNL     1       5.944  17.188  -0.552  1.00  0.00     0.219 C 
HETATM    9  O2  UNL     1       6.196  16.479   0.416  1.00  0.00    -0.274 OA
HETATM   10  H8  UNL     1       6.306  18.955  -1.567  1.00  0.00     0.162 HD
BRANCH   8  11
HETATM   11  C6  UNL     1       5.046  16.771  -1.697  1.00  0.00     0.122 C 
BRANCH  11  12
HETATM   12  C7  UNL     1       5.785  15.903  -2.715  1.00  0.00     0.132 C 
BRANCH  12  13
HETATM   13  N2  UNL     1       7.097  15.491  -2.264  1.00  0.00    -0.358 N 
HETATM   14  C8  UNL     1       7.993  14.924  -3.152  1.00  0.00     0.247 C 
HETATM   15  O3  UNL     1       7.681  14.642  -4.302  1.00  0.00    -0.271 OA
HETATM   16  H13 UNL     1       7.485  16.031  -1.493  1.00  0.00     0.162 HD
BRANCH  14  17
HETATM   17  C9  UNL     1       9.404  14.699  -2.588  1.00  0.00     0.219 C 
BRANCH  17  18
HETATM   18  C10 UNL     1      10.328  15.943  -2.652  1.00  0.00     0.009 C 
HETATM   19  C11 UNL     1       9.959  16.879  -3.812  1.00  0.00     0.020 C 
HETATM   20  C12 UNL     1      10.268  16.759  -1.345  1.00  0.00     0.020 C 
BRANCH  18  21
HETATM   21  C13 UNL     1      11.769  15.394  -2.862  1.00  0.00     0.192 C 
BRANCH  21  22
HETATM   22  O4  UNL     1      11.993  14.187  -2.160  1.00  0.00    -0.296 OA
BRANCH  22  23
HETATM   23  P1  UNL     1      13.087  14.047  -0.997  1.00  0.00     0.401 P 
HETATM   24  O5  UNL     1      14.326  14.855  -1.222  1.00  0.00    -0.631 OA
BRANCH  23  25
HETATM   25  O6  UNL     1      13.364  12.472  -0.807  1.00  0.00    -0.307 OA
HETATM   26  H23 UNL     1      14.144  12.181  -1.296  1.00  0.00     0.222 HD
ENDBRANCH  23  25
BRANCH  23  27
HETATM   27  O7  UNL     1      12.306  14.387   0.346  1.00  0.00    -0.195 OA
BRANCH  27  28
HETATM   28  P2  UNL     1      12.667  13.582   1.672  1.00  0.00     0.401 P 
HETATM   29  O8  UNL     1      14.076  13.105   1.811  1.00  0.00    -0.631 OA
BRANCH  28  30
HETATM   30  O9  UNL     1      12.195  14.566   2.838  1.00  0.00    -0.307 OA
HETATM   31  H24 UNL     1      12.025  15.493   2.540  1.00  0.00     0.222 HD
ENDBRANCH  28  30
BRANCH  28  32
HETATM   32  O10 UNL     1      11.537  12.458   1.762  1.00  0.00    -0.294 OA
BRANCH  32  33
HETATM   33  C14 UNL     1      11.875  11.151   2.145  1.00  0.00     0.215 C 
BRANCH  33  34
HETATM   34  C15 UNL     1      11.173  10.902   3.479  1.00  0.00     0.180 C 
HETATM   35  C16 UNL     1      10.005   9.946   3.276  1.00  0.00     0.197 C 
HETATM   36  C17 UNL     1       8.779  10.749   3.666  1.00  0.00     0.199 C 
HETATM   37  C18 UNL     1       9.363  11.785   4.630  1.00  0.00     0.262 C 
HETATM   38  O11 UNL     1      10.658  12.100   4.072  1.00  0.00    -0.353 OA
BRANCH  35  39
HETATM   39  O13 UNL     1      10.203   8.822   4.127  1.00  0.00    -0.286 OA
BRANCH  39  40
HETATM   40  P3  UNL     1      10.312   7.409   3.387  1.00  0.00     0.391 P 
HETATM   41  O14 UNL     1      10.481   6.252   4.319  1.00  0.00    -0.632 OA
BRANCH  40  42
HETATM   42  O15 UNL     1      11.494   7.704   2.351  1.00  0.00    -0.307 OA
HETATM   43  H36 UNL     1      12.313   7.218   2.609  1.00  0.00     0.222 HD
ENDBRANCH  40  42
BRANCH  40  44
HETATM   44  O16 UNL     1       9.013   7.432   2.470  1.00  0.00    -0.307 OA
HETATM   45  H37 UNL     1       9.197   7.725   1.564  1.00  0.00     0.222 HD
ENDBRANCH  40  44
ENDBRANCH  39  40
ENDBRANCH  35  39
BRANCH  36  46
HETATM   46  O12 UNL     1       7.759   9.884   4.171  1.00  0.00    -0.388 OA
HETATM   47  H35 UNL     1       7.362  10.345   4.948  1.00  0.00     0.210 HD
ENDBRANCH  36  46
BRANCH  37  48
HETATM   48  N3  UNL     1       8.573  12.998   4.690  1.00  0.00    -0.297 N 
HETATM   49  C19 UNL     1       7.753  13.406   5.715  1.00  0.00     0.188 A 
HETATM   50  N4  UNL     1       7.274  14.615   5.520  1.00  0.00    -0.346 N 
HETATM   51  C20 UNL     1       7.815  15.013   4.311  1.00  0.00     0.116 A 
HETATM   52  H4  UNL     1       6.645  15.142   6.126  1.00  0.00     0.167 HD
HETATM   53  C21 UNL     1       7.726  16.207   3.574  1.00  0.00     0.109 A 
HETATM   54  C23 UNL     1       8.590  14.006   3.766  1.00  0.00     0.142 A 
HETATM   55  N5  UNL     1       8.379  16.289   2.389  1.00  0.00    -0.341 N 
HETATM   56  C22 UNL     1       9.079  15.216   1.971  1.00  0.00     0.183 A 
HETATM   57  H5  UNL     1       8.341  17.140   1.828  1.00  0.00     0.167 HD
HETATM   58  N6  UNL     1       9.243  14.029   2.591  1.00  0.00    -0.336 N 
HETATM   59  H6  UNL     1       9.790  13.252   2.218  1.00  0.00     0.168 HD
BRANCH  53  60
HETATM   60  N7  UNL     1       6.995  17.308   3.992  1.00  0.00    -0.287 NA
HETATM   61  H33 UNL     1       6.192  17.081   4.574  1.00  0.00     0.125 HD
HETATM   62  H34 UNL     1       6.848  17.986   3.257  1.00  0.00     0.125 HD
ENDBRANCH  53  60
ENDBRANCH  37  48
ENDBRANCH  33  34
ENDBRANCH  32  33
ENDBRANCH  28  32
ENDBRANCH  27  28
ENDBRANCH  23  27
ENDBRANCH  22  23
ENDBRANCH  21  22
ENDBRANCH  18  21
ENDBRANCH  17  18
BRANCH  17  63
HETATM   63  O17 UNL     1       9.326  14.260  -1.227  1.00  0.00    -0.385 OA
HETATM   64  H38 UNL     1       8.753  13.475  -1.195  1.00  0.00     0.210 HD
ENDBRANCH  17  63
ENDBRANCH  14  17
ENDBRANCH  12  13
ENDBRANCH  11  12
ENDBRANCH   8  11
ENDBRANCH   6   7
ENDBRANCH   5   6
ENDBRANCH   4   5
ENDBRANCH   2   4
TORSDOF 27
ENDMDL
MODEL 8
REMARK VINA RESULT:      -4.3      6.395      9.797
REMARK  27 active torsions:
REMARK  status: ('A' for Active; 'I' for Inactive)
REMARK    1  A    between atoms: C2_2  and  S1_4 
REMARK    2  A    between atoms: S1_4  and  C3_5 
REMARK    3  A    between atoms: C3_5  and  C4_6 
REMARK    4  A    between atoms: C4_6  and  N1_7 
REMARK       I    between atoms: N1_7  and  C5_8 
REMARK    5  A    between atoms: C5_8  and  C6_10 
REMARK    6  A    between atoms: C6_10  and  C7_11 
REMARK    7  A    between atoms: C7_11  and  N2_12 
REMARK       I    between atoms: N2_12  and  C8_13 
REMARK    8  A    between atoms: C8_13  and  C9_15 
REMARK    9  A    between atoms: C9_15  and  C10_16 
REMARK   10  A    between atoms: C9_15  and  O17_54 
REMARK   11  A    between atoms: C10_16  and  C13_19 
REMARK   12  A    between atoms: C13_19  and  O4_20 
REMARK   13  A    between atoms: O4_20  and  P1_21 
REMARK   14  A    between atoms: P1_21  and  O6_23 
REMARK   15  A    between atoms: P1_21  and  O7_24 
REMARK   16  A    between atoms: O7_24  and  P2_25 
REMARK   17  A    between atoms: P2_25  and  O9_27 
REMARK   18  A    between atoms: P2_25  and  O10_28 
REMARK   19  A    between atoms: O10_28  and  C14_29 
REMARK   20  A    between atoms: C14_29  and  C15_30 
REMARK   21  A    between atoms: C16_31  and  O13_49 
REMARK   22  A    between atoms: C17_32  and  O12_48 
REMARK   23  A    between atoms: C18_33  and  N3_35 
REMARK   24  A    between atoms: C21_40  and  N7_47 
REMARK   25  A    between atoms: O13_49  and  P3_50 
REMARK   26  A    between atoms: P3_50  and  O15_52 
REMARK   27  A    between atoms: P3_50  and  O16_53 
ROOT
HETATM    1  C1  UNL     1       3.572  19.136   7.332  1.00  0.00     0.104 C 
HETATM    2  C2  UNL     1       3.105  17.715   7.416  1.00  0.00     0.182 C 
HETATM    3  O1  UNL     1       1.977  17.396   7.783  1.00  0.00    -0.286 OA
ENDROOT
BRANCH   2   4
HETATM    4  S1  UNL     1       4.324  16.524   6.982  1.00  0.00    -0.091 SA
BRANCH   4   5
HETATM    5  C3  UNL     1       3.315  15.376   5.989  1.00  0.00     0.102 C 
BRANCH   5   6
HETATM    6  C4  UNL     1       3.014  14.081   6.746  1.00  0.00     0.133 C 
BRANCH   6   7
HETATM    7  N1  UNL     1       3.790  12.957   6.263  1.00  0.00    -0.360 N 
HETATM    8  C5  UNL     1       4.926  12.529   6.910  1.00  0.00     0.219 C 
HETATM    9  O2  UNL     1       5.394  13.116   7.879  1.00  0.00    -0.274 OA
HETATM   10  H8  UNL     1       3.478  12.473   5.431  1.00  0.00     0.162 HD
BRANCH   8  11
HETATM   11  C6  UNL     1       5.554  11.308   6.274  1.00  0.00     0.122 C 
BRANCH  11  12
HETATM   12  C7  UNL     1       7.075  11.425   6.192  1.00  0.00     0.132 C 
BRANCH  12  13
HETATM   13  N2  UNL     1       7.648  10.646   5.115  1.00  0.00    -0.358 N 
HETATM   14  C8  UNL     1       8.737  11.125   4.411  1.00  0.00     0.247 C 
HETATM   15  O3  UNL     1       9.179  12.254   4.583  1.00  0.00    -0.271 OA
HETATM   16  H13 UNL     1       7.564   9.636   5.212  1.00  0.00     0.162 HD
BRANCH  14  17
HETATM   17  C9  UNL     1       9.353  10.127   3.419  1.00  0.00     0.219 C 
BRANCH  17  18
HETATM   18  C10 UNL     1      10.748   9.588   3.831  1.00  0.00     0.009 C 
HETATM   19  C11 UNL     1      11.059   9.861   5.310  1.00  0.00     0.020 C 
HETATM   20  C12 UNL     1      10.859   8.068   3.595  1.00  0.00     0.020 C 
BRANCH  18  21
HETATM   21  C13 UNL     1      11.776  10.335   2.935  1.00  0.00     0.192 C 
BRANCH  21  22
HETATM   22  O4  UNL     1      12.750   9.466   2.393  1.00  0.00    -0.296 OA
BRANCH  22  23
HETATM   23  P1  UNL     1      13.602   9.821   1.083  1.00  0.00     0.401 P 
HETATM   24  O5  UNL     1      13.714  11.287   0.805  1.00  0.00    -0.631 OA
BRANCH  23  25
HETATM   25  O6  UNL     1      12.964   8.977  -0.131  1.00  0.00    -0.307 OA
HETATM   26  H23 UNL     1      12.024   9.166  -0.247  1.00  0.00     0.222 HD
ENDBRANCH  23  25
BRANCH  23  27
HETATM   27  O7  UNL     1      14.993   9.074   1.281  1.00  0.00    -0.195 OA
BRANCH  27  28
HETATM   28  P2  UNL     1      16.014   9.010   0.060  1.00  0.00     0.401 P 
HETATM   29  O8  UNL     1      15.477   9.361  -1.289  1.00  0.00    -0.631 OA
BRANCH  28  30
HETATM   30  O9  UNL     1      17.221   9.936   0.542  1.00  0.00    -0.307 OA
HETATM   31  H24 UNL     1      18.097   9.479   0.565  1.00  0.00     0.222 HD
ENDBRANCH  28  30
BRANCH  28  32
HETATM   32  O10 UNL     1      16.682   7.565   0.191  1.00  0.00    -0.294 OA
BRANCH  32  33
HETATM   33  C14 UNL     1      17.963   7.334  -0.333  1.00  0.00     0.215 C 
BRANCH  33  34
HETATM   34  C15 UNL     1      18.436   6.010   0.264  1.00  0.00     0.180 C 
HETATM   35  C16 UNL     1      18.685   5.001  -0.850  1.00  0.00     0.197 C 
HETATM   36  C17 UNL     1      17.700   3.879  -0.580  1.00  0.00     0.199 C 
HETATM   37  C18 UNL     1      17.467   4.010   0.927  1.00  0.00     0.262 C 
HETATM   38  O11 UNL     1      17.486   5.434   1.169  1.00  0.00    -0.353 OA
BRANCH  35  39
HETATM   39  O13 UNL     1      20.037   4.564  -0.754  1.00  0.00    -0.286 OA
BRANCH  39  40
HETATM   40  P3  UNL     1      20.895   4.679  -2.098  1.00  0.00     0.391 P 
HETATM   41  O14 UNL     1      22.320   5.068  -1.871  1.00  0.00    -0.632 OA
BRANCH  40  42
HETATM   42  O15 UNL     1      19.982   5.677  -2.952  1.00  0.00    -0.307 OA
HETATM   43  H36 UNL     1      19.066   5.711  -2.586  1.00  0.00     0.222 HD
ENDBRANCH  40  42
BRANCH  40  44
HETATM   44  O16 UNL     1      20.615   3.266  -2.772  1.00  0.00    -0.307 OA
HETATM   45  H37 UNL     1      21.084   2.540  -2.333  1.00  0.00     0.222 HD
ENDBRANCH  40  44
ENDBRANCH  39  40
ENDBRANCH  35  39
BRANCH  36  46
HETATM   46  O12 UNL     1      18.221   2.637  -1.059  1.00  0.00    -0.388 OA
HETATM   47  H35 UNL     1      17.481   1.987  -1.008  1.00  0.00     0.210 HD
ENDBRANCH  36  46
BRANCH  37  48
HETATM   48  N3  UNL     1      16.180   3.484   1.338  1.00  0.00    -0.297 N 
HETATM   49  C19 UNL     1      15.930   2.271   1.935  1.00  0.00     0.188 A 
HETATM   50  N4  UNL     1      14.673   2.144   2.300  1.00  0.00    -0.346 N 
HETATM   51  C20 UNL     1      14.080   3.337   1.926  1.00  0.00     0.116 A 
HETATM   52  H4  UNL     1      14.234   1.346   2.758  1.00  0.00     0.167 HD
HETATM   53  C21 UNL     1      12.775   3.840   2.074  1.00  0.00     0.109 A 
HETATM   54  C23 UNL     1      14.993   4.160   1.293  1.00  0.00     0.142 A 
HETATM   55  N5  UNL     1      12.494   5.070   1.580  1.00  0.00    -0.341 N 
HETATM   56  C22 UNL     1      13.481   5.751   0.964  1.00  0.00     0.183 A 
HETATM   57  H5  UNL     1      11.560   5.470   1.671  1.00  0.00     0.167 HD
HETATM   58  N6  UNL     1      14.763   5.378   0.772  1.00  0.00    -0.336 N 
HETATM   59  H6  UNL     1      15.464   5.945   0.294  1.00  0.00     0.168 HD
BRANCH  53  60
HETATM   60  N7  UNL     1      11.753   3.137   2.692  1.00  0.00    -0.287 NA
HETATM   61  H33 UNL     1      11.157   2.616   2.054  1.00  0.00     0.125 HD
HETATM   62  H34 UNL     1      11.290   3.670   3.416  1.00  0.00     0.125 HD
ENDBRANCH  53  60
ENDBRANCH  37  48
ENDBRANCH  33  34
ENDBRANCH  32  33
ENDBRANCH  28  32
ENDBRANCH  27  28
ENDBRANCH  23  27
ENDBRANCH  22  23
ENDBRANCH  21  22
ENDBRANCH  18  21
ENDBRANCH  17  18
BRANCH  17  63
HETATM   63  O17 UNL     1       8.473   9.013   3.230  1.00  0.00    -0.385 OA
HETATM   64  H38 UNL     1       8.080   9.085   2.344  1.00  0.00     0.210 HD
ENDBRANCH  17  63
ENDBRANCH  14  17
ENDBRANCH  12  13
ENDBRANCH  11  12
ENDBRANCH   8  11
ENDBRANCH   6   7
ENDBRANCH   5   6
ENDBRANCH   4   5
ENDBRANCH   2   4
TORSDOF 27
ENDMDL
MODEL 9
REMARK VINA RESULT:      -4.1     12.172     15.997
REMARK  27 active torsions:
REMARK  status: ('A' for Active; 'I' for Inactive)
REMARK    1  A    between atoms: C2_2  and  S1_4 
REMARK    2  A    between atoms: S1_4  and  C3_5 
REMARK    3  A    between atoms: C3_5  and  C4_6 
REMARK    4  A    between atoms: C4_6  and  N1_7 
REMARK       I    between atoms: N1_7  and  C5_8 
REMARK    5  A    between atoms: C5_8  and  C6_10 
REMARK    6  A    between atoms: C6_10  and  C7_11 
REMARK    7  A    between atoms: C7_11  and  N2_12 
REMARK       I    between atoms: N2_12  and  C8_13 
REMARK    8  A    between atoms: C8_13  and  C9_15 
REMARK    9  A    between atoms: C9_15  and  C10_16 
REMARK   10  A    between atoms: C9_15  and  O17_54 
REMARK   11  A    between atoms: C10_16  and  C13_19 
REMARK   12  A    between atoms: C13_19  and  O4_20 
REMARK   13  A    between atoms: O4_20  and  P1_21 
REMARK   14  A    between atoms: P1_21  and  O6_23 
REMARK   15  A    between atoms: P1_21  and  O7_24 
REMARK   16  A    between atoms: O7_24  and  P2_25 
REMARK   17  A    between atoms: P2_25  and  O9_27 
REMARK   18  A    between atoms: P2_25  and  O10_28 
REMARK   19  A    between atoms: O10_28  and  C14_29 
REMARK   20  A    between atoms: C14_29  and  C15_30 
REMARK   21  A    between atoms: C16_31  and  O13_49 
REMARK   22  A    between atoms: C17_32  and  O12_48 
REMARK   23  A    between atoms: C18_33  and  N3_35 
REMARK   24  A    between atoms: C21_40  and  N7_47 
REMARK   25  A    between atoms: O13_49  and  P3_50 
REMARK   26  A    between atoms: P3_50  and  O15_52 
REMARK   27  A    between atoms: P3_50  and  O16_53 
ROOT
HETATM    1  C1  UNL     1      24.156   9.243  -9.994  1.00  0.00     0.104 C 
HETATM    2  C2  UNL     1      22.814   8.936 -10.587  1.00  0.00     0.182 C 
HETATM    3  O1  UNL     1      21.803   8.759  -9.913  1.00  0.00    -0.286 OA
ENDROOT
BRANCH   2   4
HETATM    4  S1  UNL     1      22.810   8.809 -12.341  1.00  0.00    -0.091 SA
BRANCH   4   5
HETATM    5  C3  UNL     1      22.124   7.134 -12.542  1.00  0.00     0.102 C 
BRANCH   5   6
HETATM    6  C4  UNL     1      20.615   7.162 -12.796  1.00  0.00     0.133 C 
BRANCH   6   7
HETATM    7  N1  UNL     1      20.089   8.508 -12.889  1.00  0.00    -0.360 N 
HETATM    8  C5  UNL     1      19.591   9.011 -14.068  1.00  0.00     0.219 C 
HETATM    9  O2  UNL     1      19.636   8.388 -15.123  1.00  0.00    -0.274 OA
HETATM   10  H8  UNL     1      20.083   9.087 -12.059  1.00  0.00     0.162 HD
BRANCH   8  11
HETATM   11  C6  UNL     1      19.040  10.415 -13.936  1.00  0.00     0.122 C 
BRANCH  11  12
HETATM   12  C7  UNL     1      20.114  11.475 -14.180  1.00  0.00     0.132 C 
BRANCH  12  13
HETATM   13  N2  UNL     1      19.938  12.659 -13.366  1.00  0.00    -0.358 N 
HETATM   14  C8  UNL     1      19.538  13.849 -13.944  1.00  0.00     0.247 C 
HETATM   15  O3  UNL     1      19.434  13.982 -15.157  1.00  0.00    -0.271 OA
HETATM   16  H13 UNL     1      19.653  12.490 -12.403  1.00  0.00     0.162 HD
BRANCH  14  17
HETATM   17  C9  UNL     1      19.218  14.974 -12.948  1.00  0.00     0.219 C 
BRANCH  17  18
HETATM   18  C10 UNL     1      17.704  15.242 -12.745  1.00  0.00     0.009 C 
HETATM   19  C11 UNL     1      17.220  16.462 -13.543  1.00  0.00     0.020 C 
HETATM   20  C12 UNL     1      16.853  14.028 -13.171  1.00  0.00     0.020 C 
BRANCH  18  21
HETATM   21  C13 UNL     1      17.518  15.505 -11.223  1.00  0.00     0.192 C 
BRANCH  21  22
HETATM   22  O4  UNL     1      16.158  15.648 -10.864  1.00  0.00    -0.296 OA
BRANCH  22  23
HETATM   23  P1  UNL     1      15.680  16.486  -9.584  1.00  0.00     0.401 P 
HETATM   24  O5  UNL     1      16.403  17.783  -9.395  1.00  0.00    -0.631 OA
BRANCH  23  25
HETATM   25  O6  UNL     1      15.778  15.497  -8.317  1.00  0.00    -0.307 OA
HETATM   26  H23 UNL     1      15.777  14.569  -8.583  1.00  0.00     0.222 HD
ENDBRANCH  23  25
BRANCH  23  27
HETATM   27  O7  UNL     1      14.103  16.622  -9.748  1.00  0.00    -0.195 OA
BRANCH  27  28
HETATM   28  P2  UNL     1      13.308  17.594  -8.767  1.00  0.00     0.401 P 
HETATM   29  O8  UNL     1      13.723  17.594  -7.331  1.00  0.00    -0.631 OA
BRANCH  28  30
HETATM   30  O9  UNL     1      13.432  19.017  -9.480  1.00  0.00    -0.307 OA
HETATM   31  H24 UNL     1      12.567  19.405  -9.760  1.00  0.00     0.222 HD
ENDBRANCH  28  30
BRANCH  28  32
HETATM   32  O10 UNL     1      11.773  17.256  -9.049  1.00  0.00    -0.294 OA
BRANCH  32  33
HETATM   33  C14 UNL     1      11.025  18.063  -9.921  1.00  0.00     0.215 C 
BRANCH  33  34
HETATM   34  C15 UNL     1       9.819  18.552  -9.121  1.00  0.00     0.180 C 
HETATM   35  C16 UNL     1       9.442  17.514  -8.072  1.00  0.00     0.197 C 
HETATM   36  C17 UNL     1       8.038  17.080  -8.448  1.00  0.00     0.199 C 
HETATM   37  C18 UNL     1       7.515  18.301  -9.209  1.00  0.00     0.262 C 
HETATM   38  O11 UNL     1       8.665  18.786  -9.937  1.00  0.00    -0.353 OA
BRANCH  35  39
HETATM   39  O13 UNL     1       9.485  18.142  -6.795  1.00  0.00    -0.286 OA
BRANCH  39  40
HETATM   40  P3  UNL     1      10.314  17.362  -5.672  1.00  0.00     0.391 P 
HETATM   41  O14 UNL     1      11.182  18.249  -4.839  1.00  0.00    -0.632 OA
BRANCH  40  42
HETATM   42  O15 UNL     1      11.033  16.240  -6.556  1.00  0.00    -0.307 OA
HETATM   43  H36 UNL     1      12.013  16.288  -6.450  1.00  0.00     0.222 HD
ENDBRANCH  40  42
BRANCH  40  44
HETATM   44  O16 UNL     1       9.160  16.556  -4.932  1.00  0.00    -0.307 OA
HETATM   45  H37 UNL     1       9.431  15.660  -4.676  1.00  0.00     0.222 HD
ENDBRANCH  40  44
ENDBRANCH  39  40
ENDBRANCH  35  39
BRANCH  36  46
HETATM   46  O12 UNL     1       7.315  16.674  -7.283  1.00  0.00    -0.388 OA
HETATM   47  H35 UNL     1       7.356  17.432  -6.652  1.00  0.00     0.210 HD
ENDBRANCH  36  46
BRANCH  37  48
HETATM   48  N3  UNL     1       6.473  17.962 -10.157  1.00  0.00    -0.297 N 
HETATM   49  C19 UNL     1       5.136  18.271 -10.069  1.00  0.00     0.188 A 
HETATM   50  N4  UNL     1       4.473  17.932 -11.153  1.00  0.00    -0.346 N 
HETATM   51  C20 UNL     1       5.428  17.379 -11.988  1.00  0.00     0.116 A 
HETATM   52  H4  UNL     1       3.477  18.049 -11.337  1.00  0.00     0.167 HD
HETATM   53  C21 UNL     1       5.370  16.868 -13.296  1.00  0.00     0.109 A 
HETATM   54  C23 UNL     1       6.664  17.356 -11.368  1.00  0.00     0.142 A 
HETATM   55  N5  UNL     1       6.504  16.376 -13.852  1.00  0.00    -0.341 N 
HETATM   56  C22 UNL     1       7.635  16.396 -13.118  1.00  0.00     0.183 A 
HETATM   57  H5  UNL     1       6.501  16.000 -14.800  1.00  0.00     0.167 HD
HETATM   58  N6  UNL     1       7.813  16.866 -11.867  1.00  0.00    -0.336 N 
HETATM   59  H6  UNL     1       8.701  16.851 -11.365  1.00  0.00     0.168 HD
BRANCH  53  60
HETATM   60  N7  UNL     1       4.207  16.832 -14.048  1.00  0.00    -0.287 NA
HETATM   61  H33 UNL     1       3.769  17.740 -14.187  1.00  0.00     0.125 HD
HETATM   62  H34 UNL     1       3.597  16.065 -13.795  1.00  0.00     0.125 HD
ENDBRANCH  53  60
ENDBRANCH  37  48
ENDBRANCH  33  34
ENDBRANCH  32  33
ENDBRANCH  28  32
ENDBRANCH  27  28
ENDBRANCH  23  27
ENDBRANCH  22  23
ENDBRANCH  21  22
ENDBRANCH  18  21
ENDBRANCH  17  18
BRANCH  17  63
HETATM   63  O17 UNL     1      19.804  14.685 -11.674  1.00  0.00    -0.385 OA
HETATM   64  H38 UNL     1      20.739  14.463 -11.815  1.00  0.00     0.210 HD
ENDBRANCH  17  63
ENDBRANCH  14  17
ENDBRANCH  12  13
ENDBRANCH  11  12
ENDBRANCH   8  11
ENDBRANCH   6   7
ENDBRANCH   5   6
ENDBRANCH   4   5
ENDBRANCH   2   4
TORSDOF 27
ENDMDL
MODEL 10
REMARK VINA RESULT:      -4.1      4.080      9.458
REMARK  27 active torsions:
REMARK  status: ('A' for Active; 'I' for Inactive)
REMARK    1  A    between atoms: C2_2  and  S1_4 
REMARK    2  A    between atoms: S1_4  and  C3_5 
REMARK    3  A    between atoms: C3_5  and  C4_6 
REMARK    4  A    between atoms: C4_6  and  N1_7 
REMARK       I    between atoms: N1_7  and  C5_8 
REMARK    5  A    between atoms: C5_8  and  C6_10 
REMARK    6  A    between atoms: C6_10  and  C7_11 
REMARK    7  A    between atoms: C7_11  and  N2_12 
REMARK       I    between atoms: N2_12  and  C8_13 
REMARK    8  A    between atoms: C8_13  and  C9_15 
REMARK    9  A    between atoms: C9_15  and  C10_16 
REMARK   10  A    between atoms: C9_15  and  O17_54 
REMARK   11  A    between atoms: C10_16  and  C13_19 
REMARK   12  A    between atoms: C13_19  and  O4_20 
REMARK   13  A    between atoms: O4_20  and  P1_21 
REMARK   14  A    between atoms: P1_21  and  O6_23 
REMARK   15  A    between atoms: P1_21  and  O7_24 
REMARK   16  A    between atoms: O7_24  and  P2_25 
REMARK   17  A    between atoms: P2_25  and  O9_27 
REMARK   18  A    between atoms: P2_25  and  O10_28 
REMARK   19  A    between atoms: O10_28  and  C14_29 
REMARK   20  A    between atoms: C14_29  and  C15_30 
REMARK   21  A    between atoms: C16_31  and  O13_49 
REMARK   22  A    between atoms: C17_32  and  O12_48 
REMARK   23  A    between atoms: C18_33  and  N3_35 
REMARK   24  A    between atoms: C21_40  and  N7_47 
REMARK   25  A    between atoms: O13_49  and  P3_50 
REMARK   26  A    between atoms: P3_50  and  O15_52 
REMARK   27  A    between atoms: P3_50  and  O16_53 
ROOT
HETATM    1  C1  UNL     1      20.561   3.540   5.617  1.00  0.00     0.104 C 
HETATM    2  C2  UNL     1      21.752   4.188   6.254  1.00  0.00     0.182 C 
HETATM    3  O1  UNL     1      22.879   3.700   6.228  1.00  0.00    -0.286 OA
ENDROOT
BRANCH   2   4
HETATM    4  S1  UNL     1      21.399   5.697   7.085  1.00  0.00    -0.091 SA
BRANCH   4   5
HETATM    5  C3  UNL     1      19.770   6.088   6.367  1.00  0.00     0.102 C 
BRANCH   5   6
HETATM    6  C4  UNL     1      19.794   7.399   5.580  1.00  0.00     0.133 C 
BRANCH   6   7
HETATM    7  N1  UNL     1      18.654   7.544   4.699  1.00  0.00    -0.360 N 
HETATM    8  C5  UNL     1      18.528   8.617   3.847  1.00  0.00     0.219 C 
HETATM    9  O2  UNL     1      19.324   9.549   3.838  1.00  0.00    -0.274 OA
HETATM   10  H8  UNL     1      17.938   6.830   4.709  1.00  0.00     0.162 HD
BRANCH   8  11
HETATM   11  C6  UNL     1      17.294   8.548   2.974  1.00  0.00     0.122 C 
BRANCH  11  12
HETATM   12  C7  UNL     1      17.617   8.046   1.567  1.00  0.00     0.132 C 
BRANCH  12  13
HETATM   13  N2  UNL     1      17.467   6.612   1.428  1.00  0.00    -0.358 N 
HETATM   14  C8  UNL     1      16.277   6.077   0.971  1.00  0.00     0.247 C 
HETATM   15  O3  UNL     1      15.282   6.766   0.783  1.00  0.00    -0.271 OA
HETATM   16  H13 UNL     1      18.321   6.102   1.211  1.00  0.00     0.162 HD
BRANCH  14  17
HETATM   17  C9  UNL     1      16.312   4.566   0.701  1.00  0.00     0.219 C 
BRANCH  17  18
HETATM   18  C10 UNL     1      15.845   3.689   1.894  1.00  0.00     0.009 C 
HETATM   19  C11 UNL     1      16.760   2.475   2.111  1.00  0.00     0.020 C 
HETATM   20  C12 UNL     1      15.807   4.496   3.207  1.00  0.00     0.020 C 
BRANCH  18  21
HETATM   21  C13 UNL     1      14.412   3.205   1.533  1.00  0.00     0.192 C 
BRANCH  21  22
HETATM   22  O4  UNL     1      13.427   4.178   1.819  1.00  0.00    -0.296 OA
BRANCH  22  23
HETATM   23  P1  UNL     1      12.160   3.885   2.756  1.00  0.00     0.401 P 
HETATM   24  O5  UNL     1      12.512   3.397   4.126  1.00  0.00    -0.631 OA
BRANCH  23  25
HETATM   25  O6  UNL     1      11.197   2.887   1.939  1.00  0.00    -0.307 OA
HETATM   26  H23 UNL     1      10.427   2.622   2.457  1.00  0.00     0.222 HD
ENDBRANCH  23  25
BRANCH  23  27
HETATM   27  O7  UNL     1      11.308   5.228   2.728  1.00  0.00    -0.195 OA
BRANCH  27  28
HETATM   28  P2  UNL     1      12.074   6.625   2.711  1.00  0.00     0.401 P 
HETATM   29  O8  UNL     1      13.315   6.727   3.537  1.00  0.00    -0.631 OA
BRANCH  28  30
HETATM   30  O9  UNL     1      12.303   6.900   1.155  1.00  0.00    -0.307 OA
HETATM   31  H24 UNL     1      11.648   6.453   0.566  1.00  0.00     0.222 HD
ENDBRANCH  28  30
BRANCH  28  32
HETATM   32  O10 UNL     1      10.933   7.695   3.033  1.00  0.00    -0.294 OA
BRANCH  32  33
HETATM   33  C14 UNL     1      10.811   8.224   4.328  1.00  0.00     0.215 C 
BRANCH  33  34
HETATM   34  C15 UNL     1      11.182   9.702   4.221  1.00  0.00     0.180 C 
HETATM   35  C16 UNL     1      10.152  10.432   3.370  1.00  0.00     0.197 C 
HETATM   36  C17 UNL     1      10.934  10.949   2.178  1.00  0.00     0.199 C 
HETATM   37  C18 UNL     1      12.353  11.051   2.742  1.00  0.00     0.262 C 
HETATM   38  O11 UNL     1      12.468   9.914   3.626  1.00  0.00    -0.353 OA
BRANCH  35  39
HETATM   39  O13 UNL     1       9.604  11.489   4.151  1.00  0.00    -0.286 OA
BRANCH  39  40
HETATM   40  P3  UNL     1       8.012  11.478   4.307  1.00  0.00     0.391 P 
HETATM   41  O14 UNL     1       7.527  12.089   5.582  1.00  0.00    -0.632 OA
BRANCH  40  42
HETATM   42  O15 UNL     1       7.699   9.928   4.062  1.00  0.00    -0.307 OA
HETATM   43  H36 UNL     1       8.504   9.456   3.740  1.00  0.00     0.222 HD
ENDBRANCH  40  42
BRANCH  40  44
HETATM   44  O16 UNL     1       7.557  12.158   2.944  1.00  0.00    -0.307 OA
HETATM   45  H37 UNL     1       8.269  12.195   2.285  1.00  0.00     0.222 HD
ENDBRANCH  40  44
ENDBRANCH  39  40
ENDBRANCH  35  39
BRANCH  36  46
HETATM   46  O12 UNL     1      10.339  12.148   1.676  1.00  0.00    -0.388 OA
HETATM   47  H35 UNL     1       9.670  12.428   2.345  1.00  0.00     0.210 HD
ENDBRANCH  36  46
BRANCH  37  48
HETATM   48  N3  UNL     1      13.370  10.947   1.715  1.00  0.00    -0.297 N 
HETATM   49  C19 UNL     1      14.132   9.844   1.409  1.00  0.00     0.188 A 
HETATM   50  N4  UNL     1      14.876  10.033   0.340  1.00  0.00    -0.346 N 
HETATM   51  C20 UNL     1      14.577  11.321  -0.069  1.00  0.00     0.116 A 
HETATM   52  H4  UNL     1      15.527   9.377  -0.090  1.00  0.00     0.167 HD
HETATM   53  C21 UNL     1      15.002  12.095  -1.162  1.00  0.00     0.109 A 
HETATM   54  C23 UNL     1      13.675  11.912   0.796  1.00  0.00     0.142 A 
HETATM   55  N5  UNL     1      14.524  13.358  -1.288  1.00  0.00    -0.341 N 
HETATM   56  C22 UNL     1      13.666  13.811  -0.353  1.00  0.00     0.183 A 
HETATM   57  H5  UNL     1      14.807  13.949  -2.070  1.00  0.00     0.167 HD
HETATM   58  N6  UNL     1      13.184  13.162   0.726  1.00  0.00    -0.336 N 
HETATM   59  H6  UNL     1      12.532  13.565   1.401  1.00  0.00     0.168 HD
BRANCH  53  60
HETATM   60  N7  UNL     1      15.895  11.639  -2.119  1.00  0.00    -0.287 NA
HETATM   61  H33 UNL     1      16.411  10.806  -1.846  1.00  0.00     0.125 HD
HETATM   62  H34 UNL     1      16.427  12.384  -2.549  1.00  0.00     0.125 HD
ENDBRANCH  53  60
ENDBRANCH  37  48
ENDBRANCH  33  34
ENDBRANCH  32  33
ENDBRANCH  28  32
ENDBRANCH  27  28
ENDBRANCH  23  27
ENDBRANCH  22  23
ENDBRANCH  21  22
ENDBRANCH  18  21
ENDBRANCH  17  18
BRANCH  17  63
HETATM   63  O17 UNL     1      15.504   4.249  -0.438  1.00  0.00    -0.385 OA
HETATM   64  H38 UNL     1      16.030   3.690  -1.035  1.00  0.00     0.210 HD
ENDBRANCH  17  63
ENDBRANCH  14  17
ENDBRANCH  12  13
ENDBRANCH  11  12
ENDBRANCH   8  11
ENDBRANCH   6   7
ENDBRANCH   5   6
ENDBRANCH   4   5
ENDBRANCH   2   4
TORSDOF 27
ENDMDL
MODEL 11
REMARK VINA RESULT:      -4.1      2.999      4.270
REMARK  27 active torsions:
REMARK  status: ('A' for Active; 'I' for Inactive)
REMARK    1  A    between atoms: C2_2  and  S1_4 
REMARK    2  A    between atoms: S1_4  and  C3_5 
REMARK    3  A    between atoms: C3_5  and  C4_6 
REMARK    4  A    between atoms: C4_6  and  N1_7 
REMARK       I    between atoms: N1_7  and  C5_8 
REMARK    5  A    between atoms: C5_8  and  C6_10 
REMARK    6  A    between atoms: C6_10  and  C7_11 
REMARK    7  A    between atoms: C7_11  and  N2_12 
REMARK       I    between atoms: N2_12  and  C8_13 
REMARK    8  A    between atoms: C8_13  and  C9_15 
REMARK    9  A    between atoms: C9_15  and  C10_16 
REMARK   10  A    between atoms: C9_15  and  O17_54 
REMARK   11  A    between atoms: C10_16  and  C13_19 
REMARK   12  A    between atoms: C13_19  and  O4_20 
REMARK   13  A    between atoms: O4_20  and  P1_21 
REMARK   14  A    between atoms: P1_21  and  O6_23 
REMARK   15  A    between atoms: P1_21  and  O7_24 
REMARK   16  A    between atoms: O7_24  and  P2_25 
REMARK   17  A    between atoms: P2_25  and  O9_27 
REMARK   18  A    between atoms: P2_25  and  O10_28 
REMARK   19  A    between atoms: O10_28  and  C14_29 
REMARK   20  A    between atoms: C14_29  and  C15_30 
REMARK   21  A    between atoms: C16_31  and  O13_49 
REMARK   22  A    between atoms: C17_32  and  O12_48 
REMARK   23  A    between atoms: C18_33  and  N3_35 
REMARK   24  A    between atoms: C21_40  and  N7_47 
REMARK   25  A    between atoms: O13_49  and  P3_50 
REMARK   26  A    between atoms: P3_50  and  O15_52 
REMARK   27  A    between atoms: P3_50  and  O16_53 
ROOT
HETATM    1  C1  UNL     1      24.260  15.726   2.962  1.00  0.00     0.104 C 
HETATM    2  C2  UNL     1      23.421  14.578   2.490  1.00  0.00     0.182 C 
HETATM    3  O1  UNL     1      23.887  13.581   1.944  1.00  0.00    -0.286 OA
ENDROOT
BRANCH   2   4
HETATM    4  S1  UNL     1      21.694  14.788   2.746  1.00  0.00    -0.091 SA
BRANCH   4   5
HETATM    5  C3  UNL     1      21.038  13.749   1.400  1.00  0.00     0.102 C 
BRANCH   5   6
HETATM    6  C4  UNL     1      21.101  14.462   0.048  1.00  0.00     0.133 C 
BRANCH   6   7
HETATM    7  N1  UNL     1      20.329  13.788  -0.976  1.00  0.00    -0.360 N 
HETATM    8  C5  UNL     1      20.865  12.774  -1.736  1.00  0.00     0.219 C 
HETATM    9  O2  UNL     1      22.039  12.435  -1.652  1.00  0.00    -0.274 OA
HETATM   10  H8  UNL     1      19.370  14.069  -1.126  1.00  0.00     0.162 HD
BRANCH   8  11
HETATM   11  C6  UNL     1      19.876  12.168  -2.708  1.00  0.00     0.122 C 
BRANCH  11  12
HETATM   12  C7  UNL     1      19.066  13.238  -3.440  1.00  0.00     0.132 C 
BRANCH  12  13
HETATM   13  N2  UNL     1      17.669  12.889  -3.589  1.00  0.00    -0.358 N 
HETATM   14  C8  UNL     1      16.786  13.089  -2.544  1.00  0.00     0.247 C 
HETATM   15  O3  UNL     1      17.160  13.447  -1.434  1.00  0.00    -0.271 OA
HETATM   16  H13 UNL     1      17.296  12.964  -4.533  1.00  0.00     0.162 HD
BRANCH  14  17
HETATM   17  C9  UNL     1      15.310  12.846  -2.892  1.00  0.00     0.219 C 
BRANCH  17  18
HETATM   18  C10 UNL     1      14.436  14.127  -2.917  1.00  0.00     0.009 C 
HETATM   19  C11 UNL     1      15.214  15.348  -3.430  1.00  0.00     0.020 C 
HETATM   20  C12 UNL     1      13.193  13.946  -3.813  1.00  0.00     0.020 C 
BRANCH  18  21
HETATM   21  C13 UNL     1      13.992  14.371  -1.447  1.00  0.00     0.192 C 
BRANCH  21  22
HETATM   22  O4  UNL     1      13.269  13.279  -0.914  1.00  0.00    -0.296 OA
BRANCH  22  23
HETATM   23  P1  UNL     1      13.587  12.642   0.522  1.00  0.00     0.401 P 
HETATM   24  O5  UNL     1      12.729  13.169   1.629  1.00  0.00    -0.631 OA
BRANCH  23  25
HETATM   25  O6  UNL     1      15.165  12.832   0.777  1.00  0.00    -0.307 OA
HETATM   26  H23 UNL     1      15.583  13.358   0.083  1.00  0.00     0.222 HD
ENDBRANCH  23  25
BRANCH  23  27
HETATM   27  O7  UNL     1      13.497  11.069   0.303  1.00  0.00    -0.195 OA
BRANCH  27  28
HETATM   28  P2  UNL     1      14.255  10.105   1.320  1.00  0.00     0.401 P 
HETATM   29  O8  UNL     1      15.714   9.885   1.085  1.00  0.00    -0.631 OA
BRANCH  28  30
HETATM   30  O9  UNL     1      13.913  10.735   2.747  1.00  0.00    -0.307 OA
HETATM   31  H24 UNL     1      14.564  11.412   3.055  1.00  0.00     0.222 HD
ENDBRANCH  28  30
BRANCH  28  32
HETATM   32  O10 UNL     1      13.349   8.790   1.355  1.00  0.00    -0.294 OA
BRANCH  32  33
HETATM   33  C14 UNL     1      13.638   7.715   0.501  1.00  0.00     0.215 C 
BRANCH  33  34
HETATM   34  C15 UNL     1      12.856   6.519   1.041  1.00  0.00     0.180 C 
HETATM   35  C16 UNL     1      12.674   6.659   2.547  1.00  0.00     0.197 C 
HETATM   36  C17 UNL     1      13.399   5.463   3.135  1.00  0.00     0.199 C 
HETATM   37  C18 UNL     1      13.351   4.458   1.982  1.00  0.00     0.262 C 
HETATM   38  O11 UNL     1      13.508   5.268   0.795  1.00  0.00    -0.353 OA
BRANCH  35  39
HETATM   39  O13 UNL     1      11.279   6.632   2.827  1.00  0.00    -0.286 OA
BRANCH  39  40
HETATM   40  P3  UNL     1      10.748   7.784   3.800  1.00  0.00     0.391 P 
HETATM   41  O14 UNL     1       9.512   8.465   3.309  1.00  0.00    -0.632 OA
BRANCH  40  42
HETATM   42  O15 UNL     1      12.069   8.672   3.960  1.00  0.00    -0.307 OA
HETATM   43  H36 UNL     1      12.867   8.165   3.678  1.00  0.00     0.222 HD
ENDBRANCH  40  42
BRANCH  40  44
HETATM   44  O16 UNL     1      10.662   7.011   5.187  1.00  0.00    -0.307 OA
HETATM   45  H37 UNL     1      11.022   7.525   5.927  1.00  0.00     0.222 HD
ENDBRANCH  40  44
ENDBRANCH  39  40
ENDBRANCH  35  39
BRANCH  36  46
HETATM   46  O12 UNL     1      12.794   5.075   4.370  1.00  0.00    -0.388 OA
HETATM   47  H35 UNL     1      13.491   4.601   4.884  1.00  0.00     0.210 HD
ENDBRANCH  36  46
BRANCH  37  48
HETATM   48  N3  UNL     1      14.434   3.496   2.036  1.00  0.00    -0.297 N 
HETATM   49  C19 UNL     1      15.425   3.413   2.986  1.00  0.00     0.188 A 
HETATM   50  N4  UNL     1      16.183   2.351   2.824  1.00  0.00    -0.346 N 
HETATM   51  C20 UNL     1      15.655   1.711   1.717  1.00  0.00     0.116 A 
HETATM   52  H4  UNL     1      16.983   2.064   3.388  1.00  0.00     0.167 HD
HETATM   53  C21 UNL     1      15.985   0.511   1.063  1.00  0.00     0.109 A 
HETATM   54  C23 UNL     1      14.595   2.430   1.196  1.00  0.00     0.142 A 
HETATM   55  N5  UNL     1      15.268   0.150  -0.029  1.00  0.00    -0.341 N 
HETATM   56  C22 UNL     1      14.275   0.963  -0.439  1.00  0.00     0.183 A 
HETATM   57  H5  UNL     1      15.476  -0.716  -0.528  1.00  0.00     0.167 HD
HETATM   58  N6  UNL     1      13.864   2.125   0.109  1.00  0.00    -0.336 N 
HETATM   59  H6  UNL     1      13.101   2.697  -0.253  1.00  0.00     0.168 HD
BRANCH  53  60
HETATM   60  N7  UNL     1      17.014  -0.322   1.471  1.00  0.00    -0.287 NA
HETATM   61  H33 UNL     1      17.290  -0.201   2.443  1.00  0.00     0.125 HD
HETATM   62  H34 UNL     1      17.760  -0.390   0.791  1.00  0.00     0.125 HD
ENDBRANCH  53  60
ENDBRANCH  37  48
ENDBRANCH  33  34
ENDBRANCH  32  33
ENDBRANCH  28  32
ENDBRANCH  27  28
ENDBRANCH  23  27
ENDBRANCH  22  23
ENDBRANCH  21  22
ENDBRANCH  18  21
ENDBRANCH  17  18
BRANCH  17  63
HETATM   63  O17 UNL     1      15.204  12.197  -4.164  1.00  0.00    -0.385 OA
HETATM   64  H38 UNL     1      15.725  11.378  -4.129  1.00  0.00     0.210 HD
ENDBRANCH  17  63
ENDBRANCH  14  17
ENDBRANCH  12  13
ENDBRANCH  11  12
ENDBRANCH   8  11
ENDBRANCH   6   7
ENDBRANCH   5   6
ENDBRANCH   4   5
ENDBRANCH   2   4
TORSDOF 27
ENDMDL
MODEL 12
REMARK VINA RESULT:      -4.1      5.204      7.354
REMARK  27 active torsions:
REMARK  status: ('A' for Active; 'I' for Inactive)
REMARK    1  A    between atoms: C2_2  and  S1_4 
REMARK    2  A    between atoms: S1_4  and  C3_5 
REMARK    3  A    between atoms: C3_5  and  C4_6 
REMARK    4  A    between atoms: C4_6  and  N1_7 
REMARK       I    between atoms: N1_7  and  C5_8 
REMARK    5  A    between atoms: C5_8  and  C6_10 
REMARK    6  A    between atoms: C6_10  and  C7_11 
REMARK    7  A    between atoms: C7_11  and  N2_12 
REMARK       I    between atoms: N2_12  and  C8_13 
REMARK    8  A    between atoms: C8_13  and  C9_15 
REMARK    9  A    between atoms: C9_15  and  C10_16 
REMARK   10  A    between atoms: C9_15  and  O17_54 
REMARK   11  A    between atoms: C10_16  and  C13_19 
REMARK   12  A    between atoms: C13_19  and  O4_20 
REMARK   13  A    between atoms: O4_20  and  P1_21 
REMARK   14  A    between atoms: P1_21  and  O6_23 
REMARK   15  A    between atoms: P1_21  and  O7_24 
REMARK   16  A    between atoms: O7_24  and  P2_25 
REMARK   17  A    between atoms: P2_25  and  O9_27 
REMARK   18  A    between atoms: P2_25  and  O10_28 
REMARK   19  A    between atoms: O10_28  and  C14_29 
REMARK   20  A    between atoms: C14_29  and  C15_30 
REMARK   21  A    between atoms: C16_31  and  O13_49 
REMARK   22  A    between atoms: C17_32  and  O12_48 
REMARK   23  A    between atoms: C18_33  and  N3_35 
REMARK   24  A    between atoms: C21_40  and  N7_47 
REMARK   25  A    between atoms: O13_49  and  P3_50 
REMARK   26  A    between atoms: P3_50  and  O15_52 
REMARK   27  A    between atoms: P3_50  and  O16_53 
ROOT
HETATM    1  C1  UNL     1      18.143  22.286   6.238  1.00  0.00     0.104 C 
HETATM    2  C2  UNL     1      18.267  20.826   5.929  1.00  0.00     0.182 C 
HETATM    3  O1  UNL     1      19.328  20.210   5.995  1.00  0.00    -0.286 OA
ENDROOT
BRANCH   2   4
HETATM    4  S1  UNL     1      16.767  20.063   5.419  1.00  0.00    -0.091 SA
BRANCH   4   5
HETATM    5  C3  UNL     1      17.400  18.453   4.847  1.00  0.00     0.102 C 
BRANCH   5   6
HETATM    6  C4  UNL     1      16.919  17.303   5.733  1.00  0.00     0.133 C 
BRANCH   6   7
HETATM    7  N1  UNL     1      16.690  16.081   4.989  1.00  0.00    -0.360 N 
HETATM    8  C5  UNL     1      15.438  15.730   4.541  1.00  0.00     0.219 C 
HETATM    9  O2  UNL     1      14.434  16.381   4.810  1.00  0.00    -0.274 OA
HETATM   10  H8  UNL     1      17.477  15.478   4.791  1.00  0.00     0.162 HD
BRANCH   8  11
HETATM   11  C6  UNL     1      15.426  14.447   3.739  1.00  0.00     0.122 C 
BRANCH  11  12
HETATM   12  C7  UNL     1      14.051  14.163   3.136  1.00  0.00     0.132 C 
BRANCH  12  13
HETATM   13  N2  UNL     1      14.090  13.184   2.070  1.00  0.00    -0.358 N 
HETATM   14  C8  UNL     1      13.838  13.566   0.765  1.00  0.00     0.247 C 
HETATM   15  O3  UNL     1      13.461  14.695   0.477  1.00  0.00    -0.271 OA
HETATM   16  H13 UNL     1      14.732  12.407   2.212  1.00  0.00     0.162 HD
BRANCH  14  17
HETATM   17  C9  UNL     1      14.085  12.472  -0.285  1.00  0.00     0.219 C 
BRANCH  17  18
HETATM   18  C10 UNL     1      15.410  12.630  -1.077  1.00  0.00     0.009 C 
HETATM   19  C11 UNL     1      15.268  13.609  -2.252  1.00  0.00     0.020 C 
HETATM   20  C12 UNL     1      16.552  13.135  -0.173  1.00  0.00     0.020 C 
BRANCH  18  21
HETATM   21  C13 UNL     1      15.755  11.212  -1.617  1.00  0.00     0.192 C 
BRANCH  21  22
HETATM   22  O4  UNL     1      16.830  10.617  -0.918  1.00  0.00    -0.296 OA
BRANCH  22  23
HETATM   23  P1  UNL     1      17.345   9.129  -1.217  1.00  0.00     0.401 P 
HETATM   24  O5  UNL     1      18.789   9.046  -1.600  1.00  0.00    -0.631 OA
BRANCH  23  25
HETATM   25  O6  UNL     1      16.346   8.502  -2.313  1.00  0.00    -0.307 OA
HETATM   26  H23 UNL     1      16.188   7.561  -2.162  1.00  0.00     0.222 HD
ENDBRANCH  23  25
BRANCH  23  27
HETATM   27  O7  UNL     1      16.951   8.290   0.076  1.00  0.00    -0.195 OA
BRANCH  27  28
HETATM   28  P2  UNL     1      15.571   7.493   0.086  1.00  0.00     0.401 P 
HETATM   29  O8  UNL     1      14.353   8.243  -0.343  1.00  0.00    -0.631 OA
BRANCH  28  30
HETATM   30  O9  UNL     1      15.887   6.203  -0.801  1.00  0.00    -0.307 OA
HETATM   31  H24 UNL     1      16.017   6.395  -1.762  1.00  0.00     0.222 HD
ENDBRANCH  28  30
BRANCH  28  32
HETATM   32  O10 UNL     1      15.513   6.840   1.542  1.00  0.00    -0.294 OA
BRANCH  32  33
HETATM   33  C14 UNL     1      16.293   5.712   1.839  1.00  0.00     0.215 C 
BRANCH  33  34
HETATM   34  C15 UNL     1      15.374   4.739   2.576  1.00  0.00     0.180 C 
HETATM   35  C16 UNL     1      14.765   3.755   1.586  1.00  0.00     0.197 C 
HETATM   36  C17 UNL     1      13.271   4.009   1.661  1.00  0.00     0.199 C 
HETATM   37  C18 UNL     1      13.113   4.590   3.068  1.00  0.00     0.262 C 
HETATM   38  O11 UNL     1      14.298   5.394   3.257  1.00  0.00    -0.353 OA
BRANCH  35  39
HETATM   39  O13 UNL     1      15.107   2.438   2.005  1.00  0.00    -0.286 OA
BRANCH  39  40
HETATM   40  P3  UNL     1      15.780   1.513   0.889  1.00  0.00     0.391 P 
HETATM   41  O14 UNL     1      16.683   0.459   1.445  1.00  0.00    -0.632 OA
BRANCH  40  42
HETATM   42  O15 UNL     1      16.433   2.619  -0.064  1.00  0.00    -0.307 OA
HETATM   43  H36 UNL     1      16.843   3.341   0.469  1.00  0.00     0.222 HD
ENDBRANCH  40  42
BRANCH  40  44
HETATM   44  O16 UNL     1      14.506   1.033   0.068  1.00  0.00    -0.307 OA
HETATM   45  H37 UNL     1      14.194   0.155   0.337  1.00  0.00     0.222 HD
ENDBRANCH  40  44
ENDBRANCH  39  40
ENDBRANCH  35  39
BRANCH  36  46
HETATM   46  O12 UNL     1      12.549   2.812   1.359  1.00  0.00    -0.388 OA
HETATM   47  H35 UNL     1      12.582   2.707   0.379  1.00  0.00     0.210 HD
ENDBRANCH  36  46
BRANCH  37  48
HETATM   48  N3  UNL     1      11.947   5.442   3.191  1.00  0.00    -0.297 N 
HETATM   49  C19 UNL     1      10.692   5.077   3.620  1.00  0.00     0.188 A 
HETATM   50  N4  UNL     1       9.886   6.109   3.739  1.00  0.00    -0.346 N 
HETATM   51  C20 UNL     1      10.658   7.198   3.373  1.00  0.00     0.116 A 
HETATM   52  H4  UNL     1       8.910   6.107   4.035  1.00  0.00     0.167 HD
HETATM   53  C21 UNL     1      10.397   8.578   3.329  1.00  0.00     0.109 A 
HETATM   54  C23 UNL     1      11.925   6.794   2.994  1.00  0.00     0.142 A 
HETATM   55  N5  UNL     1      11.379   9.411   2.906  1.00  0.00    -0.341 N 
HETATM   56  C22 UNL     1      12.560   8.873   2.544  1.00  0.00     0.183 A 
HETATM   57  H5  UNL     1      11.228  10.419   2.864  1.00  0.00     0.167 HD
HETATM   58  N6  UNL     1      12.927   7.575   2.553  1.00  0.00    -0.336 N 
HETATM   59  H6  UNL     1      13.843   7.231   2.264  1.00  0.00     0.168 HD
BRANCH  53  60
HETATM   60  N7  UNL     1       9.179   9.136   3.686  1.00  0.00    -0.287 NA
HETATM   61  H33 UNL     1       8.824   9.824   3.026  1.00  0.00     0.125 HD
HETATM   62  H34 UNL     1       9.128   9.377   4.667  1.00  0.00     0.125 HD
ENDBRANCH  53  60
ENDBRANCH  37  48
ENDBRANCH  33  34
ENDBRANCH  32  33
ENDBRANCH  28  32
ENDBRANCH  27  28
ENDBRANCH  23  27
ENDBRANCH  22  23
ENDBRANCH  21  22
ENDBRANCH  18  21
ENDBRANCH  17  18
BRANCH  17  63
HETATM   63  O17 UNL     1      14.078  11.182   0.336  1.00  0.00    -0.385 OA
HETATM   64  H38 UNL     1      13.154  10.893   0.421  1.00  0.00     0.210 HD
ENDBRANCH  17  63
ENDBRANCH  14  17
ENDBRANCH  12  13
ENDBRANCH  11  12
ENDBRANCH   8  11
ENDBRANCH   6   7
ENDBRANCH   5   6
ENDBRANCH   4   5
ENDBRANCH   2   4
TORSDOF 27
ENDMDL
MODEL 13
REMARK VINA RESULT:      -4.0      4.366      6.165
REMARK  27 active torsions:
REMARK  status: ('A' for Active; 'I' for Inactive)
REMARK    1  A    between atoms: C2_2  and  S1_4 
REMARK    2  A    between atoms: S1_4  and  C3_5 
REMARK    3  A    between atoms: C3_5  and  C4_6 
REMARK    4  A    between atoms: C4_6  and  N1_7 
REMARK       I    between atoms: N1_7  and  C5_8 
REMARK    5  A    between atoms: C5_8  and  C6_10 
REMARK    6  A    between atoms: C6_10  and  C7_11 
REMARK    7  A    between atoms: C7_11  and  N2_12 
REMARK       I    between atoms: N2_12  and  C8_13 
REMARK    8  A    between atoms: C8_13  and  C9_15 
REMARK    9  A    between atoms: C9_15  and  C10_16 
REMARK   10  A    between atoms: C9_15  and  O17_54 
REMARK   11  A    between atoms: C10_16  and  C13_19 
REMARK   12  A    between atoms: C13_19  and  O4_20 
REMARK   13  A    between atoms: O4_20  and  P1_21 
REMARK   14  A    between atoms: P1_21  and  O6_23 
REMARK   15  A    between atoms: P1_21  and  O7_24 
REMARK   16  A    between atoms: O7_24  and  P2_25 
REMARK   17  A    between atoms: P2_25  and  O9_27 
REMARK   18  A    between atoms: P2_25  and  O10_28 
REMARK   19  A    between atoms: O10_28  and  C14_29 
REMARK   20  A    between atoms: C14_29  and  C15_30 
REMARK   21  A    between atoms: C16_31  and  O13_49 
REMARK   22  A    between atoms: C17_32  and  O12_48 
REMARK   23  A    between atoms: C18_33  and  N3_35 
REMARK   24  A    between atoms: C21_40  and  N7_47 
REMARK   25  A    between atoms: O13_49  and  P3_50 
REMARK   26  A    between atoms: P3_50  and  O15_52 
REMARK   27  A    between atoms: P3_50  and  O16_53 
ROOT
HETATM    1  C1  UNL     1      17.454  22.547  -2.855  1.00  0.00     0.104 C 
HETATM    2  C2  UNL     1      17.411  21.050  -2.918  1.00  0.00     0.182 C 
HETATM    3  O1  UNL     1      17.912  20.325  -2.062  1.00  0.00    -0.286 OA
ENDROOT
BRANCH   2   4
HETATM    4  S1  UNL     1      16.614  20.407  -4.347  1.00  0.00    -0.091 SA
BRANCH   4   5
HETATM    5  C3  UNL     1      16.985  18.634  -4.153  1.00  0.00     0.102 C 
BRANCH   5   6
HETATM    6  C4  UNL     1      15.913  17.753  -4.799  1.00  0.00     0.133 C 
BRANCH   6   7
HETATM    7  N1  UNL     1      16.145  16.340  -4.584  1.00  0.00    -0.360 N 
HETATM    8  C5  UNL     1      15.794  15.398  -5.522  1.00  0.00     0.219 C 
HETATM    9  O2  UNL     1      15.196  15.683  -6.553  1.00  0.00    -0.274 OA
HETATM   10  H8  UNL     1      16.584  16.045  -3.722  1.00  0.00     0.162 HD
BRANCH   8  11
HETATM   11  C6  UNL     1      16.174  13.987  -5.126  1.00  0.00     0.122 C 
BRANCH  11  12
HETATM   12  C7  UNL     1      15.891  13.713  -3.649  1.00  0.00     0.132 C 
BRANCH  12  13
HETATM   13  N2  UNL     1      14.500  13.408  -3.385  1.00  0.00    -0.358 N 
HETATM   14  C8  UNL     1      13.671  14.365  -2.829  1.00  0.00     0.247 C 
HETATM   15  O3  UNL     1      14.094  15.445  -2.435  1.00  0.00    -0.271 OA
HETATM   16  H13 UNL     1      14.074  12.730  -4.012  1.00  0.00     0.162 HD
BRANCH  14  17
HETATM   17  C9  UNL     1      12.187  13.973  -2.767  1.00  0.00     0.219 C 
BRANCH  17  18
HETATM   18  C10 UNL     1      11.623  13.821  -1.330  1.00  0.00     0.009 C 
HETATM   19  C11 UNL     1      11.932  15.044  -0.454  1.00  0.00     0.020 C 
HETATM   20  C12 UNL     1      10.094  13.620  -1.341  1.00  0.00     0.020 C 
BRANCH  18  21
HETATM   21  C13 UNL     1      12.313  12.562  -0.731  1.00  0.00     0.192 C 
BRANCH  21  22
HETATM   22  O4  UNL     1      13.254  12.889   0.271  1.00  0.00    -0.296 OA
BRANCH  22  23
HETATM   23  P1  UNL     1      14.563  12.007   0.557  1.00  0.00     0.401 P 
HETATM   24  O5  UNL     1      14.999  12.008   1.988  1.00  0.00    -0.631 OA
BRANCH  23  25
HETATM   25  O6  UNL     1      15.697  12.511  -0.468  1.00  0.00    -0.307 OA
HETATM   26  H23 UNL     1      15.605  13.450  -0.676  1.00  0.00     0.222 HD
ENDBRANCH  23  25
BRANCH  23  27
HETATM   27  O7  UNL     1      14.227  10.570  -0.035  1.00  0.00    -0.195 OA
BRANCH  27  28
HETATM   28  P2  UNL     1      15.428   9.602  -0.436  1.00  0.00     0.401 P 
HETATM   29  O8  UNL     1      16.010   9.776  -1.800  1.00  0.00    -0.631 OA
BRANCH  28  30
HETATM   30  O9  UNL     1      16.476   9.809   0.751  1.00  0.00    -0.307 OA
HETATM   31  H24 UNL     1      16.260   9.304   1.573  1.00  0.00     0.222 HD
ENDBRANCH  28  30
BRANCH  28  32
HETATM   32  O10 UNL     1      14.879   8.143  -0.092  1.00  0.00    -0.294 OA
BRANCH  32  33
HETATM   33  C14 UNL     1      13.551   7.973   0.328  1.00  0.00     0.215 C 
BRANCH  33  34
HETATM   34  C15 UNL     1      13.619   7.475   1.770  1.00  0.00     0.180 C 
HETATM   35  C16 UNL     1      12.734   6.247   1.935  1.00  0.00     0.197 C 
HETATM   36  C17 UNL     1      11.684   6.662   2.947  1.00  0.00     0.199 C 
HETATM   37  C18 UNL     1      12.403   7.769   3.723  1.00  0.00     0.262 C 
HETATM   38  O11 UNL     1      13.186   8.455   2.721  1.00  0.00    -0.353 OA
BRANCH  35  39
HETATM   39  O13 UNL     1      13.546   5.178   2.411  1.00  0.00    -0.286 OA
BRANCH  39  40
HETATM   40  P3  UNL     1      13.408   3.799   1.614  1.00  0.00     0.391 P 
HETATM   41  O14 UNL     1      14.715   3.125   1.346  1.00  0.00    -0.632 OA
BRANCH  40  42
HETATM   42  O15 UNL     1      12.544   4.268   0.352  1.00  0.00    -0.307 OA
HETATM   43  H36 UNL     1      11.634   4.529   0.630  1.00  0.00     0.222 HD
ENDBRANCH  40  42
BRANCH  40  44
HETATM   44  O16 UNL     1      12.349   3.022   2.510  1.00  0.00    -0.307 OA
HETATM   45  H37 UNL     1      12.300   2.076   2.300  1.00  0.00     0.222 HD
ENDBRANCH  40  44
ENDBRANCH  39  40
ENDBRANCH  35  39
BRANCH  36  46
HETATM   46  O12 UNL     1      11.233   5.526   3.689  1.00  0.00    -0.388 OA
HETATM   47  H35 UNL     1      10.266   5.444   3.512  1.00  0.00     0.210 HD
ENDBRANCH  36  46
BRANCH  37  48
HETATM   48  N3  UNL     1      11.484   8.714   4.324  1.00  0.00    -0.297 N 
HETATM   49  C19 UNL     1      10.716   9.654   3.676  1.00  0.00     0.188 A 
HETATM   50  N4  UNL     1       9.891  10.272   4.492  1.00  0.00    -0.346 N 
HETATM   51  C20 UNL     1      10.133   9.703   5.730  1.00  0.00     0.116 A 
HETATM   52  H4  UNL     1       9.222  11.008   4.264  1.00  0.00     0.167 HD
HETATM   53  C21 UNL     1       9.554   9.895   6.997  1.00  0.00     0.109 A 
HETATM   54  C23 UNL     1      11.145   8.764   5.647  1.00  0.00     0.142 A 
HETATM   55  N5  UNL     1      10.028   9.175   8.043  1.00  0.00    -0.341 N 
HETATM   56  C22 UNL     1      11.037   8.311   7.817  1.00  0.00     0.183 A 
HETATM   57  H5  UNL     1       9.631   9.285   8.976  1.00  0.00     0.167 HD
HETATM   58  N6  UNL     1      11.661   8.037   6.653  1.00  0.00    -0.336 N 
HETATM   59  H6  UNL     1      12.424   7.367   6.549  1.00  0.00     0.168 HD
BRANCH  53  60
HETATM   60  N7  UNL     1       8.526  10.793   7.237  1.00  0.00    -0.287 NA
HETATM   61  H33 UNL     1       8.455  11.100   8.204  1.00  0.00     0.125 HD
HETATM   62  H34 UNL     1       7.663  10.538   6.776  1.00  0.00     0.125 HD
ENDBRANCH  53  60
ENDBRANCH  37  48
ENDBRANCH  33  34
ENDBRANCH  32  33
ENDBRANCH  28  32
ENDBRANCH  27  28
ENDBRANCH  23  27
ENDBRANCH  22  23
ENDBRANCH  21  22
ENDBRANCH  18  21
ENDBRANCH  17  18
BRANCH  17  63
HETATM   63  O17 UNL     1      11.393  14.937  -3.467  1.00  0.00    -0.385 OA
HETATM   64  H38 UNL     1      11.472  15.788  -3.004  1.00  0.00     0.210 HD
ENDBRANCH  17  63
ENDBRANCH  14  17
ENDBRANCH  12  13
ENDBRANCH  11  12
ENDBRANCH   8  11
ENDBRANCH   6   7
ENDBRANCH   5   6
ENDBRANCH   4   5
ENDBRANCH   2   4
TORSDOF 27
ENDMDL
MODEL 14
REMARK VINA RESULT:      -4.0      6.198     10.624
REMARK  27 active torsions:
REMARK  status: ('A' for Active; 'I' for Inactive)
REMARK    1  A    between atoms: C2_2  and  S1_4 
REMARK    2  A    between atoms: S1_4  and  C3_5 
REMARK    3  A    between atoms: C3_5  and  C4_6 
REMARK    4  A    between atoms: C4_6  and  N1_7 
REMARK       I    between atoms: N1_7  and  C5_8 
REMARK    5  A    between atoms: C5_8  and  C6_10 
REMARK    6  A    between atoms: C6_10  and  C7_11 
REMARK    7  A    between atoms: C7_11  and  N2_12 
REMARK       I    between atoms: N2_12  and  C8_13 
REMARK    8  A    between atoms: C8_13  and  C9_15 
REMARK    9  A    between atoms: C9_15  and  C10_16 
REMARK   10  A    between atoms: C9_15  and  O17_54 
REMARK   11  A    between atoms: C10_16  and  C13_19 
REMARK   12  A    between atoms: C13_19  and  O4_20 
REMARK   13  A    between atoms: O4_20  and  P1_21 
REMARK   14  A    between atoms: P1_21  and  O6_23 
REMARK   15  A    between atoms: P1_21  and  O7_24 
REMARK   16  A    between atoms: O7_24  and  P2_25 
REMARK   17  A    between atoms: P2_25  and  O9_27 
REMARK   18  A    between atoms: P2_25  and  O10_28 
REMARK   19  A    between atoms: O10_28  and  C14_29 
REMARK   20  A    between atoms: C14_29  and  C15_30 
REMARK   21  A    between atoms: C16_31  and  O13_49 
REMARK   22  A    between atoms: C17_32  and  O12_48 
REMARK   23  A    between atoms: C18_33  and  N3_35 
REMARK   24  A    between atoms: C21_40  and  N7_47 
REMARK   25  A    between atoms: O13_49  and  P3_50 
REMARK   26  A    between atoms: P3_50  and  O15_52 
REMARK   27  A    between atoms: P3_50  and  O16_53 
ROOT
HETATM    1  C1  UNL     1       2.261  18.499   7.226  1.00  0.00     0.104 C 
HETATM    2  C2  UNL     1       2.237  17.021   7.471  1.00  0.00     0.182 C 
HETATM    3  O1  UNL     1       1.240  16.418   7.862  1.00  0.00    -0.286 OA
ENDROOT
BRANCH   2   4
HETATM    4  S1  UNL     1       3.774  16.214   7.189  1.00  0.00    -0.091 SA
BRANCH   4   5
HETATM    5  C3  UNL     1       3.261  14.956   5.974  1.00  0.00     0.102 C 
BRANCH   5   6
HETATM    6  C4  UNL     1       3.010  13.598   6.632  1.00  0.00     0.133 C 
BRANCH   6   7
HETATM    7  N1  UNL     1       3.944  12.582   6.192  1.00  0.00    -0.360 N 
HETATM    8  C5  UNL     1       4.996  12.176   6.980  1.00  0.00     0.219 C 
HETATM    9  O2  UNL     1       5.254  12.700   8.058  1.00  0.00    -0.274 OA
HETATM   10  H8  UNL     1       3.810  12.158   5.284  1.00  0.00     0.162 HD
BRANCH   8  11
HETATM   11  C6  UNL     1       5.817  11.067   6.359  1.00  0.00     0.122 C 
BRANCH  11  12
HETATM   12  C7  UNL     1       7.280  11.472   6.179  1.00  0.00     0.132 C 
BRANCH  12  13
HETATM   13  N2  UNL     1       7.963  10.697   5.165  1.00  0.00    -0.358 N 
HETATM   14  C8  UNL     1       8.833  11.314   4.285  1.00  0.00     0.247 C 
HETATM   15  O3  UNL     1       8.969  12.530   4.248  1.00  0.00    -0.271 OA
HETATM   16  H13 UNL     1       8.159   9.729   5.412  1.00  0.00     0.162 HD
BRANCH  14  17
HETATM   17  C9  UNL     1       9.622  10.355   3.382  1.00  0.00     0.219 C 
BRANCH  17  18
HETATM   18  C10 UNL     1      11.108  10.166   3.786  1.00  0.00     0.009 C 
HETATM   19  C11 UNL     1      11.347  10.475   5.272  1.00  0.00     0.020 C 
HETATM   20  C12 UNL     1      11.589   8.726   3.518  1.00  0.00     0.020 C 
BRANCH  18  21
HETATM   21  C13 UNL     1      11.919  11.162   2.909  1.00  0.00     0.192 C 
BRANCH  21  22
HETATM   22  O4  UNL     1      11.138  11.730   1.877  1.00  0.00    -0.296 OA
BRANCH  22  23
HETATM   23  P1  UNL     1      11.403  13.199   1.293  1.00  0.00     0.401 P 
HETATM   24  O5  UNL     1      12.085  14.125   2.250  1.00  0.00    -0.631 OA
BRANCH  23  25
HETATM   25  O6  UNL     1       9.988  13.748   0.756  1.00  0.00    -0.307 OA
HETATM   26  H23 UNL     1      10.045  14.665   0.457  1.00  0.00     0.222 HD
ENDBRANCH  23  25
BRANCH  23  27
HETATM   27  O7  UNL     1      12.182  12.964  -0.074  1.00  0.00    -0.195 OA
BRANCH  27  28
HETATM   28  P2  UNL     1      13.063  14.149  -0.672  1.00  0.00     0.401 P 
HETATM   29  O8  UNL     1      13.246  14.175  -2.155  1.00  0.00    -0.631 OA
BRANCH  28  30
HETATM   30  O9  UNL     1      12.366  15.458  -0.080  1.00  0.00    -0.307 OA
HETATM   31  H24 UNL     1      12.996  16.190   0.131  1.00  0.00     0.222 HD
ENDBRANCH  28  30
BRANCH  28  32
HETATM   32  O10 UNL     1      14.403  14.111   0.196  1.00  0.00    -0.294 OA
BRANCH  32  33
HETATM   33  C14 UNL     1      15.617  14.530  -0.369  1.00  0.00     0.215 C 
BRANCH  33  34
HETATM   34  C15 UNL     1      16.485  13.279  -0.491  1.00  0.00     0.180 C 
HETATM   35  C16 UNL     1      16.589  12.865  -1.953  1.00  0.00     0.197 C 
HETATM   36  C17 UNL     1      15.956  11.487  -2.008  1.00  0.00     0.199 C 
HETATM   37  C18 UNL     1      16.149  10.987  -0.575  1.00  0.00     0.262 C 
HETATM   38  O11 UNL     1      15.966  12.164   0.242  1.00  0.00    -0.353 OA
BRANCH  35  39
HETATM   39  O13 UNL     1      17.968  12.837  -2.307  1.00  0.00    -0.286 OA
BRANCH  39  40
HETATM   40  P3  UNL     1      18.457  14.019  -3.267  1.00  0.00     0.391 P 
HETATM   41  O14 UNL     1      18.072  15.382  -2.789  1.00  0.00    -0.632 OA
BRANCH  40  42
HETATM   42  O15 UNL     1      17.862  13.531  -4.670  1.00  0.00    -0.307 OA
HETATM   43  H36 UNL     1      18.085  12.583  -4.832  1.00  0.00     0.222 HD
ENDBRANCH  40  42
BRANCH  40  44
HETATM   44  O16 UNL     1      20.008  13.695  -3.399  1.00  0.00    -0.307 OA
HETATM   45  H37 UNL     1      20.522  14.448  -3.733  1.00  0.00     0.222 HD
ENDBRANCH  40  44
ENDBRANCH  39  40
ENDBRANCH  35  39
BRANCH  36  46
HETATM   46  O12 UNL     1      16.543  10.714  -3.058  1.00  0.00    -0.388 OA
HETATM   47  H35 UNL     1      15.796  10.391  -3.616  1.00  0.00     0.210 HD
ENDBRANCH  36  46
BRANCH  37  48
HETATM   48  N3  UNL     1      15.161   9.997  -0.194  1.00  0.00    -0.297 N 
HETATM   49  C19 UNL     1      13.824  10.209   0.051  1.00  0.00     0.188 A 
HETATM   50  N4  UNL     1      13.169   9.086   0.251  1.00  0.00    -0.346 N 
HETATM   51  C20 UNL     1      14.129   8.096   0.125  1.00  0.00     0.116 A 
HETATM   52  H4  UNL     1      12.177   8.969   0.453  1.00  0.00     0.167 HD
HETATM   53  C21 UNL     1      14.064   6.693   0.185  1.00  0.00     0.109 A 
HETATM   54  C23 UNL     1      15.374   8.650  -0.112  1.00  0.00     0.142 A 
HETATM   55  N5  UNL     1      15.208   5.984   0.028  1.00  0.00    -0.341 N 
HETATM   56  C22 UNL     1      16.356   6.660  -0.173  1.00  0.00     0.183 A 
HETATM   57  H5  UNL     1      15.200   4.964   0.062  1.00  0.00     0.167 HD
HETATM   58  N6  UNL     1      16.539   7.994  -0.257  1.00  0.00    -0.336 N 
HETATM   59  H6  UNL     1      17.441   8.445  -0.411  1.00  0.00     0.168 HD
BRANCH  53  60
HETATM   60  N7  UNL     1      12.888   5.993   0.406  1.00  0.00    -0.287 NA
HETATM   61  H33 UNL     1      12.083   6.581   0.608  1.00  0.00     0.125 HD
HETATM   62  H34 UNL     1      13.018   5.180   0.992  1.00  0.00     0.125 HD
ENDBRANCH  53  60
ENDBRANCH  37  48
ENDBRANCH  33  34
ENDBRANCH  32  33
ENDBRANCH  28  32
ENDBRANCH  27  28
ENDBRANCH  23  27
ENDBRANCH  22  23
ENDBRANCH  21  22
ENDBRANCH  18  21
ENDBRANCH  17  18
BRANCH  17  63
HETATM   63  O17 UNL     1       8.992   9.070   3.357  1.00  0.00    -0.385 OA
HETATM   64  H38 UNL     1       9.117   8.689   2.471  1.00  0.00     0.210 HD
ENDBRANCH  17  63
ENDBRANCH  14  17
ENDBRANCH  12  13
ENDBRANCH  11  12
ENDBRANCH   8  11
ENDBRANCH   6   7
ENDBRANCH   5   6
ENDBRANCH   4   5
ENDBRANCH   2   4
TORSDOF 27
ENDMDL
MODEL 15
REMARK VINA RESULT:      -4.0      7.608     14.389
REMARK  27 active torsions:
REMARK  status: ('A' for Active; 'I' for Inactive)
REMARK    1  A    between atoms: C2_2  and  S1_4 
REMARK    2  A    between atoms: S1_4  and  C3_5 
REMARK    3  A    between atoms: C3_5  and  C4_6 
REMARK    4  A    between atoms: C4_6  and  N1_7 
REMARK       I    between atoms: N1_7  and  C5_8 
REMARK    5  A    between atoms: C5_8  and  C6_10 
REMARK    6  A    between atoms: C6_10  and  C7_11 
REMARK    7  A    between atoms: C7_11  and  N2_12 
REMARK       I    between atoms: N2_12  and  C8_13 
REMARK    8  A    between atoms: C8_13  and  C9_15 
REMARK    9  A    between atoms: C9_15  and  C10_16 
REMARK   10  A    between atoms: C9_15  and  O17_54 
REMARK   11  A    between atoms: C10_16  and  C13_19 
REMARK   12  A    between atoms: C13_19  and  O4_20 
REMARK   13  A    between atoms: O4_20  and  P1_21 
REMARK   14  A    between atoms: P1_21  and  O6_23 
REMARK   15  A    between atoms: P1_21  and  O7_24 
REMARK   16  A    between atoms: O7_24  and  P2_25 
REMARK   17  A    between atoms: P2_25  and  O9_27 
REMARK   18  A    between atoms: P2_25  and  O10_28 
REMARK   19  A    between atoms: O10_28  and  C14_29 
REMARK   20  A    between atoms: C14_29  and  C15_30 
REMARK   21  A    between atoms: C16_31  and  O13_49 
REMARK   22  A    between atoms: C17_32  and  O12_48 
REMARK   23  A    between atoms: C18_33  and  N3_35 
REMARK   24  A    between atoms: C21_40  and  N7_47 
REMARK   25  A    between atoms: O13_49  and  P3_50 
REMARK   26  A    between atoms: P3_50  and  O15_52 
REMARK   27  A    between atoms: P3_50  and  O16_53 
ROOT
HETATM    1  C1  UNL     1      21.328  17.663  -4.704  1.00  0.00     0.104 C 
HETATM    2  C2  UNL     1      20.288  16.852  -5.415  1.00  0.00     0.182 C 
HETATM    3  O1  UNL     1      19.891  17.110  -6.549  1.00  0.00    -0.286 OA
ENDROOT
BRANCH   2   4
HETATM    4  S1  UNL     1      19.646  15.512  -4.476  1.00  0.00    -0.091 SA
BRANCH   4   5
HETATM    5  C3  UNL     1      17.895  15.576  -4.975  1.00  0.00     0.102 C 
BRANCH   5   6
HETATM    6  C4  UNL     1      17.314  14.178  -5.197  1.00  0.00     0.133 C 
BRANCH   6   7
HETATM    7  N1  UNL     1      16.891  13.546  -3.964  1.00  0.00    -0.360 N 
HETATM    8  C5  UNL     1      15.574  13.541  -3.567  1.00  0.00     0.219 C 
HETATM    9  O2  UNL     1      14.697  14.134  -4.184  1.00  0.00    -0.274 OA
HETATM   10  H8  UNL     1      17.586  13.092  -3.387  1.00  0.00     0.162 HD
BRANCH   8  11
HETATM   11  C6  UNL     1      15.339  12.781  -2.280  1.00  0.00     0.122 C 
BRANCH  11  12
HETATM   12  C7  UNL     1      14.444  13.557  -1.314  1.00  0.00     0.132 C 
BRANCH  12  13
HETATM   13  N2  UNL     1      13.033  13.299  -1.516  1.00  0.00    -0.358 N 
HETATM   14  C8  UNL     1      12.110  13.688  -0.563  1.00  0.00     0.247 C 
HETATM   15  O3  UNL     1      12.447  14.149   0.521  1.00  0.00    -0.271 OA
HETATM   16  H13 UNL     1      12.724  13.287  -2.486  1.00  0.00     0.162 HD
BRANCH  14  17
HETATM   17  C9  UNL     1      10.642  13.516  -0.980  1.00  0.00     0.219 C 
BRANCH  17  18
HETATM   18  C10 UNL     1       9.883  14.847  -1.225  1.00  0.00     0.009 C 
HETATM   19  C11 UNL     1       9.213  15.374   0.053  1.00  0.00     0.020 C 
HETATM   20  C12 UNL     1      10.826  15.946  -1.755  1.00  0.00     0.020 C 
BRANCH  18  21
HETATM   21  C13 UNL     1       8.796  14.528  -2.291  1.00  0.00     0.192 C 
BRANCH  21  22
HETATM   22  O4  UNL     1       8.951  15.301  -3.464  1.00  0.00    -0.296 OA
BRANCH  22  23
HETATM   23  P1  UNL     1       7.743  16.114  -4.137  1.00  0.00     0.401 P 
HETATM   24  O5  UNL     1       6.693  16.561  -3.170  1.00  0.00    -0.631 OA
BRANCH  23  25
HETATM   25  O6  UNL     1       7.176  15.199  -5.334  1.00  0.00    -0.307 OA
HETATM   26  H23 UNL     1       7.799  14.504  -5.585  1.00  0.00     0.222 HD
ENDBRANCH  23  25
BRANCH  23  27
HETATM   27  O7  UNL     1       8.442  17.289  -4.951  1.00  0.00    -0.195 OA
BRANCH  27  28
HETATM   28  P2  UNL     1       7.726  17.853  -6.257  1.00  0.00     0.401 P 
HETATM   29  O8  UNL     1       6.233  17.900  -6.243  1.00  0.00    -0.631 OA
BRANCH  28  30
HETATM   30  O9  UNL     1       8.420  19.274  -6.471  1.00  0.00    -0.307 OA
HETATM   31  H24 UNL     1       8.107  19.974  -5.848  1.00  0.00     0.222 HD
ENDBRANCH  28  30
BRANCH  28  32
HETATM   32  O10 UNL     1       8.386  17.020  -7.449  1.00  0.00    -0.294 OA
BRANCH  32  33
HETATM   33  C14 UNL     1       9.783  16.939  -7.559  1.00  0.00     0.215 C 
BRANCH  33  34
HETATM   34  C15 UNL     1      10.072  16.454  -8.979  1.00  0.00     0.180 C 
HETATM   35  C16 UNL     1      10.957  17.462  -9.699  1.00  0.00     0.197 C 
HETATM   36  C17 UNL     1      10.118  17.945 -10.867  1.00  0.00     0.199 C 
HETATM   37  C18 UNL     1       9.168  16.766 -11.091  1.00  0.00     0.262 C 
HETATM   38  O11 UNL     1       8.885  16.278  -9.761  1.00  0.00    -0.353 OA
BRANCH  35  39
HETATM   39  O13 UNL     1      12.135  16.789 -10.127  1.00  0.00    -0.286 OA
BRANCH  39  40
HETATM   40  P3  UNL     1      13.513  17.521  -9.779  1.00  0.00     0.391 P 
HETATM   41  O14 UNL     1      13.810  18.695 -10.655  1.00  0.00    -0.632 OA
BRANCH  40  42
HETATM   42  O15 UNL     1      14.529  16.286  -9.826  1.00  0.00    -0.307 OA
HETATM   43  H36 UNL     1      14.341  15.652  -9.094  1.00  0.00     0.222 HD
ENDBRANCH  40  42
BRANCH  40  44
HETATM   44  O16 UNL     1      13.342  17.790  -8.221  1.00  0.00    -0.307 OA
HETATM   45  H37 UNL     1      12.599  18.380  -8.020  1.00  0.00     0.222 HD
ENDBRANCH  40  44
ENDBRANCH  39  40
ENDBRANCH  35  39
BRANCH  36  46
HETATM   46  O12 UNL     1      10.959  18.328 -11.958  1.00  0.00    -0.388 OA
HETATM   47  H35 UNL     1      11.763  18.738 -11.558  1.00  0.00     0.210 HD
ENDBRANCH  36  46
BRANCH  37  48
HETATM   48  N3  UNL     1       7.923  17.165 -11.716  1.00  0.00    -0.297 N 
HETATM   49  C19 UNL     1       7.489  16.849 -12.982  1.00  0.00     0.188 A 
HETATM   50  N4  UNL     1       6.259  17.258 -13.205  1.00  0.00    -0.346 N 
HETATM   51  C20 UNL     1       5.874  17.865 -12.022  1.00  0.00     0.116 A 
HETATM   52  H4  UNL     1       5.711  17.151 -14.058  1.00  0.00     0.167 HD
HETATM   53  C21 UNL     1       4.671  18.460 -11.605  1.00  0.00     0.109 A 
HETATM   54  C23 UNL     1       6.909  17.849 -11.105  1.00  0.00     0.142 A 
HETATM   55  N5  UNL     1       4.608  18.989 -10.358  1.00  0.00    -0.341 N 
HETATM   56  C22 UNL     1       5.706  18.922  -9.580  1.00  0.00     0.183 A 
HETATM   57  H5  UNL     1       3.751  19.426 -10.019  1.00  0.00     0.167 HD
HETATM   58  N6  UNL     1       6.903  18.372  -9.866  1.00  0.00    -0.336 N 
HETATM   59  H6  UNL     1       7.699  18.355  -9.228  1.00  0.00     0.168 HD
BRANCH  53  60
HETATM   60  N7  UNL     1       3.544  18.545 -12.406  1.00  0.00    -0.287 NA
HETATM   61  H33 UNL     1       3.452  19.425 -12.908  1.00  0.00     0.125 HD
HETATM   62  H34 UNL     1       2.712  18.188 -11.956  1.00  0.00     0.125 HD
ENDBRANCH  53  60
ENDBRANCH  37  48
ENDBRANCH  33  34
ENDBRANCH  32  33
ENDBRANCH  28  32
ENDBRANCH  27  28
ENDBRANCH  23  27
ENDBRANCH  22  23
ENDBRANCH  21  22
ENDBRANCH  18  21
ENDBRANCH  17  18
BRANCH  17  63
HETATM   63  O17 UNL     1      10.557  12.719  -2.166  1.00  0.00    -0.385 OA
HETATM   64  H38 UNL     1      11.345  12.896  -2.706  1.00  0.00     0.210 HD
ENDBRANCH  17  63
ENDBRANCH  14  17
ENDBRANCH  12  13
ENDBRANCH  11  12
ENDBRANCH   8  11
ENDBRANCH   6   7
ENDBRANCH   5   6
ENDBRANCH   4   5
ENDBRANCH   2   4
TORSDOF 27
ENDMDL
MODEL 16
REMARK VINA RESULT:      -4.0      3.278      4.807
REMARK  27 active torsions:
REMARK  status: ('A' for Active; 'I' for Inactive)
REMARK    1  A    between atoms: C2_2  and  S1_4 
REMARK    2  A    between atoms: S1_4  and  C3_5 
REMARK    3  A    between atoms: C3_5  and  C4_6 
REMARK    4  A    between atoms: C4_6  and  N1_7 
REMARK       I    between atoms: N1_7  and  C5_8 
REMARK    5  A    between atoms: C5_8  and  C6_10 
REMARK    6  A    between atoms: C6_10  and  C7_11 
REMARK    7  A    between atoms: C7_11  and  N2_12 
REMARK       I    between atoms: N2_12  and  C8_13 
REMARK    8  A    between atoms: C8_13  and  C9_15 
REMARK    9  A    between atoms: C9_15  and  C10_16 
REMARK   10  A    between atoms: C9_15  and  O17_54 
REMARK   11  A    between atoms: C10_16  and  C13_19 
REMARK   12  A    between atoms: C13_19  and  O4_20 
REMARK   13  A    between atoms: O4_20  and  P1_21 
REMARK   14  A    between atoms: P1_21  and  O6_23 
REMARK   15  A    between atoms: P1_21  and  O7_24 
REMARK   16  A    between atoms: O7_24  and  P2_25 
REMARK   17  A    between atoms: P2_25  and  O9_27 
REMARK   18  A    between atoms: P2_25  and  O10_28 
REMARK   19  A    between atoms: O10_28  and  C14_29 
REMARK   20  A    between atoms: C14_29  and  C15_30 
REMARK   21  A    between atoms: C16_31  and  O13_49 
REMARK   22  A    between atoms: C17_32  and  O12_48 
REMARK   23  A    between atoms: C18_33  and  N3_35 
REMARK   24  A    between atoms: C21_40  and  N7_47 
REMARK   25  A    between atoms: O13_49  and  P3_50 
REMARK   26  A    between atoms: P3_50  and  O15_52 
REMARK   27  A    between atoms: P3_50  and  O16_53 
ROOT
HETATM    1  C1  UNL     1      17.629  18.088   5.157  1.00  0.00     0.104 C 
HETATM    2  C2  UNL     1      18.352  16.859   4.698  1.00  0.00     0.182 C 
HETATM    3  O1  UNL     1      19.497  16.876   4.253  1.00  0.00    -0.286 OA
ENDROOT
BRANCH   2   4
HETATM    4  S1  UNL     1      17.409  15.379   4.809  1.00  0.00    -0.091 SA
BRANCH   4   5
HETATM    5  C3  UNL     1      18.734  14.175   5.143  1.00  0.00     0.102 C 
BRANCH   5   6
HETATM    6  C4  UNL     1      19.009  13.279   3.933  1.00  0.00     0.133 C 
BRANCH   6   7
HETATM    7  N1  UNL     1      19.426  14.028   2.766  1.00  0.00    -0.360 N 
HETATM    8  C5  UNL     1      19.986  13.411   1.672  1.00  0.00     0.219 C 
HETATM    9  O2  UNL     1      20.240  12.212   1.648  1.00  0.00    -0.274 OA
HETATM   10  H8  UNL     1      19.293  15.030   2.758  1.00  0.00     0.162 HD
BRANCH   8  11
HETATM   11  C6  UNL     1      20.299  14.365   0.540  1.00  0.00     0.122 C 
BRANCH  11  12
HETATM   12  C7  UNL     1      19.062  14.682  -0.299  1.00  0.00     0.132 C 
BRANCH  12  13
HETATM   13  N2  UNL     1      18.559  13.534  -1.024  1.00  0.00    -0.358 N 
HETATM   14  C8  UNL     1      17.278  13.068  -0.790  1.00  0.00     0.247 C 
HETATM   15  O3  UNL     1      16.573  13.520   0.103  1.00  0.00    -0.271 OA
HETATM   16  H13 UNL     1      18.937  13.408  -1.961  1.00  0.00     0.162 HD
BRANCH  14  17
HETATM   17  C9  UNL     1      16.810  11.962  -1.748  1.00  0.00     0.219 C 
BRANCH  17  18
HETATM   18  C10 UNL     1      16.968  10.522  -1.193  1.00  0.00     0.009 C 
HETATM   19  C11 UNL     1      17.392   9.526  -2.282  1.00  0.00     0.020 C 
HETATM   20  C12 UNL     1      18.014  10.464  -0.062  1.00  0.00     0.020 C 
BRANCH  18  21
HETATM   21  C13 UNL     1      15.570  10.124  -0.637  1.00  0.00     0.192 C 
BRANCH  21  22
HETATM   22  O4  UNL     1      15.316  10.688   0.634  1.00  0.00    -0.296 OA
BRANCH  22  23
HETATM   23  P1  UNL     1      13.845  10.790   1.262  1.00  0.00     0.401 P 
HETATM   24  O5  UNL     1      12.771  11.084   0.262  1.00  0.00    -0.631 OA
BRANCH  23  25
HETATM   25  O6  UNL     1      13.925  11.860   2.462  1.00  0.00    -0.307 OA
HETATM   26  H23 UNL     1      13.085  11.939   2.933  1.00  0.00     0.222 HD
ENDBRANCH  23  25
BRANCH  23  27
HETATM   27  O7  UNL     1      13.647   9.434   2.070  1.00  0.00    -0.195 OA
BRANCH  27  28
HETATM   28  P2  UNL     1      14.365   9.268   3.483  1.00  0.00     0.401 P 
HETATM   29  O8  UNL     1      15.781   9.732   3.581  1.00  0.00    -0.631 OA
BRANCH  28  30
HETATM   30  O9  UNL     1      13.367  10.003   4.489  1.00  0.00    -0.307 OA
HETATM   31  H24 UNL     1      13.687  10.884   4.803  1.00  0.00     0.222 HD
ENDBRANCH  28  30
BRANCH  28  32
HETATM   32  O10 UNL     1      14.103   7.741   3.871  1.00  0.00    -0.294 OA
BRANCH  32  33
HETATM   33  C14 UNL     1      14.756   6.716   3.170  1.00  0.00     0.215 C 
BRANCH  33  34
HETATM   34  C15 UNL     1      13.775   6.240   2.099  1.00  0.00     0.180 C 
HETATM   35  C16 UNL     1      12.522   5.682   2.760  1.00  0.00     0.197 C 
HETATM   36  C17 UNL     1      12.483   4.224   2.340  1.00  0.00     0.199 C 
HETATM   37  C18 UNL     1      13.274   4.244   1.030  1.00  0.00     0.262 C 
HETATM   38  O11 UNL     1      14.319   5.215   1.260  1.00  0.00    -0.353 OA
BRANCH  35  39
HETATM   39  O13 UNL     1      11.402   6.412   2.269  1.00  0.00    -0.286 OA
BRANCH  39  40
HETATM   40  P3  UNL     1      10.443   7.036   3.385  1.00  0.00     0.391 P 
HETATM   41  O14 UNL     1      10.942   8.325   3.955  1.00  0.00    -0.632 OA
BRANCH  40  42
HETATM   42  O15 UNL     1      10.296   5.793   4.382  1.00  0.00    -0.307 OA
HETATM   43  H36 UNL     1      11.182   5.447   4.642  1.00  0.00     0.222 HD
ENDBRANCH  40  42
BRANCH  40  44
HETATM   44  O16 UNL     1       9.047   7.058   2.625  1.00  0.00    -0.307 OA
HETATM   45  H37 UNL     1       9.111   6.737   1.712  1.00  0.00     0.222 HD
ENDBRANCH  40  44
ENDBRANCH  39  40
ENDBRANCH  35  39
BRANCH  36  46
HETATM   46  O12 UNL     1      11.131   3.761   2.284  1.00  0.00    -0.388 OA
HETATM   47  H35 UNL     1      11.097   2.936   2.825  1.00  0.00     0.210 HD
ENDBRANCH  36  46
BRANCH  37  48
HETATM   48  N3  UNL     1      13.884   2.965   0.729  1.00  0.00    -0.297 N 
HETATM   49  C19 UNL     1      13.569   2.117  -0.307  1.00  0.00     0.188 A 
HETATM   50  N4  UNL     1      14.392   1.093  -0.382  1.00  0.00    -0.346 N 
HETATM   51  C20 UNL     1      15.288   1.290   0.654  1.00  0.00     0.116 A 
HETATM   52  H4  UNL     1      14.374   0.326  -1.053  1.00  0.00     0.167 HD
HETATM   53  C21 UNL     1      16.423   0.579   1.080  1.00  0.00     0.109 A 
HETATM   54  C23 UNL     1      14.961   2.425   1.374  1.00  0.00     0.142 A 
HETATM   55  N5  UNL     1      17.104   1.030   2.162  1.00  0.00    -0.341 N 
HETATM   56  C22 UNL     1      16.655   2.140   2.781  1.00  0.00     0.183 A 
HETATM   57  H5  UNL     1      17.934   0.542   2.498  1.00  0.00     0.167 HD
HETATM   58  N6  UNL     1      15.591   2.906   2.461  1.00  0.00    -0.336 N 
HETATM   59  H6  UNL     1      15.303   3.739   2.974  1.00  0.00     0.168 HD
BRANCH  53  60
HETATM   60  N7  UNL     1      16.880  -0.571   0.456  1.00  0.00    -0.287 NA
HETATM   61  H33 UNL     1      16.159  -1.098  -0.032  1.00  0.00     0.125 HD
HETATM   62  H34 UNL     1      17.523  -1.102   1.029  1.00  0.00     0.125 HD
ENDBRANCH  53  60
ENDBRANCH  37  48
ENDBRANCH  33  34
ENDBRANCH  32  33
ENDBRANCH  28  32
ENDBRANCH  27  28
ENDBRANCH  23  27
ENDBRANCH  22  23
ENDBRANCH  21  22
ENDBRANCH  18  21
ENDBRANCH  17  18
BRANCH  17  63
HETATM   63  O17 UNL     1      15.438  12.165  -2.103  1.00  0.00    -0.385 OA
HETATM   64  H38 UNL     1      14.887  11.853  -1.366  1.00  0.00     0.210 HD
ENDBRANCH  17  63
ENDBRANCH  14  17
ENDBRANCH  12  13
ENDBRANCH  11  12
ENDBRANCH   8  11
ENDBRANCH   6   7
ENDBRANCH   5   6
ENDBRANCH   4   5
ENDBRANCH   2   4
TORSDOF 27
ENDMDL
MODEL 17
REMARK VINA RESULT:      -4.0      4.762      7.811
REMARK  27 active torsions:
REMARK  status: ('A' for Active; 'I' for Inactive)
REMARK    1  A    between atoms: C2_2  and  S1_4 
REMARK    2  A    between atoms: S1_4  and  C3_5 
REMARK    3  A    between atoms: C3_5  and  C4_6 
REMARK    4  A    between atoms: C4_6  and  N1_7 
REMARK       I    between atoms: N1_7  and  C5_8 
REMARK    5  A    between atoms: C5_8  and  C6_10 
REMARK    6  A    between atoms: C6_10  and  C7_11 
REMARK    7  A    between atoms: C7_11  and  N2_12 
REMARK       I    between atoms: N2_12  and  C8_13 
REMARK    8  A    between atoms: C8_13  and  C9_15 
REMARK    9  A    between atoms: C9_15  and  C10_16 
REMARK   10  A    between atoms: C9_15  and  O17_54 
REMARK   11  A    between atoms: C10_16  and  C13_19 
REMARK   12  A    between atoms: C13_19  and  O4_20 
REMARK   13  A    between atoms: O4_20  and  P1_21 
REMARK   14  A    between atoms: P1_21  and  O6_23 
REMARK   15  A    between atoms: P1_21  and  O7_24 
REMARK   16  A    between atoms: O7_24  and  P2_25 
REMARK   17  A    between atoms: P2_25  and  O9_27 
REMARK   18  A    between atoms: P2_25  and  O10_28 
REMARK   19  A    between atoms: O10_28  and  C14_29 
REMARK   20  A    between atoms: C14_29  and  C15_30 
REMARK   21  A    between atoms: C16_31  and  O13_49 
REMARK   22  A    between atoms: C17_32  and  O12_48 
REMARK   23  A    between atoms: C18_33  and  N3_35 
REMARK   24  A    between atoms: C21_40  and  N7_47 
REMARK   25  A    between atoms: O13_49  and  P3_50 
REMARK   26  A    between atoms: P3_50  and  O15_52 
REMARK   27  A    between atoms: P3_50  and  O16_53 
ROOT
HETATM    1  C1  UNL     1       6.709  20.063   8.005  1.00  0.00     0.104 C 
HETATM    2  C2  UNL     1       6.171  19.411   6.768  1.00  0.00     0.182 C 
HETATM    3  O1  UNL     1       5.786  20.042   5.786  1.00  0.00    -0.286 OA
ENDROOT
BRANCH   2   4
HETATM    4  S1  UNL     1       6.094  17.656   6.847  1.00  0.00    -0.091 SA
BRANCH   4   5
HETATM    5  C3  UNL     1       5.835  17.263   5.087  1.00  0.00     0.102 C 
BRANCH   5   6
HETATM    6  C4  UNL     1       7.141  16.871   4.393  1.00  0.00     0.133 C 
BRANCH   6   7
HETATM    7  N1  UNL     1       6.923  16.222   3.117  1.00  0.00    -0.360 N 
HETATM    8  C5  UNL     1       6.871  14.852   3.001  1.00  0.00     0.219 C 
HETATM    9  O2  UNL     1       7.084  14.101   3.946  1.00  0.00    -0.274 OA
HETATM   10  H8  UNL     1       6.799  16.796   2.294  1.00  0.00     0.162 HD
BRANCH   8  11
HETATM   11  C6  UNL     1       6.579  14.380   1.593  1.00  0.00     0.122 C 
BRANCH  11  12
HETATM   12  C7  UNL     1       7.492  15.049   0.566  1.00  0.00     0.132 C 
BRANCH  12  13
HETATM   13  N2  UNL     1       8.808  14.449   0.501  1.00  0.00    -0.358 N 
HETATM   14  C8  UNL     1       9.848  15.116  -0.121  1.00  0.00     0.247 C 
HETATM   15  O3  UNL     1       9.677  16.162  -0.733  1.00  0.00    -0.271 OA
HETATM   16  H13 UNL     1       9.047  13.832   1.274  1.00  0.00     0.162 HD
BRANCH  14  17
HETATM   17  C9  UNL     1      11.224  14.452   0.036  1.00  0.00     0.219 C 
BRANCH  17  18
HETATM   18  C10 UNL     1      11.545  13.378  -1.037  1.00  0.00     0.009 C 
HETATM   19  C11 UNL     1      10.439  13.270  -2.097  1.00  0.00     0.020 C 
HETATM   20  C12 UNL     1      12.870  13.685  -1.764  1.00  0.00     0.020 C 
BRANCH  18  21
HETATM   21  C13 UNL     1      11.668  12.031  -0.270  1.00  0.00     0.192 C 
BRANCH  21  22
HETATM   22  O4  UNL     1      10.975  12.048   0.962  1.00  0.00    -0.296 OA
BRANCH  22  23
HETATM   23  P1  UNL     1      11.666  11.660   2.355  1.00  0.00     0.401 P 
HETATM   24  O5  UNL     1      12.141  12.834   3.151  1.00  0.00    -0.631 OA
BRANCH  23  25
HETATM   25  O6  UNL     1      12.823  10.592   2.019  1.00  0.00    -0.307 OA
HETATM   26  H23 UNL     1      12.749  10.250   1.119  1.00  0.00     0.222 HD
ENDBRANCH  23  25
BRANCH  23  27
HETATM   27  O7  UNL     1      10.603  10.739   3.099  1.00  0.00    -0.195 OA
BRANCH  27  28
HETATM   28  P2  UNL     1      11.113   9.712   4.205  1.00  0.00     0.401 P 
HETATM   29  O8  UNL     1      12.280  10.137   5.035  1.00  0.00    -0.631 OA
BRANCH  28  30
HETATM   30  O9  UNL     1       9.795   9.396   5.048  1.00  0.00    -0.307 OA
HETATM   31  H24 UNL     1       9.592   8.433   5.134  1.00  0.00     0.222 HD
ENDBRANCH  28  30
BRANCH  28  32
HETATM   32  O10 UNL     1      11.287   8.340   3.407  1.00  0.00    -0.294 OA
BRANCH  32  33
HETATM   33  C14 UNL     1      12.527   7.682   3.403  1.00  0.00     0.215 C 
BRANCH  33  34
HETATM   34  C15 UNL     1      12.657   7.025   2.030  1.00  0.00     0.180 C 
HETATM   35  C16 UNL     1      13.235   5.624   2.181  1.00  0.00     0.197 C 
HETATM   36  C17 UNL     1      14.549   5.667   1.426  1.00  0.00     0.199 C 
HETATM   37  C18 UNL     1      14.305   6.790   0.415  1.00  0.00     0.262 C 
HETATM   38  O11 UNL     1      13.510   7.754   1.140  1.00  0.00    -0.353 OA
BRANCH  35  39
HETATM   39  O13 UNL     1      12.314   4.703   1.606  1.00  0.00    -0.286 OA
BRANCH  39  40
HETATM   40  P3  UNL     1      11.570   3.736   2.639  1.00  0.00     0.391 P 
HETATM   41  O14 UNL     1      12.474   3.152   3.676  1.00  0.00    -0.632 OA
BRANCH  40  42
HETATM   42  O15 UNL     1      10.846   2.724   1.634  1.00  0.00    -0.307 OA
HETATM   43  H36 UNL     1      11.209   1.812   1.735  1.00  0.00     0.222 HD
ENDBRANCH  40  42
BRANCH  40  44
HETATM   44  O16 UNL     1      10.379   4.664   3.138  1.00  0.00    -0.307 OA
HETATM   45  H37 UNL     1       9.810   4.967   2.413  1.00  0.00     0.222 HD
ENDBRANCH  40  44
ENDBRANCH  39  40
ENDBRANCH  35  39
BRANCH  36  46
HETATM   46  O12 UNL     1      14.864   4.372   0.905  1.00  0.00    -0.388 OA
HETATM   47  H35 UNL     1      15.672   4.485   0.350  1.00  0.00     0.210 HD
ENDBRANCH  36  46
BRANCH  37  48
HETATM   48  N3  UNL     1      15.533   7.428  -0.016  1.00  0.00    -0.297 N 
HETATM   49  C19 UNL     1      16.750   6.826  -0.232  1.00  0.00     0.188 A 
HETATM   50  N4  UNL     1      17.634   7.656  -0.742  1.00  0.00    -0.346 N 
HETATM   51  C20 UNL     1      16.954   8.855  -0.866  1.00  0.00     0.116 A 
HETATM   52  H4  UNL     1      18.603   7.461  -0.990  1.00  0.00     0.167 HD
HETATM   53  C21 UNL     1      17.323  10.111  -1.379  1.00  0.00     0.109 A 
HETATM   54  C23 UNL     1      15.663   8.738  -0.384  1.00  0.00     0.142 A 
HETATM   55  N5  UNL     1      16.413  11.115  -1.353  1.00  0.00    -0.341 N 
HETATM   56  C22 UNL     1      15.197  10.861  -0.829  1.00  0.00     0.183 A 
HETATM   57  H5  UNL     1      16.643  12.039  -1.719  1.00  0.00     0.167 HD
HETATM   58  N6  UNL     1      14.730   9.704  -0.320  1.00  0.00    -0.336 N 
HETATM   59  H6  UNL     1      13.793   9.577   0.063  1.00  0.00     0.168 HD
BRANCH  53  60
HETATM   60  N7  UNL     1      18.576  10.381  -1.905  1.00  0.00    -0.287 NA
HETATM   61  H33 UNL     1      19.269  10.660  -1.214  1.00  0.00     0.125 HD
HETATM   62  H34 UNL     1      18.538  10.925  -2.757  1.00  0.00     0.125 HD
ENDBRANCH  53  60
ENDBRANCH  37  48
ENDBRANCH  33  34
ENDBRANCH  32  33
ENDBRANCH  28  32
ENDBRANCH  27  28
ENDBRANCH  23  27
ENDBRANCH  22  23
ENDBRANCH  21  22
ENDBRANCH  18  21
ENDBRANCH  17  18
BRANCH  17  63
HETATM   63  O17 UNL     1      12.256  15.444   0.009  1.00  0.00    -0.385 OA
HETATM   64  H38 UNL     1      12.807  15.326   0.801  1.00  0.00     0.210 HD
ENDBRANCH  17  63
ENDBRANCH  14  17
ENDBRANCH  12  13
ENDBRANCH  11  12
ENDBRANCH   8  11
ENDBRANCH   6   7
ENDBRANCH   5   6
ENDBRANCH   4   5
ENDBRANCH   2   4
TORSDOF 27
ENDMDL
MODEL 18
REMARK VINA RESULT:      -3.9      4.509      8.210
REMARK  27 active torsions:
REMARK  status: ('A' for Active; 'I' for Inactive)
REMARK    1  A    between atoms: C2_2  and  S1_4 
REMARK    2  A    between atoms: S1_4  and  C3_5 
REMARK    3  A    between atoms: C3_5  and  C4_6 
REMARK    4  A    between atoms: C4_6  and  N1_7 
REMARK       I    between atoms: N1_7  and  C5_8 
REMARK    5  A    between atoms: C5_8  and  C6_10 
REMARK    6  A    between atoms: C6_10  and  C7_11 
REMARK    7  A    between atoms: C7_11  and  N2_12 
REMARK       I    between atoms: N2_12  and  C8_13 
REMARK    8  A    between atoms: C8_13  and  C9_15 
REMARK    9  A    between atoms: C9_15  and  C10_16 
REMARK   10  A    between atoms: C9_15  and  O17_54 
REMARK   11  A    between atoms: C10_16  and  C13_19 
REMARK   12  A    between atoms: C13_19  and  O4_20 
REMARK   13  A    between atoms: O4_20  and  P1_21 
REMARK   14  A    between atoms: P1_21  and  O6_23 
REMARK   15  A    between atoms: P1_21  and  O7_24 
REMARK   16  A    between atoms: O7_24  and  P2_25 
REMARK   17  A    between atoms: P2_25  and  O9_27 
REMARK   18  A    between atoms: P2_25  and  O10_28 
REMARK   19  A    between atoms: O10_28  and  C14_29 
REMARK   20  A    between atoms: C14_29  and  C15_30 
REMARK   21  A    between atoms: C16_31  and  O13_49 
REMARK   22  A    between atoms: C17_32  and  O12_48 
REMARK   23  A    between atoms: C18_33  and  N3_35 
REMARK   24  A    between atoms: C21_40  and  N7_47 
REMARK   25  A    between atoms: O13_49  and  P3_50 
REMARK   26  A    between atoms: P3_50  and  O15_52 
REMARK   27  A    between atoms: P3_50  and  O16_53 
ROOT
HETATM    1  C1  UNL     1      10.694  21.573   3.997  1.00  0.00     0.104 C 
HETATM    2  C2  UNL     1      10.556  20.275   3.262  1.00  0.00     0.182 C 
HETATM    3  O1  UNL     1      10.682  19.178   3.802  1.00  0.00    -0.286 OA
ENDROOT
BRANCH   2   4
HETATM    4  S1  UNL     1      10.236  20.445   1.542  1.00  0.00    -0.091 SA
BRANCH   4   5
HETATM    5  C3  UNL     1      10.887  18.856   0.933  1.00  0.00     0.102 C 
BRANCH   5   6
HETATM    6  C4  UNL     1       9.789  17.992   0.309  1.00  0.00     0.133 C 
BRANCH   6   7
HETATM    7  N1  UNL     1       9.748  16.654   0.861  1.00  0.00    -0.360 N 
HETATM    8  C5  UNL     1       8.823  15.726   0.443  1.00  0.00     0.219 C 
HETATM    9  O2  UNL     1       7.932  15.995  -0.355  1.00  0.00    -0.274 OA
HETATM   10  H8  UNL     1      10.426  16.398   1.566  1.00  0.00     0.162 HD
BRANCH   8  11
HETATM   11  C6  UNL     1       8.988  14.375   1.104  1.00  0.00     0.122 C 
BRANCH  11  12
HETATM   12  C7  UNL     1       9.046  14.488   2.627  1.00  0.00     0.132 C 
BRANCH  12  13
HETATM   13  N2  UNL     1       9.194  13.207   3.286  1.00  0.00    -0.358 N 
HETATM   14  C8  UNL     1       8.214  12.749   4.147  1.00  0.00     0.247 C 
HETATM   15  O3  UNL     1       7.259  13.442   4.475  1.00  0.00    -0.271 OA
HETATM   16  H13 UNL     1       9.725  12.508   2.770  1.00  0.00     0.162 HD
BRANCH  14  17
HETATM   17  C9  UNL     1       8.409  11.306   4.637  1.00  0.00     0.219 C 
BRANCH  17  18
HETATM   18  C10 UNL     1       8.784  11.182   6.137  1.00  0.00     0.009 C 
HETATM   19  C11 UNL     1       9.563  12.406   6.642  1.00  0.00     0.020 C 
HETATM   20  C12 UNL     1       7.532  11.019   7.021  1.00  0.00     0.020 C 
BRANCH  18  21
HETATM   21  C13 UNL     1       9.676   9.913   6.251  1.00  0.00     0.192 C 
BRANCH  21  22
HETATM   22  O4  UNL     1       9.726   9.180   5.043  1.00  0.00    -0.296 OA
BRANCH  22  23
HETATM   23  P1  UNL     1      11.076   8.527   4.476  1.00  0.00     0.401 P 
HETATM   24  O5  UNL     1      11.036   7.035   4.368  1.00  0.00    -0.631 OA
BRANCH  23  25
HETATM   25  O6  UNL     1      12.280   9.079   5.391  1.00  0.00    -0.307 OA
HETATM   26  H23 UNL     1      12.117   8.932   6.331  1.00  0.00     0.222 HD
ENDBRANCH  23  25
BRANCH  23  27
HETATM   27  O7  UNL     1      11.356   9.286   3.106  1.00  0.00    -0.195 OA
BRANCH  27  28
HETATM   28  P2  UNL     1      12.224  10.622   3.129  1.00  0.00     0.401 P 
HETATM   29  O8  UNL     1      11.852  11.653   4.145  1.00  0.00    -0.631 OA
BRANCH  28  30
HETATM   30  O9  UNL     1      13.721  10.084   3.264  1.00  0.00    -0.307 OA
HETATM   31  H24 UNL     1      14.226  10.078   2.415  1.00  0.00     0.222 HD
ENDBRANCH  28  30
BRANCH  28  32
HETATM   32  O10 UNL     1      12.223  11.109   1.608  1.00  0.00    -0.294 OA
BRANCH  32  33
HETATM   33  C14 UNL     1      12.215  12.480   1.310  1.00  0.00     0.215 C 
BRANCH  33  34
HETATM   34  C15 UNL     1      13.611  12.810   0.783  1.00  0.00     0.180 C 
HETATM   35  C16 UNL     1      13.513  13.328  -0.646  1.00  0.00     0.197 C 
HETATM   36  C17 UNL     1      14.285  12.319  -1.474  1.00  0.00     0.199 C 
HETATM   37  C18 UNL     1      15.255  11.732  -0.445  1.00  0.00     0.262 C 
HETATM   38  O11 UNL     1      14.488  11.679   0.778  1.00  0.00    -0.353 OA
BRANCH  35  39
HETATM   39  O13 UNL     1      14.105  14.622  -0.687  1.00  0.00    -0.286 OA
BRANCH  39  40
HETATM   40  P3  UNL     1      13.081  15.850  -0.680  1.00  0.00     0.391 P 
HETATM   41  O14 UNL     1      11.793  15.564  -1.382  1.00  0.00    -0.632 OA
BRANCH  40  42
HETATM   42  O15 UNL     1      14.004  17.014  -1.271  1.00  0.00    -0.307 OA
HETATM   43  H36 UNL     1      14.958  16.822  -1.104  1.00  0.00     0.222 HD
ENDBRANCH  40  42
BRANCH  40  44
HETATM   44  O16 UNL     1      13.013  16.194   0.871  1.00  0.00    -0.307 OA
HETATM   45  H37 UNL     1      12.730  15.440   1.412  1.00  0.00     0.222 HD
ENDBRANCH  40  44
ENDBRANCH  39  40
ENDBRANCH  35  39
BRANCH  36  46
HETATM   46  O12 UNL     1      14.852  12.951  -2.624  1.00  0.00    -0.388 OA
HETATM   47  H35 UNL     1      15.620  13.480  -2.301  1.00  0.00     0.210 HD
ENDBRANCH  36  46
BRANCH  37  48
HETATM   48  N3  UNL     1      15.682  10.390  -0.786  1.00  0.00    -0.297 N 
HETATM   49  C19 UNL     1      16.830  10.027  -1.452  1.00  0.00     0.188 A 
HETATM   50  N4  UNL     1      16.991   8.722  -1.494  1.00  0.00    -0.346 N 
HETATM   51  C20 UNL     1      15.896   8.214  -0.817  1.00  0.00     0.116 A 
HETATM   52  H4  UNL     1      17.752   8.201  -1.928  1.00  0.00     0.167 HD
HETATM   53  C21 UNL     1      15.507   6.906  -0.481  1.00  0.00     0.109 A 
HETATM   54  C23 UNL     1      15.057   9.235  -0.408  1.00  0.00     0.142 A 
HETATM   55  N5  UNL     1      14.345   6.728   0.195  1.00  0.00    -0.341 N 
HETATM   56  C22 UNL     1      13.616   7.817   0.508  1.00  0.00     0.183 A 
HETATM   57  H5  UNL     1      14.032   5.794   0.459  1.00  0.00     0.167 HD
HETATM   58  N6  UNL     1      13.890   9.112   0.249  1.00  0.00    -0.336 N 
HETATM   59  H6  UNL     1      13.292   9.894   0.515  1.00  0.00     0.168 HD
BRANCH  53  60
HETATM   60  N7  UNL     1      16.245   5.781  -0.814  1.00  0.00    -0.287 NA
HETATM   61  H33 UNL     1      15.809   4.900  -0.551  1.00  0.00     0.125 HD
HETATM   62  H34 UNL     1      17.230   5.881  -0.607  1.00  0.00     0.125 HD
ENDBRANCH  53  60
ENDBRANCH  37  48
ENDBRANCH  33  34
ENDBRANCH  32  33
ENDBRANCH  28  32
ENDBRANCH  27  28
ENDBRANCH  23  27
ENDBRANCH  22  23
ENDBRANCH  21  22
ENDBRANCH  18  21
ENDBRANCH  17  18
BRANCH  17  63
HETATM   63  O17 UNL     1       7.223  10.540   4.400  1.00  0.00    -0.385 OA
HETATM   64  H38 UNL     1       6.610  10.697   5.138  1.00  0.00     0.210 HD
ENDBRANCH  17  63
ENDBRANCH  14  17
ENDBRANCH  12  13
ENDBRANCH  11  12
ENDBRANCH   8  11
ENDBRANCH   6   7
ENDBRANCH   5   6
ENDBRANCH   4   5
ENDBRANCH   2   4
TORSDOF 27
ENDMDL
MODEL 19
REMARK VINA RESULT:      -3.9      2.795      4.432
REMARK  27 active torsions:
REMARK  status: ('A' for Active; 'I' for Inactive)
REMARK    1  A    between atoms: C2_2  and  S1_4 
REMARK    2  A    between atoms: S1_4  and  C3_5 
REMARK    3  A    between atoms: C3_5  and  C4_6 
REMARK    4  A    between atoms: C4_6  and  N1_7 
REMARK       I    between atoms: N1_7  and  C5_8 
REMARK    5  A    between atoms: C5_8  and  C6_10 
REMARK    6  A    between atoms: C6_10  and  C7_11 
REMARK    7  A    between atoms: C7_11  and  N2_12 
REMARK       I    between atoms: N2_12  and  C8_13 
REMARK    8  A    between atoms: C8_13  and  C9_15 
REMARK    9  A    between atoms: C9_15  and  C10_16 
REMARK   10  A    between atoms: C9_15  and  O17_54 
REMARK   11  A    between atoms: C10_16  and  C13_19 
REMARK   12  A    between atoms: C13_19  and  O4_20 
REMARK   13  A    between atoms: O4_20  and  P1_21 
REMARK   14  A    between atoms: P1_21  and  O6_23 
REMARK   15  A    between atoms: P1_21  and  O7_24 
REMARK   16  A    between atoms: O7_24  and  P2_25 
REMARK   17  A    between atoms: P2_25  and  O9_27 
REMARK   18  A    between atoms: P2_25  and  O10_28 
REMARK   19  A    between atoms: O10_28  and  C14_29 
REMARK   20  A    between atoms: C14_29  and  C15_30 
REMARK   21  A    between atoms: C16_31  and  O13_49 
REMARK   22  A    between atoms: C17_32  and  O12_48 
REMARK   23  A    between atoms: C18_33  and  N3_35 
REMARK   24  A    between atoms: C21_40  and  N7_47 
REMARK   25  A    between atoms: O13_49  and  P3_50 
REMARK   26  A    between atoms: P3_50  and  O15_52 
REMARK   27  A    between atoms: P3_50  and  O16_53 
ROOT
HETATM    1  C1  UNL     1      17.087  19.151  -6.451  1.00  0.00     0.104 C 
HETATM    2  C2  UNL     1      16.872  18.802  -7.892  1.00  0.00     0.182 C 
HETATM    3  O1  UNL     1      17.777  18.782  -8.724  1.00  0.00    -0.286 OA
ENDROOT
BRANCH   2   4
HETATM    4  S1  UNL     1      15.200  18.457  -8.313  1.00  0.00    -0.091 SA
BRANCH   4   5
HETATM    5  C3  UNL     1      14.542  17.999  -6.677  1.00  0.00     0.102 C 
BRANCH   5   6
HETATM    6  C4  UNL     1      13.391  18.911  -6.250  1.00  0.00     0.133 C 
BRANCH   6   7
HETATM    7  N1  UNL     1      12.678  18.407  -5.094  1.00  0.00    -0.360 N 
HETATM    8  C5  UNL     1      13.013  18.786  -3.815  1.00  0.00     0.219 C 
HETATM    9  O2  UNL     1      13.977  19.501  -3.570  1.00  0.00    -0.274 OA
HETATM   10  H8  UNL     1      11.909  17.767  -5.238  1.00  0.00     0.162 HD
BRANCH   8  11
HETATM   11  C6  UNL     1      12.109  18.190  -2.757  1.00  0.00     0.122 C 
BRANCH  11  12
HETATM   12  C7  UNL     1      11.284  17.024  -3.302  1.00  0.00     0.132 C 
BRANCH  12  13
HETATM   13  N2  UNL     1      11.849  15.730  -2.981  1.00  0.00    -0.358 N 
HETATM   14  C8  UNL     1      12.518  15.002  -3.947  1.00  0.00     0.247 C 
HETATM   15  O3  UNL     1      12.557  15.356  -5.119  1.00  0.00    -0.271 OA
HETATM   16  H13 UNL     1      12.151  15.612  -2.016  1.00  0.00     0.162 HD
BRANCH  14  17
HETATM   17  C9  UNL     1      13.217  13.736  -3.431  1.00  0.00     0.219 C 
BRANCH  17  18
HETATM   18  C10 UNL     1      14.752  13.877  -3.252  1.00  0.00     0.009 C 
HETATM   19  C11 UNL     1      15.454  14.260  -4.563  1.00  0.00     0.020 C 
HETATM   20  C12 UNL     1      15.102  14.945  -2.196  1.00  0.00     0.020 C 
BRANCH  18  21
HETATM   21  C13 UNL     1      15.256  12.484  -2.777  1.00  0.00     0.192 C 
BRANCH  21  22
HETATM   22  O4  UNL     1      16.319  12.583  -1.851  1.00  0.00    -0.296 OA
BRANCH  22  23
HETATM   23  P1  UNL     1      16.409  11.681  -0.529  1.00  0.00     0.401 P 
HETATM   24  O5  UNL     1      15.880  12.346   0.703  1.00  0.00    -0.631 OA
BRANCH  23  25
HETATM   25  O6  UNL     1      17.938  11.196  -0.399  1.00  0.00    -0.307 OA
HETATM   26  H23 UNL     1      18.555  11.940  -0.400  1.00  0.00     0.222 HD
ENDBRANCH  23  25
BRANCH  23  27
HETATM   27  O7  UNL     1      15.684  10.318  -0.912  1.00  0.00    -0.195 OA
BRANCH  27  28
HETATM   28  P2  UNL     1      16.171   8.967  -0.221  1.00  0.00     0.401 P 
HETATM   29  O8  UNL     1      17.285   8.229  -0.889  1.00  0.00    -0.631 OA
BRANCH  28  30
HETATM   30  O9  UNL     1      16.493   9.416   1.276  1.00  0.00    -0.307 OA
HETATM   31  H24 UNL     1      17.052   8.774   1.779  1.00  0.00     0.222 HD
ENDBRANCH  28  30
BRANCH  28  32
HETATM   32  O10 UNL     1      14.823   8.141   0.003  1.00  0.00    -0.294 OA
BRANCH  32  33
HETATM   33  C14 UNL     1      13.816   8.652   0.837  1.00  0.00     0.215 C 
BRANCH  33  34
HETATM   34  C15 UNL     1      12.891   7.479   1.158  1.00  0.00     0.180 C 
HETATM   35  C16 UNL     1      12.680   7.386   2.663  1.00  0.00     0.197 C 
HETATM   36  C17 UNL     1      13.251   6.034   3.048  1.00  0.00     0.199 C 
HETATM   37  C18 UNL     1      13.127   5.247   1.741  1.00  0.00     0.262 C 
HETATM   38  O11 UNL     1      13.408   6.221   0.711  1.00  0.00    -0.353 OA
BRANCH  35  39
HETATM   39  O13 UNL     1      11.282   7.471   2.919  1.00  0.00    -0.286 OA
BRANCH  39  40
HETATM   40  P3  UNL     1      10.839   8.603   3.958  1.00  0.00     0.391 P 
HETATM   41  O14 UNL     1      11.798   9.746   4.048  1.00  0.00    -0.632 OA
BRANCH  40  42
HETATM   42  O15 UNL     1      10.606   7.726   5.275  1.00  0.00    -0.307 OA
HETATM   43  H36 UNL     1      10.855   6.784   5.116  1.00  0.00     0.222 HD
ENDBRANCH  40  42
BRANCH  40  44
HETATM   44  O16 UNL     1       9.360   8.919   3.467  1.00  0.00    -0.307 OA
HETATM   45  H37 UNL     1       8.726   8.983   4.200  1.00  0.00     0.222 HD
ENDBRANCH  40  44
ENDBRANCH  39  40
ENDBRANCH  35  39
BRANCH  36  46
HETATM   46  O12 UNL     1      12.569   5.516   4.193  1.00  0.00    -0.388 OA
HETATM   47  H35 UNL     1      13.196   5.597   4.951  1.00  0.00     0.210 HD
ENDBRANCH  36  46
BRANCH  37  48
HETATM   48  N3  UNL     1      14.095   4.173   1.644  1.00  0.00    -0.297 N 
HETATM   49  C19 UNL     1      15.182   3.958   2.459  1.00  0.00     0.188 A 
HETATM   50  N4  UNL     1      15.792   2.825   2.187  1.00  0.00    -0.346 N 
HETATM   51  C20 UNL     1      15.061   2.276   1.148  1.00  0.00     0.116 A 
HETATM   52  H4  UNL     1      16.618   2.437   2.641  1.00  0.00     0.167 HD
HETATM   53  C21 UNL     1      15.171   1.066   0.441  1.00  0.00     0.109 A 
HETATM   54  C23 UNL     1      14.031   3.119   0.775  1.00  0.00     0.142 A 
HETATM   55  N5  UNL     1      14.288   0.814  -0.556  1.00  0.00    -0.341 N 
HETATM   56  C22 UNL     1      13.347   1.741  -0.825  1.00  0.00     0.183 A 
HETATM   57  H5  UNL     1      14.334  -0.055  -1.089  1.00  0.00     0.167 HD
HETATM   58  N6  UNL     1      13.140   2.925  -0.213  1.00  0.00    -0.336 N 
HETATM   59  H6  UNL     1      12.405   3.586  -0.467  1.00  0.00     0.168 HD
BRANCH  53  60
HETATM   60  N7  UNL     1      16.145   0.116   0.703  1.00  0.00    -0.287 NA
HETATM   61  H33 UNL     1      16.067  -0.323   1.618  1.00  0.00     0.125 HD
HETATM   62  H34 UNL     1      17.069   0.408   0.416  1.00  0.00     0.125 HD
ENDBRANCH  53  60
ENDBRANCH  37  48
ENDBRANCH  33  34
ENDBRANCH  32  33
ENDBRANCH  28  32
ENDBRANCH  27  28
ENDBRANCH  23  27
ENDBRANCH  22  23
ENDBRANCH  21  22
ENDBRANCH  18  21
ENDBRANCH  17  18
BRANCH  17  63
HETATM   63  O17 UNL     1      12.649  13.335  -2.179  1.00  0.00    -0.385 OA
HETATM   64  H38 UNL     1      11.957  13.975  -1.943  1.00  0.00     0.210 HD
ENDBRANCH  17  63
ENDBRANCH  14  17
ENDBRANCH  12  13
ENDBRANCH  11  12
ENDBRANCH   8  11
ENDBRANCH   6   7
ENDBRANCH   5   6
ENDBRANCH   4   5
ENDBRANCH   2   4
TORSDOF 27
ENDMDL
MODEL 20
REMARK VINA RESULT:      -3.8      4.933      7.800
REMARK  27 active torsions:
REMARK  status: ('A' for Active; 'I' for Inactive)
REMARK    1  A    between atoms: C2_2  and  S1_4 
REMARK    2  A    between atoms: S1_4  and  C3_5 
REMARK    3  A    between atoms: C3_5  and  C4_6 
REMARK    4  A    between atoms: C4_6  and  N1_7 
REMARK       I    between atoms: N1_7  and  C5_8 
REMARK    5  A    between atoms: C5_8  and  C6_10 
REMARK    6  A    between atoms: C6_10  and  C7_11 
REMARK    7  A    between atoms: C7_11  and  N2_12 
REMARK       I    between atoms: N2_12  and  C8_13 
REMARK    8  A    between atoms: C8_13  and  C9_15 
REMARK    9  A    between atoms: C9_15  and  C10_16 
REMARK   10  A    between atoms: C9_15  and  O17_54 
REMARK   11  A    between atoms: C10_16  and  C13_19 
REMARK   12  A    between atoms: C13_19  and  O4_20 
REMARK   13  A    between atoms: O4_20  and  P1_21 
REMARK   14  A    between atoms: P1_21  and  O6_23 
REMARK   15  A    between atoms: P1_21  and  O7_24 
REMARK   16  A    between atoms: O7_24  and  P2_25 
REMARK   17  A    between atoms: P2_25  and  O9_27 
REMARK   18  A    between atoms: P2_25  and  O10_28 
REMARK   19  A    between atoms: O10_28  and  C14_29 
REMARK   20  A    between atoms: C14_29  and  C15_30 
REMARK   21  A    between atoms: C16_31  and  O13_49 
REMARK   22  A    between atoms: C17_32  and  O12_48 
REMARK   23  A    between atoms: C18_33  and  N3_35 
REMARK   24  A    between atoms: C21_40  and  N7_47 
REMARK   25  A    between atoms: O13_49  and  P3_50 
REMARK   26  A    between atoms: P3_50  and  O15_52 
REMARK   27  A    between atoms: P3_50  and  O16_53 
ROOT
HETATM    1  C1  UNL     1      16.864  23.953   4.281  1.00  0.00     0.104 C 
HETATM    2  C2  UNL     1      16.160  22.898   3.484  1.00  0.00     0.182 C 
HETATM    3  O1  UNL     1      15.389  23.152   2.561  1.00  0.00    -0.286 OA
ENDROOT
BRANCH   2   4
HETATM    4  S1  UNL     1      16.497  21.252   4.002  1.00  0.00    -0.091 SA
BRANCH   4   5
HETATM    5  C3  UNL     1      17.430  20.643   2.560  1.00  0.00     0.102 C 
BRANCH   5   6
HETATM    6  C4  UNL     1      16.547  19.827   1.614  1.00  0.00     0.133 C 
BRANCH   6   7
HETATM    7  N1  UNL     1      16.820  18.406   1.680  1.00  0.00    -0.360 N 
HETATM    8  C5  UNL     1      16.254  17.518   0.795  1.00  0.00     0.219 C 
HETATM    9  O2  UNL     1      15.429  17.859  -0.044  1.00  0.00    -0.274 OA
HETATM   10  H8  UNL     1      17.450  18.065   2.394  1.00  0.00     0.162 HD
BRANCH   8  11
HETATM   11  C6  UNL     1      16.712  16.091   1.003  1.00  0.00     0.122 C 
BRANCH  11  12
HETATM   12  C7  UNL     1      17.906  15.740   0.115  1.00  0.00     0.132 C 
BRANCH  12  13
HETATM   13  N2  UNL     1      17.875  14.374  -0.364  1.00  0.00    -0.358 N 
HETATM   14  C8  UNL     1      17.398  14.091  -1.630  1.00  0.00     0.247 C 
HETATM   15  O3  UNL     1      16.881  14.946  -2.339  1.00  0.00    -0.271 OA
HETATM   16  H13 UNL     1      18.599  13.763   0.008  1.00  0.00     0.162 HD
BRANCH  14  17
HETATM   17  C9  UNL     1      17.585  12.634  -2.078  1.00  0.00     0.219 C 
BRANCH  17  18
HETATM   18  C10 UNL     1      16.270  11.818  -2.180  1.00  0.00     0.009 C 
HETATM   19  C11 UNL     1      15.377  12.004  -0.944  1.00  0.00     0.020 C 
HETATM   20  C12 UNL     1      15.450  12.220  -3.423  1.00  0.00     0.020 C 
BRANCH  18  21
HETATM   21  C13 UNL     1      16.700  10.327  -2.295  1.00  0.00     0.192 C 
BRANCH  21  22
HETATM   22  O4  UNL     1      15.858   9.466  -1.555  1.00  0.00    -0.296 OA
BRANCH  22  23
HETATM   23  P1  UNL     1      16.408   8.474  -0.422  1.00  0.00     0.401 P 
HETATM   24  O5  UNL     1      16.812   9.157   0.846  1.00  0.00    -0.631 OA
BRANCH  23  25
HETATM   25  O6  UNL     1      17.584   7.605  -1.095  1.00  0.00    -0.307 OA
HETATM   26  H23 UNL     1      18.439   8.049  -1.038  1.00  0.00     0.222 HD
ENDBRANCH  23  25
BRANCH  23  27
HETATM   27  O7  UNL     1      15.270   7.375  -0.251  1.00  0.00    -0.195 OA
BRANCH  27  28
HETATM   28  P2  UNL     1      13.937   7.762   0.531  1.00  0.00     0.401 P 
HETATM   29  O8  UNL     1      13.520   9.195   0.490  1.00  0.00    -0.631 OA
BRANCH  28  30
HETATM   30  O9  UNL     1      12.855   6.751  -0.067  1.00  0.00    -0.307 OA
HETATM   31  H24 UNL     1      13.130   6.320  -0.913  1.00  0.00     0.222 HD
ENDBRANCH  28  30
BRANCH  28  32
HETATM   32  O10 UNL     1      14.148   7.138   1.986  1.00  0.00    -0.294 OA
BRANCH  32  33
HETATM   33  C14 UNL     1      14.216   7.979   3.108  1.00  0.00     0.215 C 
BRANCH  33  34
HETATM   34  C15 UNL     1      12.984   7.662   3.953  1.00  0.00     0.180 C 
HETATM   35  C16 UNL     1      12.060   6.725   3.187  1.00  0.00     0.197 C 
HETATM   36  C17 UNL     1      10.776   7.512   3.008  1.00  0.00     0.199 C 
HETATM   37  C18 UNL     1      10.830   8.491   4.183  1.00  0.00     0.262 C 
HETATM   38  O11 UNL     1      12.230   8.829   4.301  1.00  0.00    -0.353 OA
BRANCH  35  39
HETATM   39  O13 UNL     1      11.867   5.555   3.976  1.00  0.00    -0.286 OA
BRANCH  39  40
HETATM   40  P3  UNL     1      11.978   4.168   3.189  1.00  0.00     0.391 P 
HETATM   41  O14 UNL     1      12.793   3.136   3.900  1.00  0.00    -0.632 OA
BRANCH  40  42
HETATM   42  O15 UNL     1      12.501   4.673   1.764  1.00  0.00    -0.307 OA
HETATM   43  H36 UNL     1      12.732   5.631   1.797  1.00  0.00     0.222 HD
ENDBRANCH  40  42
BRANCH  40  44
HETATM   44  O16 UNL     1      10.447   3.837   2.915  1.00  0.00    -0.307 OA
HETATM   45  H37 UNL     1       9.875   4.049   3.670  1.00  0.00     0.222 HD
ENDBRANCH  40  44
ENDBRANCH  39  40
ENDBRANCH  35  39
BRANCH  36  46
HETATM   46  O12 UNL     1       9.656   6.626   2.942  1.00  0.00    -0.388 OA
HETATM   47  H35 UNL     1       9.830   6.012   2.189  1.00  0.00     0.210 HD
ENDBRANCH  36  46
BRANCH  37  48
HETATM   48  N3  UNL     1      10.077   9.703   3.933  1.00  0.00    -0.297 N 
HETATM   49  C19 UNL     1       8.992  10.169   4.640  1.00  0.00     0.188 A 
HETATM   50  N4  UNL     1       8.612  11.363   4.241  1.00  0.00    -0.346 N 
HETATM   51  C20 UNL     1       9.497  11.690   3.229  1.00  0.00     0.116 A 
HETATM   52  H4  UNL     1       7.839  11.923   4.598  1.00  0.00     0.167 HD
HETATM   53  C21 UNL     1       9.651  12.838   2.432  1.00  0.00     0.109 A 
HETATM   54  C23 UNL     1      10.385  10.654   3.001  1.00  0.00     0.142 A 
HETATM   55  N5  UNL     1      10.631  12.851   1.495  1.00  0.00    -0.341 N 
HETATM   56  C22 UNL     1      11.408  11.757   1.369  1.00  0.00     0.183 A 
HETATM   57  H5  UNL     1      10.775  13.667   0.901  1.00  0.00     0.167 HD
HETATM   58  N6  UNL     1      11.361  10.610   2.077  1.00  0.00    -0.336 N 
HETATM   59  H6  UNL     1      11.982   9.814   1.931  1.00  0.00     0.168 HD
BRANCH  53  60
HETATM   60  N7  UNL     1       8.845  13.959   2.547  1.00  0.00    -0.287 NA
HETATM   61  H33 UNL     1       7.867  13.797   2.321  1.00  0.00     0.125 HD
HETATM   62  H34 UNL     1       9.270  14.792   2.161  1.00  0.00     0.125 HD
ENDBRANCH  53  60
ENDBRANCH  37  48
ENDBRANCH  33  34
ENDBRANCH  32  33
ENDBRANCH  28  32
ENDBRANCH  27  28
ENDBRANCH  23  27
ENDBRANCH  22  23
ENDBRANCH  21  22
ENDBRANCH  18  21
ENDBRANCH  17  18
BRANCH  17  63
HETATM   63  O17 UNL     1      18.247  12.589  -3.347  1.00  0.00    -0.385 OA
HETATM   64  H38 UNL     1      18.951  11.921  -3.297  1.00  0.00     0.210 HD
ENDBRANCH  17  63
ENDBRANCH  14  17
ENDBRANCH  12  13
ENDBRANCH  11  12
ENDBRANCH   8  11
ENDBRANCH   6   7
ENDBRANCH   5   6
ENDBRANCH   4   5
ENDBRANCH   2   4
TORSDOF 27
ENDMDL
