MODEL 1
REMARK VINA RESULT:      -3.4      0.000      0.000
REMARK  2 active torsions:
REMARK  status: ('A' for Active; 'I' for Inactive)
REMARK    1  A    between atoms: C3_3  and  O1_8 
REMARK    2  A    between atoms: C6_6  and  N1_7 
ROOT
HETATM    1  C1  UNL     1      -2.444  -8.388 -10.489  1.00  0.00     0.026 A 
HETATM    2  C2  UNL     1      -3.560  -9.215 -10.346  1.00  0.00     0.038 A 
HETATM    3  C3  UNL     1      -3.646 -10.389 -11.080  1.00  0.00     0.065 A 
HETATM    4  C4  UNL     1      -2.622 -10.758 -11.946  1.00  0.00     0.038 A 
HETATM    5  C5  UNL     1      -1.508  -9.925 -12.086  1.00  0.00     0.026 A 
HETATM    6  C6  UNL     1      -1.431  -8.709 -11.398  1.00  0.00     0.005 A 
ENDROOT
BRANCH   6   7
HETATM    7  N1  UNL     1      -0.262  -7.942 -11.453  1.00  0.00    -0.303 NA
HETATM    8  H5  UNL     1      -0.406  -7.005 -11.817  1.00  0.00     0.124 HD
HETATM    9  H6  UNL     1       0.518  -8.413 -11.897  1.00  0.00     0.124 HD
ENDBRANCH   6   7
BRANCH   3  10
HETATM   10  O1  UNL     1      -4.749 -11.170 -10.910  1.00  0.00    -0.361 OA
HETATM   11  H7  UNL     1      -5.122 -11.374 -11.783  1.00  0.00     0.217 HD
ENDBRANCH   3  10
TORSDOF 2
ENDMDL
MODEL 2
REMARK VINA RESULT:      -3.4      0.066      1.705
REMARK  2 active torsions:
REMARK  status: ('A' for Active; 'I' for Inactive)
REMARK    1  A    between atoms: C3_3  and  O1_8 
REMARK    2  A    between atoms: C6_6  and  N1_7 
ROOT
HETATM    1  C1  UNL     1      -1.525  -9.931 -12.098  1.00  0.00     0.026 A 
HETATM    2  C2  UNL     1      -2.649 -10.746 -11.950  1.00  0.00     0.038 A 
HETATM    3  C3  UNL     1      -3.658 -10.375 -11.072  1.00  0.00     0.065 A 
HETATM    4  C4  UNL     1      -3.567  -9.191 -10.349  1.00  0.00     0.038 A 
HETATM    5  C5  UNL     1      -2.438  -8.380 -10.501  1.00  0.00     0.026 A 
HETATM    6  C6  UNL     1      -1.385  -8.766 -11.336  1.00  0.00     0.005 A 
ENDROOT
BRANCH   6   7
HETATM    7  N1  UNL     1      -0.316  -7.894 -11.572  1.00  0.00    -0.303 NA
HETATM    8  H5  UNL     1       0.491  -8.069 -10.982  1.00  0.00     0.124 HD
HETATM    9  H6  UNL     1      -0.581  -6.915 -11.584  1.00  0.00     0.124 HD
ENDBRANCH   6   7
BRANCH   3  10
HETATM   10  O1  UNL     1      -4.739 -11.196 -10.959  1.00  0.00    -0.361 OA
HETATM   11  H7  UNL     1      -5.395 -10.938 -11.626  1.00  0.00     0.217 HD
ENDBRANCH   3  10
TORSDOF 2
ENDMDL
MODEL 3
REMARK VINA RESULT:      -3.3      2.774      3.677
REMARK  2 active torsions:
REMARK  status: ('A' for Active; 'I' for Inactive)
REMARK    1  A    between atoms: C3_3  and  O1_8 
REMARK    2  A    between atoms: C6_6  and  N1_7 
ROOT
HETATM    1  C1  UNL     1      -2.662 -10.769 -11.808  1.00  0.00     0.026 A 
HETATM    2  C2  UNL     1      -1.596  -9.905 -12.070  1.00  0.00     0.038 A 
HETATM    3  C3  UNL     1      -1.527  -8.681 -11.420  1.00  0.00     0.065 A 
HETATM    4  C4  UNL     1      -2.500  -8.314 -10.497  1.00  0.00     0.038 A 
HETATM    5  C5  UNL     1      -3.565  -9.183 -10.241  1.00  0.00     0.026 A 
HETATM    6  C6  UNL     1      -3.683 -10.395 -10.929  1.00  0.00     0.005 A 
ENDROOT
BRANCH   6   7
HETATM    7  N1  UNL     1      -4.684 -11.308 -10.581  1.00  0.00    -0.303 NA
HETATM    8  H5  UNL     1      -4.971 -11.911 -11.346  1.00  0.00     0.124 HD
HETATM    9  H6  UNL     1      -5.474 -10.889 -10.102  1.00  0.00     0.124 HD
ENDBRANCH   6   7
BRANCH   3  10
HETATM   10  O1  UNL     1      -0.470  -7.868 -11.701  1.00  0.00    -0.361 OA
HETATM   11  H7  UNL     1       0.313  -8.206 -11.238  1.00  0.00     0.217 HD
ENDBRANCH   3  10
TORSDOF 2
ENDMDL
MODEL 4
REMARK VINA RESULT:      -3.1      2.291      3.024
REMARK  2 active torsions:
REMARK  status: ('A' for Active; 'I' for Inactive)
REMARK    1  A    between atoms: C3_3  and  O1_8 
REMARK    2  A    between atoms: C6_6  and  N1_7 
ROOT
HETATM    1  C1  UNL     1      -3.762 -10.246 -10.970  1.00  0.00     0.026 A 
HETATM    2  C2  UNL     1      -2.862 -10.796 -11.886  1.00  0.00     0.038 A 
HETATM    3  C3  UNL     1      -1.667 -10.144 -12.153  1.00  0.00     0.065 A 
HETATM    4  C4  UNL     1      -1.349  -8.955 -11.504  1.00  0.00     0.038 A 
HETATM    5  C5  UNL     1      -2.255  -8.410 -10.590  1.00  0.00     0.026 A 
HETATM    6  C6  UNL     1      -3.490  -9.022 -10.351  1.00  0.00     0.005 A 
ENDROOT
BRANCH   6   7
HETATM    7  N1  UNL     1      -4.336  -8.535  -9.349  1.00  0.00    -0.303 NA
HETATM    8  H5  UNL     1      -4.308  -9.078  -8.492  1.00  0.00     0.124 HD
HETATM    9  H6  UNL     1      -5.284  -8.357  -9.663  1.00  0.00     0.124 HD
ENDBRANCH   6   7
BRANCH   3  10
HETATM   10  O1  UNL     1      -0.815 -10.714 -13.050  1.00  0.00    -0.361 OA
HETATM   11  H7  UNL     1      -0.084 -11.127 -12.564  1.00  0.00     0.217 HD
ENDBRANCH   3  10
TORSDOF 2
ENDMDL
MODEL 5
REMARK VINA RESULT:      -3.1      5.990      6.689
REMARK  2 active torsions:
REMARK  status: ('A' for Active; 'I' for Inactive)
REMARK    1  A    between atoms: C3_3  and  O1_8 
REMARK    2  A    between atoms: C6_6  and  N1_7 
ROOT
HETATM    1  C1  UNL     1      -8.256  -5.462  -9.702  1.00  0.00     0.026 A 
HETATM    2  C2  UNL     1      -9.024  -6.244  -8.835  1.00  0.00     0.038 A 
HETATM    3  C3  UNL     1      -8.394  -7.064  -7.910  1.00  0.00     0.065 A 
HETATM    4  C4  UNL     1      -7.007  -7.103  -7.826  1.00  0.00     0.038 A 
HETATM    5  C5  UNL     1      -6.245  -6.319  -8.698  1.00  0.00     0.026 A 
HETATM    6  C6  UNL     1      -6.860  -5.531  -9.677  1.00  0.00     0.005 A 
ENDROOT
BRANCH   6   7
HETATM    7  N1  UNL     1      -6.096  -4.661 -10.463  1.00  0.00    -0.303 NA
HETATM    8  H5  UNL     1      -6.578  -3.801 -10.705  1.00  0.00     0.124 HD
HETATM    9  H6  UNL     1      -5.670  -5.105 -11.270  1.00  0.00     0.124 HD
ENDBRANCH   6   7
BRANCH   3  10
HETATM   10  O1  UNL     1      -9.178  -7.809  -7.080  1.00  0.00    -0.361 OA
HETATM   11  H7  UNL     1      -8.766  -8.680  -6.965  1.00  0.00     0.217 HD
ENDBRANCH   3  10
TORSDOF 2
ENDMDL
MODEL 6
REMARK VINA RESULT:      -2.9      6.673      7.534
REMARK  2 active torsions:
REMARK  status: ('A' for Active; 'I' for Inactive)
REMARK    1  A    between atoms: C3_3  and  O1_8 
REMARK    2  A    between atoms: C6_6  and  N1_7 
ROOT
HETATM    1  C1  UNL     1      -9.433  -6.391  -8.929  1.00  0.00     0.026 A 
HETATM    2  C2  UNL     1      -8.696  -5.637  -9.845  1.00  0.00     0.038 A 
HETATM    3  C3  UNL     1      -7.310  -5.636  -9.777  1.00  0.00     0.065 A 
HETATM    4  C4  UNL     1      -6.648  -6.392  -8.816  1.00  0.00     0.038 A 
HETATM    5  C5  UNL     1      -7.393  -7.144  -7.902  1.00  0.00     0.026 A 
HETATM    6  C6  UNL     1      -8.791  -7.111  -7.918  1.00  0.00     0.005 A 
ENDROOT
BRANCH   6   7
HETATM    7  N1  UNL     1      -9.525  -7.957  -7.078  1.00  0.00    -0.303 NA
HETATM    8  H5  UNL     1      -9.271  -8.936  -7.163  1.00  0.00     0.124 HD
HETATM    9  H6  UNL     1     -10.528  -7.813  -7.126  1.00  0.00     0.124 HD
ENDBRANCH   6   7
BRANCH   3  10
HETATM   10  O1  UNL     1      -6.626  -4.890 -10.689  1.00  0.00    -0.361 OA
HETATM   11  H7  UNL     1      -7.174  -4.128 -10.939  1.00  0.00     0.217 HD
ENDBRANCH   3  10
TORSDOF 2
ENDMDL
MODEL 7
REMARK VINA RESULT:      -2.9      5.524      6.081
REMARK  2 active torsions:
REMARK  status: ('A' for Active; 'I' for Inactive)
REMARK    1  A    between atoms: C3_3  and  O1_8 
REMARK    2  A    between atoms: C6_6  and  N1_7 
ROOT
HETATM    1  C1  UNL     1      -5.327  -7.311  -8.001  1.00  0.00     0.026 A 
HETATM    2  C2  UNL     1      -5.808  -6.150  -8.610  1.00  0.00     0.038 A 
HETATM    3  C3  UNL     1      -7.086  -6.135  -9.149  1.00  0.00     0.065 A 
HETATM    4  C4  UNL     1      -7.899  -7.261  -9.075  1.00  0.00     0.038 A 
HETATM    5  C5  UNL     1      -7.410  -8.420  -8.466  1.00  0.00     0.026 A 
HETATM    6  C6  UNL     1      -6.104  -8.473  -7.968  1.00  0.00     0.005 A 
ENDROOT
BRANCH   6   7
HETATM    7  N1  UNL     1      -5.665  -9.595  -7.256  1.00  0.00    -0.303 NA
HETATM    8  H5  UNL     1      -4.692  -9.542  -6.970  1.00  0.00     0.124 HD
HETATM    9  H6  UNL     1      -5.890 -10.478  -7.702  1.00  0.00     0.124 HD
ENDBRANCH   6   7
BRANCH   3  10
HETATM   10  O1  UNL     1      -7.520  -4.983  -9.732  1.00  0.00    -0.361 OA
HETATM   11  H7  UNL     1      -7.572  -5.121 -10.691  1.00  0.00     0.217 HD
ENDBRANCH   3  10
TORSDOF 2
ENDMDL
MODEL 8
REMARK VINA RESULT:      -2.8      5.875      6.625
REMARK  2 active torsions:
REMARK  status: ('A' for Active; 'I' for Inactive)
REMARK    1  A    between atoms: C3_3  and  O1_8 
REMARK    2  A    between atoms: C6_6  and  N1_7 
ROOT
HETATM    1  C1  UNL     1      -5.921  -5.681  -9.233  1.00  0.00     0.026 A 
HETATM    2  C2  UNL     1      -7.074  -5.074  -9.736  1.00  0.00     0.038 A 
HETATM    3  C3  UNL     1      -8.322  -5.541  -9.348  1.00  0.00     0.065 A 
HETATM    4  C4  UNL     1      -8.435  -6.597  -8.451  1.00  0.00     0.038 A 
HETATM    5  C5  UNL     1      -7.276  -7.201  -7.953  1.00  0.00     0.026 A 
HETATM    6  C6  UNL     1      -6.011  -6.783  -8.377  1.00  0.00     0.005 A 
ENDROOT
BRANCH   6   7
HETATM    7  N1  UNL     1      -4.859  -7.311  -7.784  1.00  0.00    -0.303 NA
HETATM    8  H5  UNL     1      -5.038  -7.812  -6.920  1.00  0.00     0.124 HD
HETATM    9  H6  UNL     1      -4.100  -6.643  -7.693  1.00  0.00     0.124 HD
ENDBRANCH   6   7
BRANCH   3  10
HETATM   10  O1  UNL     1      -9.423  -4.921  -9.858  1.00  0.00    -0.361 OA
HETATM   11  H7  UNL     1     -10.000  -5.592 -10.256  1.00  0.00     0.217 HD
ENDBRANCH   3  10
TORSDOF 2
ENDMDL
MODEL 9
REMARK VINA RESULT:      -2.8      5.904      6.554
REMARK  2 active torsions:
REMARK  status: ('A' for Active; 'I' for Inactive)
REMARK    1  A    between atoms: C3_3  and  O1_8 
REMARK    2  A    between atoms: C6_6  and  N1_7 
ROOT
HETATM    1  C1  UNL     1      -7.246  -7.201  -7.918  1.00  0.00     0.026 A 
HETATM    2  C2  UNL     1      -8.389  -6.604  -8.456  1.00  0.00     0.038 A 
HETATM    3  C3  UNL     1      -8.259  -5.553  -9.352  1.00  0.00     0.065 A 
HETATM    4  C4  UNL     1      -7.001  -5.098  -9.733  1.00  0.00     0.038 A 
HETATM    5  C5  UNL     1      -5.862  -5.699  -9.189  1.00  0.00     0.026 A 
HETATM    6  C6  UNL     1      -5.973  -6.720  -8.240  1.00  0.00     0.005 A 
ENDROOT
BRANCH   6   7
HETATM    7  N1  UNL     1      -4.831  -7.395  -7.794  1.00  0.00    -0.303 NA
HETATM    8  H5  UNL     1      -4.796  -7.515  -6.786  1.00  0.00     0.124 HD
HETATM    9  H6  UNL     1      -3.964  -7.026  -8.169  1.00  0.00     0.124 HD
ENDBRANCH   6   7
BRANCH   3  10
HETATM   10  O1  UNL     1      -9.398  -4.999  -9.856  1.00  0.00    -0.361 OA
HETATM   11  H7  UNL     1      -9.793  -5.623 -10.486  1.00  0.00     0.217 HD
ENDBRANCH   3  10
TORSDOF 2
ENDMDL
MODEL 10
REMARK VINA RESULT:      -2.8      5.556      6.118
REMARK  2 active torsions:
REMARK  status: ('A' for Active; 'I' for Inactive)
REMARK    1  A    between atoms: C3_3  and  O1_8 
REMARK    2  A    between atoms: C6_6  and  N1_7 
ROOT
HETATM    1  C1  UNL     1      -7.448  -8.389  -8.463  1.00  0.00     0.026 A 
HETATM    2  C2  UNL     1      -7.927  -7.244  -9.103  1.00  0.00     0.038 A 
HETATM    3  C3  UNL     1      -7.121  -6.118  -9.194  1.00  0.00     0.065 A 
HETATM    4  C4  UNL     1      -5.834  -6.124  -8.667  1.00  0.00     0.038 A 
HETATM    5  C5  UNL     1      -5.362  -7.273  -8.026  1.00  0.00     0.026 A 
HETATM    6  C6  UNL     1      -6.180  -8.397  -7.873  1.00  0.00     0.005 A 
ENDROOT
BRANCH   6   7
HETATM    7  N1  UNL     1      -5.659  -9.581  -7.338  1.00  0.00    -0.303 NA
HETATM    8  H5  UNL     1      -6.255 -10.008  -6.636  1.00  0.00     0.124 HD
HETATM    9  H6  UNL     1      -4.695  -9.503  -7.031  1.00  0.00     0.124 HD
ENDBRANCH   6   7
BRANCH   3  10
HETATM   10  O1  UNL     1      -7.624  -5.022  -9.829  1.00  0.00    -0.361 OA
HETATM   11  H7  UNL     1      -8.560  -4.928  -9.590  1.00  0.00     0.217 HD
ENDBRANCH   3  10
TORSDOF 2
ENDMDL
MODEL 11
REMARK VINA RESULT:      -2.8      7.277      8.222
REMARK  2 active torsions:
REMARK  status: ('A' for Active; 'I' for Inactive)
REMARK    1  A    between atoms: C3_3  and  O1_8 
REMARK    2  A    between atoms: C6_6  and  N1_7 
ROOT
HETATM    1  C1  UNL     1      -8.217  -7.310  -7.811  1.00  0.00     0.026 A 
HETATM    2  C2  UNL     1      -7.574  -6.518  -8.765  1.00  0.00     0.038 A 
HETATM    3  C3  UNL     1      -8.327  -5.814  -9.694  1.00  0.00     0.065 A 
HETATM    4  C4  UNL     1      -9.716  -5.876  -9.673  1.00  0.00     0.038 A 
HETATM    5  C5  UNL     1     -10.352  -6.672  -8.715  1.00  0.00     0.026 A 
HETATM    6  C6  UNL     1      -9.609  -7.435  -7.809  1.00  0.00     0.005 A 
ENDROOT
BRANCH   6   7
HETATM    7  N1  UNL     1     -10.254  -8.132  -6.780  1.00  0.00    -0.303 NA
HETATM    8  H5  UNL     1     -10.852  -7.548  -6.204  1.00  0.00     0.124 HD
HETATM    9  H6  UNL     1      -9.633  -8.714  -6.228  1.00  0.00     0.124 HD
ENDBRANCH   6   7
BRANCH   3  10
HETATM   10  O1  UNL     1      -7.663  -5.051 -10.607  1.00  0.00    -0.361 OA
HETATM   11  H7  UNL     1      -6.929  -4.601 -10.160  1.00  0.00     0.217 HD
ENDBRANCH   3  10
TORSDOF 2
ENDMDL
MODEL 12
REMARK VINA RESULT:      -2.8      5.471      5.978
REMARK  2 active torsions:
REMARK  status: ('A' for Active; 'I' for Inactive)
REMARK    1  A    between atoms: C3_3  and  O1_8 
REMARK    2  A    between atoms: C6_6  and  N1_7 
ROOT
HETATM    1  C1  UNL     1      -7.961  -7.171  -9.063  1.00  0.00     0.026 A 
HETATM    2  C2  UNL     1      -7.479  -8.297  -8.392  1.00  0.00     0.038 A 
HETATM    3  C3  UNL     1      -6.192  -8.290  -7.873  1.00  0.00     0.065 A 
HETATM    4  C4  UNL     1      -5.384  -7.166  -8.000  1.00  0.00     0.038 A 
HETATM    5  C5  UNL     1      -5.873  -6.043  -8.674  1.00  0.00     0.026 A 
HETATM    6  C6  UNL     1      -7.145  -6.052  -9.255  1.00  0.00     0.005 A 
ENDROOT
BRANCH   6   7
HETATM    7  N1  UNL     1      -7.670  -4.885  -9.821  1.00  0.00    -0.303 NA
HETATM    8  H5  UNL     1      -7.026  -4.100  -9.807  1.00  0.00     0.124 HD
HETATM    9  H6  UNL     1      -8.589  -4.637  -9.473  1.00  0.00     0.124 HD
ENDBRANCH   6   7
BRANCH   3  10
HETATM   10  O1  UNL     1      -5.760  -9.407  -7.224  1.00  0.00    -0.361 OA
HETATM   11  H7  UNL     1      -5.900 -10.175  -7.801  1.00  0.00     0.217 HD
ENDBRANCH   3  10
TORSDOF 2
ENDMDL
MODEL 13
REMARK VINA RESULT:      -2.7      3.712      4.600
REMARK  2 active torsions:
REMARK  status: ('A' for Active; 'I' for Inactive)
REMARK    1  A    between atoms: C3_3  and  O1_8 
REMARK    2  A    between atoms: C6_6  and  N1_7 
ROOT
HETATM    1  C1  UNL     1      -5.131  -8.551 -10.319  1.00  0.00     0.026 A 
HETATM    2  C2  UNL     1      -5.217  -9.433  -9.240  1.00  0.00     0.038 A 
HETATM    3  C3  UNL     1      -5.574  -8.955  -7.987  1.00  0.00     0.065 A 
HETATM    4  C4  UNL     1      -5.863  -7.608  -7.799  1.00  0.00     0.038 A 
HETATM    5  C5  UNL     1      -5.773  -6.730  -8.884  1.00  0.00     0.026 A 
HETATM    6  C6  UNL     1      -5.358  -7.183 -10.140  1.00  0.00     0.005 A 
ENDROOT
BRANCH   6   7
HETATM    7  N1  UNL     1      -5.386  -6.322 -11.244  1.00  0.00    -0.303 NA
HETATM    8  H5  UNL     1      -4.654  -5.619 -11.232  1.00  0.00     0.124 HD
HETATM    9  H6  UNL     1      -6.300  -5.924 -11.430  1.00  0.00     0.124 HD
ENDBRANCH   6   7
BRANCH   3  10
HETATM   10  O1  UNL     1      -5.650  -9.849  -6.961  1.00  0.00    -0.361 OA
HETATM   11  H7  UNL     1      -6.534  -9.790  -6.564  1.00  0.00     0.217 HD
ENDBRANCH   3  10
TORSDOF 2
ENDMDL
MODEL 14
REMARK VINA RESULT:      -2.6      3.023      3.603
REMARK  2 active torsions:
REMARK  status: ('A' for Active; 'I' for Inactive)
REMARK    1  A    between atoms: C3_3  and  O1_8 
REMARK    2  A    between atoms: C6_6  and  N1_7 
ROOT
HETATM    1  C1  UNL     1      -3.214  -8.582 -10.116  1.00  0.00     0.026 A 
HETATM    2  C2  UNL     1      -2.206  -8.740 -11.069  1.00  0.00     0.038 A 
HETATM    3  C3  UNL     1      -2.379  -8.226 -12.346  1.00  0.00     0.065 A 
HETATM    4  C4  UNL     1      -3.542  -7.541 -12.681  1.00  0.00     0.038 A 
HETATM    5  C5  UNL     1      -4.548  -7.388 -11.723  1.00  0.00     0.026 A 
HETATM    6  C6  UNL     1      -4.416  -7.949 -10.449  1.00  0.00     0.005 A 
ENDROOT
BRANCH   6   7
HETATM    7  N1  UNL     1      -5.373  -7.689  -9.461  1.00  0.00    -0.303 NA
HETATM    8  H5  UNL     1      -5.826  -8.524  -9.103  1.00  0.00     0.124 HD
HETATM    9  H6  UNL     1      -6.039  -6.967  -9.715  1.00  0.00     0.124 HD
ENDBRANCH   6   7
BRANCH   3  10
HETATM   10  O1  UNL     1      -1.371  -8.399 -13.246  1.00  0.00    -0.361 OA
HETATM   11  H7  UNL     1      -0.714  -9.002 -12.864  1.00  0.00     0.217 HD
ENDBRANCH   3  10
TORSDOF 2
ENDMDL
MODEL 15
REMARK VINA RESULT:      -2.6      3.563      4.333
REMARK  2 active torsions:
REMARK  status: ('A' for Active; 'I' for Inactive)
REMARK    1  A    between atoms: C3_3  and  O1_8 
REMARK    2  A    between atoms: C6_6  and  N1_7 
ROOT
HETATM    1  C1  UNL     1      -5.541  -6.592 -10.456  1.00  0.00     0.026 A 
HETATM    2  C2  UNL     1      -6.355  -6.547  -9.322  1.00  0.00     0.038 A 
HETATM    3  C3  UNL     1      -6.103  -7.405  -8.261  1.00  0.00     0.065 A 
HETATM    4  C4  UNL     1      -5.038  -8.298  -8.310  1.00  0.00     0.038 A 
HETATM    5  C5  UNL     1      -4.229  -8.338  -9.449  1.00  0.00     0.026 A 
HETATM    6  C6  UNL     1      -4.503  -7.523 -10.552  1.00  0.00     0.005 A 
ENDROOT
BRANCH   6   7
HETATM    7  N1  UNL     1      -3.619  -7.485 -11.637  1.00  0.00    -0.303 NA
HETATM    8  H5  UNL     1      -3.933  -6.891 -12.398  1.00  0.00     0.124 HD
HETATM    9  H6  UNL     1      -3.324  -8.401 -11.958  1.00  0.00     0.124 HD
ENDBRANCH   6   7
BRANCH   3  10
HETATM   10  O1  UNL     1      -6.917  -7.328  -7.171  1.00  0.00    -0.361 OA
HETATM   11  H7  UNL     1      -7.483  -6.545  -7.261  1.00  0.00     0.217 HD
ENDBRANCH   3  10
TORSDOF 2
ENDMDL
MODEL 16
REMARK VINA RESULT:      -2.6      5.056      5.751
REMARK  2 active torsions:
REMARK  status: ('A' for Active; 'I' for Inactive)
REMARK    1  A    between atoms: C3_3  and  O1_8 
REMARK    2  A    between atoms: C6_6  and  N1_7 
ROOT
HETATM    1  C1  UNL     1      -6.131  -5.799  -9.256  1.00  0.00     0.026 A 
HETATM    2  C2  UNL     1      -5.975  -4.573  -9.907  1.00  0.00     0.038 A 
HETATM    3  C3  UNL     1      -5.407  -4.534 -11.172  1.00  0.00     0.065 A 
HETATM    4  C4  UNL     1      -5.007  -5.705 -11.806  1.00  0.00     0.038 A 
HETATM    5  C5  UNL     1      -5.166  -6.929 -11.148  1.00  0.00     0.026 A 
HETATM    6  C6  UNL     1      -5.681  -6.983  -9.849  1.00  0.00     0.005 A 
ENDROOT
BRANCH   6   7
HETATM    7  N1  UNL     1      -5.946  -8.218  -9.247  1.00  0.00    -0.303 NA
HETATM    8  H5  UNL     1      -6.471  -8.146  -8.381  1.00  0.00     0.124 HD
HETATM    9  H6  UNL     1      -5.130  -8.814  -9.155  1.00  0.00     0.124 HD
ENDBRANCH   6   7
BRANCH   3  10
HETATM   10  O1  UNL     1      -5.274  -3.319 -11.775  1.00  0.00    -0.361 OA
HETATM   11  H7  UNL     1      -4.536  -3.364 -12.404  1.00  0.00     0.217 HD
ENDBRANCH   3  10
TORSDOF 2
ENDMDL
MODEL 17
REMARK VINA RESULT:      -2.6      2.433      3.366
REMARK  2 active torsions:
REMARK  status: ('A' for Active; 'I' for Inactive)
REMARK    1  A    between atoms: C3_3  and  O1_8 
REMARK    2  A    between atoms: C6_6  and  N1_7 
ROOT
HETATM    1  C1  UNL     1      -4.731 -10.565 -10.499  1.00  0.00     0.026 A 
HETATM    2  C2  UNL     1      -5.644 -10.294  -9.477  1.00  0.00     0.038 A 
HETATM    3  C3  UNL     1      -5.488  -9.155  -8.700  1.00  0.00     0.065 A 
HETATM    4  C4  UNL     1      -4.440  -8.273  -8.939  1.00  0.00     0.038 A 
HETATM    5  C5  UNL     1      -3.529  -8.551  -9.962  1.00  0.00     0.026 A 
HETATM    6  C6  UNL     1      -3.636  -9.724 -10.718  1.00  0.00     0.005 A 
ENDROOT
BRANCH   6   7
HETATM    7  N1  UNL     1      -2.792  -9.934 -11.814  1.00  0.00    -0.303 NA
HETATM    8  H5  UNL     1      -3.091  -9.452 -12.657  1.00  0.00     0.124 HD
HETATM    9  H6  UNL     1      -2.576 -10.911 -11.984  1.00  0.00     0.124 HD
ENDBRANCH   6   7
BRANCH   3  10
HETATM   10  O1  UNL     1      -6.401  -8.924  -7.715  1.00  0.00    -0.361 OA
HETATM   11  H7  UNL     1      -6.141  -8.123  -7.233  1.00  0.00     0.217 HD
ENDBRANCH   3  10
TORSDOF 2
ENDMDL
MODEL 18
REMARK VINA RESULT:      -2.5      3.799      4.576
REMARK  2 active torsions:
REMARK  status: ('A' for Active; 'I' for Inactive)
REMARK    1  A    between atoms: C3_3  and  O1_8 
REMARK    2  A    between atoms: C6_6  and  N1_7 
ROOT
HETATM    1  C1  UNL     1      -6.106  -7.202  -8.945  1.00  0.00     0.026 A 
HETATM    2  C2  UNL     1      -5.717  -6.518 -10.099  1.00  0.00     0.038 A 
HETATM    3  C3  UNL     1      -4.695  -7.025 -10.888  1.00  0.00     0.065 A 
HETATM    4  C4  UNL     1      -4.064  -8.217 -10.549  1.00  0.00     0.038 A 
HETATM    5  C5  UNL     1      -4.458  -8.896  -9.393  1.00  0.00     0.026 A 
HETATM    6  C6  UNL     1      -5.446  -8.371  -8.554  1.00  0.00     0.005 A 
ENDROOT
BRANCH   6   7
HETATM    7  N1  UNL     1      -5.915  -9.115  -7.465  1.00  0.00    -0.303 NA
HETATM    8  H5  UNL     1      -5.190  -9.642  -6.989  1.00  0.00     0.124 HD
HETATM    9  H6  UNL     1      -6.730  -9.681  -7.676  1.00  0.00     0.124 HD
ENDBRANCH   6   7
BRANCH   3  10
HETATM   10  O1  UNL     1      -4.346  -6.329 -12.007  1.00  0.00    -0.361 OA
HETATM   11  H7  UNL     1      -4.220  -5.398 -11.765  1.00  0.00     0.217 HD
ENDBRANCH   3  10
TORSDOF 2
ENDMDL
MODEL 19
REMARK VINA RESULT:      -2.4      5.502      6.440
REMARK  2 active torsions:
REMARK  status: ('A' for Active; 'I' for Inactive)
REMARK    1  A    between atoms: C3_3  and  O1_8 
REMARK    2  A    between atoms: C6_6  and  N1_7 
ROOT
HETATM    1  C1  UNL     1      -7.124  -9.592  -8.547  1.00  0.00     0.026 A 
HETATM    2  C2  UNL     1      -5.790  -9.265  -8.291  1.00  0.00     0.038 A 
HETATM    3  C3  UNL     1      -5.453  -7.961  -7.957  1.00  0.00     0.065 A 
HETATM    4  C4  UNL     1      -6.433  -6.980  -7.859  1.00  0.00     0.038 A 
HETATM    5  C5  UNL     1      -7.766  -7.313  -8.117  1.00  0.00     0.026 A 
HETATM    6  C6  UNL     1      -8.117  -8.608  -8.513  1.00  0.00     0.005 A 
ENDROOT
BRANCH   6   7
HETATM    7  N1  UNL     1      -9.464  -8.961  -8.653  1.00  0.00    -0.303 NA
HETATM    8  H5  UNL     1     -10.000  -8.309  -9.219  1.00  0.00     0.124 HD
HETATM    9  H6  UNL     1      -9.925  -9.180  -7.776  1.00  0.00     0.124 HD
ENDBRANCH   6   7
BRANCH   3  10
HETATM   10  O1  UNL     1      -4.141  -7.684  -7.712  1.00  0.00    -0.361 OA
HETATM   11  H7  UNL     1      -3.660  -8.521  -7.620  1.00  0.00     0.217 HD
ENDBRANCH   3  10
TORSDOF 2
ENDMDL
MODEL 20
REMARK VINA RESULT:      -2.4      3.161      4.071
REMARK  2 active torsions:
REMARK  status: ('A' for Active; 'I' for Inactive)
REMARK    1  A    between atoms: C3_3  and  O1_8 
REMARK    2  A    between atoms: C6_6  and  N1_7 
ROOT
HETATM    1  C1  UNL     1      -4.029 -10.213 -10.584  1.00  0.00     0.026 A 
HETATM    2  C2  UNL     1      -3.318  -9.372 -11.443  1.00  0.00     0.038 A 
HETATM    3  C3  UNL     1      -3.650  -8.026 -11.517  1.00  0.00     0.065 A 
HETATM    4  C4  UNL     1      -4.674  -7.505 -10.733  1.00  0.00     0.038 A 
HETATM    5  C5  UNL     1      -5.382  -8.354  -9.878  1.00  0.00     0.026 A 
HETATM    6  C6  UNL     1      -5.101  -9.723  -9.832  1.00  0.00     0.005 A 
ENDROOT
BRANCH   6   7
HETATM    7  N1  UNL     1      -5.732 -10.541  -8.888  1.00  0.00    -0.303 NA
HETATM    8  H5  UNL     1      -6.163 -10.027  -8.126  1.00  0.00     0.124 HD
HETATM    9  H6  UNL     1      -5.156 -11.309  -8.559  1.00  0.00     0.124 HD
ENDBRANCH   6   7
BRANCH   3  10
HETATM   10  O1  UNL     1      -2.932  -7.237 -12.365  1.00  0.00    -0.361 OA
HETATM   11  H7  UNL     1      -2.814  -7.711 -13.204  1.00  0.00     0.217 HD
ENDBRANCH   3  10
TORSDOF 2
ENDMDL
