MODEL 1
REMARK VINA RESULT:      -4.9      0.000      0.000
REMARK  2 active torsions:
REMARK  status: ('A' for Active; 'I' for Inactive)
REMARK    1  A    between atoms: C3_3  and  O1_8 
REMARK    2  A    between atoms: C6_6  and  N1_7 
ROOT
HETATM    1  C1  UNL     1       5.927  13.177  -1.579  1.00  0.00     0.026 A 
HETATM    2  C2  UNL     1       7.033  12.998  -0.745  1.00  0.00     0.038 A 
HETATM    3  C3  UNL     1       8.106  12.232  -1.180  1.00  0.00     0.065 A 
HETATM    4  C4  UNL     1       8.096  11.655  -2.445  1.00  0.00     0.038 A 
HETATM    5  C5  UNL     1       6.985  11.837  -3.273  1.00  0.00     0.026 A 
HETATM    6  C6  UNL     1       5.870  12.556  -2.830  1.00  0.00     0.005 A 
ENDROOT
BRANCH   6   7
HETATM    7  N1  UNL     1       4.816  12.833  -3.708  1.00  0.00    -0.303 NA
HETATM    8  H5  UNL     1       4.405  12.004  -4.126  1.00  0.00     0.124 HD
HETATM    9  H6  UNL     1       5.031  13.547  -4.396  1.00  0.00     0.124 HD
ENDBRANCH   6   7
BRANCH   3  10
HETATM   10  O1  UNL     1       9.167  12.084  -0.338  1.00  0.00    -0.361 OA
HETATM   11  H7  UNL     1       9.062  11.251   0.149  1.00  0.00     0.217 HD
ENDBRANCH   3  10
TORSDOF 2
ENDMDL
MODEL 2
REMARK VINA RESULT:      -4.9      0.074      1.705
REMARK  2 active torsions:
REMARK  status: ('A' for Active; 'I' for Inactive)
REMARK    1  A    between atoms: C3_3  and  O1_8 
REMARK    2  A    between atoms: C6_6  and  N1_7 
ROOT
HETATM    1  C1  UNL     1       6.980  11.866  -3.306  1.00  0.00     0.026 A 
HETATM    2  C2  UNL     1       8.071  11.663  -2.457  1.00  0.00     0.038 A 
HETATM    3  C3  UNL     1       8.074  12.234  -1.193  1.00  0.00     0.065 A 
HETATM    4  C4  UNL     1       6.993  12.994  -0.756  1.00  0.00     0.038 A 
HETATM    5  C5  UNL     1       5.906  13.194  -1.612  1.00  0.00     0.026 A 
HETATM    6  C6  UNL     1       5.910  12.675  -2.911  1.00  0.00     0.005 A 
ENDROOT
BRANCH   6   7
HETATM    7  N1  UNL     1       4.770  12.779  -3.715  1.00  0.00    -0.303 NA
HETATM    8  H5  UNL     1       4.665  13.686  -4.159  1.00  0.00     0.124 HD
HETATM    9  H6  UNL     1       3.917  12.472  -3.260  1.00  0.00     0.124 HD
ENDBRANCH   6   7
BRANCH   3  10
HETATM   10  O1  UNL     1       9.154  12.011  -0.394  1.00  0.00    -0.361 OA
HETATM   11  H7  UNL     1       9.630  11.233  -0.726  1.00  0.00     0.217 HD
ENDBRANCH   3  10
TORSDOF 2
ENDMDL
MODEL 3
REMARK VINA RESULT:      -4.9      2.782      3.684
REMARK  2 active torsions:
REMARK  status: ('A' for Active; 'I' for Inactive)
REMARK    1  A    between atoms: C3_3  and  O1_8 
REMARK    2  A    between atoms: C6_6  and  N1_7 
ROOT
HETATM    1  C1  UNL     1       7.969  11.739  -2.606  1.00  0.00     0.026 A 
HETATM    2  C2  UNL     1       6.856  11.950  -3.423  1.00  0.00     0.038 A 
HETATM    3  C3  UNL     1       5.769  12.661  -2.934  1.00  0.00     0.065 A 
HETATM    4  C4  UNL     1       5.784  13.180  -1.644  1.00  0.00     0.038 A 
HETATM    5  C5  UNL     1       6.901  12.964  -0.832  1.00  0.00     0.026 A 
HETATM    6  C6  UNL     1       7.981  12.200  -1.286  1.00  0.00     0.005 A 
ENDROOT
BRANCH   6   7
HETATM    7  N1  UNL     1       9.142  12.091  -0.511  1.00  0.00    -0.303 NA
HETATM    8  H5  UNL     1       9.688  11.259  -0.711  1.00  0.00     0.124 HD
HETATM    9  H6  UNL     1       8.986  12.222   0.482  1.00  0.00     0.124 HD
ENDBRANCH   6   7
BRANCH   3  10
HETATM   10  O1  UNL     1       4.703  12.847  -3.763  1.00  0.00    -0.361 OA
HETATM   11  H7  UNL     1       3.934  12.390  -3.386  1.00  0.00     0.217 HD
ENDBRANCH   3  10
TORSDOF 2
ENDMDL
MODEL 4
REMARK VINA RESULT:      -4.6      1.541      1.921
REMARK  2 active torsions:
REMARK  status: ('A' for Active; 'I' for Inactive)
REMARK    1  A    between atoms: C3_3  and  O1_8 
REMARK    2  A    between atoms: C6_6  and  N1_7 
ROOT
HETATM    1  C1  UNL     1       7.362  12.840  -0.915  1.00  0.00     0.026 A 
HETATM    2  C2  UNL     1       8.609  12.592  -1.493  1.00  0.00     0.038 A 
HETATM    3  C3  UNL     1       8.686  12.215  -2.826  1.00  0.00     0.065 A 
HETATM    4  C4  UNL     1       7.535  12.098  -3.597  1.00  0.00     0.038 A 
HETATM    5  C5  UNL     1       6.290  12.346  -3.011  1.00  0.00     0.026 A 
HETATM    6  C6  UNL     1       6.187  12.669  -1.654  1.00  0.00     0.005 A 
ENDROOT
BRANCH   6   7
HETATM    7  N1  UNL     1       4.951  13.032  -1.107  1.00  0.00    -0.303 NA
HETATM    8  H5  UNL     1       4.589  13.911  -1.464  1.00  0.00     0.124 HD
HETATM    9  H6  UNL     1       4.920  12.983  -0.095  1.00  0.00     0.124 HD
ENDBRANCH   6   7
BRANCH   3  10
HETATM   10  O1  UNL     1       9.921  11.986  -3.354  1.00  0.00    -0.361 OA
HETATM   11  H7  UNL     1      10.360  11.299  -2.828  1.00  0.00     0.217 HD
ENDBRANCH   3  10
TORSDOF 2
ENDMDL
MODEL 5
REMARK VINA RESULT:      -4.4     13.631     14.303
REMARK  2 active torsions:
REMARK  status: ('A' for Active; 'I' for Inactive)
REMARK    1  A    between atoms: C3_3  and  O1_8 
REMARK    2  A    between atoms: C6_6  and  N1_7 
ROOT
HETATM    1  C1  UNL     1      -3.330   2.255  -5.082  1.00  0.00     0.026 A 
HETATM    2  C2  UNL     1      -2.399   2.678  -4.132  1.00  0.00     0.038 A 
HETATM    3  C3  UNL     1      -2.708   3.736  -3.289  1.00  0.00     0.065 A 
HETATM    4  C4  UNL     1      -3.944   4.368  -3.371  1.00  0.00     0.038 A 
HETATM    5  C5  UNL     1      -4.871   3.941  -4.326  1.00  0.00     0.026 A 
HETATM    6  C6  UNL     1      -4.555   2.915  -5.223  1.00  0.00     0.005 A 
ENDROOT
BRANCH   6   7
HETATM    7  N1  UNL     1      -5.530   2.415  -6.094  1.00  0.00    -0.303 NA
HETATM    8  H5  UNL     1      -6.412   2.915  -6.048  1.00  0.00     0.124 HD
HETATM    9  H6  UNL     1      -5.652   1.410  -6.039  1.00  0.00     0.124 HD
ENDBRANCH   6   7
BRANCH   3  10
HETATM   10  O1  UNL     1      -1.774   4.116  -2.373  1.00  0.00    -0.361 OA
HETATM   11  H7  UNL     1      -2.223   4.574  -1.644  1.00  0.00     0.217 HD
ENDBRANCH   3  10
TORSDOF 2
ENDMDL
MODEL 6
REMARK VINA RESULT:      -4.3     14.014     14.778
REMARK  2 active torsions:
REMARK  status: ('A' for Active; 'I' for Inactive)
REMARK    1  A    between atoms: C3_3  and  O1_8 
REMARK    2  A    between atoms: C6_6  and  N1_7 
ROOT
HETATM    1  C1  UNL     1      -2.545   2.620  -4.441  1.00  0.00     0.026 A 
HETATM    2  C2  UNL     1      -3.481   2.290  -5.424  1.00  0.00     0.038 A 
HETATM    3  C3  UNL     1      -4.701   2.950  -5.461  1.00  0.00     0.065 A 
HETATM    4  C4  UNL     1      -4.994   3.949  -4.540  1.00  0.00     0.038 A 
HETATM    5  C5  UNL     1      -4.053   4.273  -3.558  1.00  0.00     0.026 A 
HETATM    6  C6  UNL     1      -2.842   3.578  -3.467  1.00  0.00     0.005 A 
ENDROOT
BRANCH   6   7
HETATM    7  N1  UNL     1      -1.860   3.989  -2.559  1.00  0.00    -0.303 NA
HETATM    8  H5  UNL     1      -1.680   4.988  -2.577  1.00  0.00     0.124 HD
HETATM    9  H6  UNL     1      -1.007   3.442  -2.602  1.00  0.00     0.124 HD
ENDBRANCH   6   7
BRANCH   3  10
HETATM   10  O1  UNL     1      -5.585   2.601  -6.437  1.00  0.00    -0.361 OA
HETATM   11  H7  UNL     1      -5.890   1.695  -6.269  1.00  0.00     0.217 HD
ENDBRANCH   3  10
TORSDOF 2
ENDMDL
MODEL 7
REMARK VINA RESULT:      -4.3     14.778     15.359
REMARK  2 active torsions:
REMARK  status: ('A' for Active; 'I' for Inactive)
REMARK    1  A    between atoms: C3_3  and  O1_8 
REMARK    2  A    between atoms: C6_6  and  N1_7 
ROOT
HETATM    1  C1  UNL     1      -3.886   0.417  -2.445  1.00  0.00     0.026 A 
HETATM    2  C2  UNL     1      -2.913   0.599  -3.430  1.00  0.00     0.038 A 
HETATM    3  C3  UNL     1      -2.650   1.875  -3.909  1.00  0.00     0.065 A 
HETATM    4  C4  UNL     1      -3.335   2.975  -3.406  1.00  0.00     0.038 A 
HETATM    5  C5  UNL     1      -4.309   2.785  -2.422  1.00  0.00     0.026 A 
HETATM    6  C6  UNL     1      -4.629   1.501  -1.968  1.00  0.00     0.005 A 
ENDROOT
BRANCH   6   7
HETATM    7  N1  UNL     1      -5.518   1.332  -0.900  1.00  0.00    -0.303 NA
HETATM    8  H5  UNL     1      -6.493   1.310  -1.181  1.00  0.00     0.124 HD
HETATM    9  H6  UNL     1      -5.353   1.966  -0.125  1.00  0.00     0.124 HD
ENDBRANCH   6   7
BRANCH   3  10
HETATM   10  O1  UNL     1      -1.691   2.011  -4.868  1.00  0.00    -0.361 OA
HETATM   11  H7  UNL     1      -1.225   2.850  -4.723  1.00  0.00     0.217 HD
ENDBRANCH   3  10
TORSDOF 2
ENDMDL
MODEL 8
REMARK VINA RESULT:      -4.2     14.557     15.169
REMARK  2 active torsions:
REMARK  status: ('A' for Active; 'I' for Inactive)
REMARK    1  A    between atoms: C3_3  and  O1_8 
REMARK    2  A    between atoms: C6_6  and  N1_7 
ROOT
HETATM    1  C1  UNL     1      -6.326   3.901  -0.483  1.00  0.00     0.026 A 
HETATM    2  C2  UNL     1      -6.446   5.233  -0.887  1.00  0.00     0.038 A 
HETATM    3  C3  UNL     1      -5.667   5.707  -1.933  1.00  0.00     0.065 A 
HETATM    4  C4  UNL     1      -4.780   4.865  -2.593  1.00  0.00     0.038 A 
HETATM    5  C5  UNL     1      -4.664   3.533  -2.183  1.00  0.00     0.026 A 
HETATM    6  C6  UNL     1      -5.398   3.052  -1.094  1.00  0.00     0.005 A 
ENDROOT
BRANCH   6   7
HETATM    7  N1  UNL     1      -5.364   1.692  -0.767  1.00  0.00    -0.303 NA
HETATM    8  H5  UNL     1      -5.901   1.458   0.063  1.00  0.00     0.124 HD
HETATM    9  H6  UNL     1      -4.430   1.298  -0.747  1.00  0.00     0.124 HD
ENDBRANCH   6   7
BRANCH   3  10
HETATM   10  O1  UNL     1      -5.815   7.012  -2.298  1.00  0.00    -0.361 OA
HETATM   11  H7  UNL     1      -6.587   7.377  -1.836  1.00  0.00     0.217 HD
ENDBRANCH   3  10
TORSDOF 2
ENDMDL
MODEL 9
REMARK VINA RESULT:      -4.2     14.881     15.409
REMARK  2 active torsions:
REMARK  status: ('A' for Active; 'I' for Inactive)
REMARK    1  A    between atoms: C3_3  and  O1_8 
REMARK    2  A    between atoms: C6_6  and  N1_7 
ROOT
HETATM    1  C1  UNL     1      -3.431   2.912  -3.345  1.00  0.00     0.026 A 
HETATM    2  C2  UNL     1      -4.388   2.646  -2.363  1.00  0.00     0.038 A 
HETATM    3  C3  UNL     1      -4.612   1.338  -1.957  1.00  0.00     0.065 A 
HETATM    4  C4  UNL     1      -3.880   0.291  -2.507  1.00  0.00     0.038 A 
HETATM    5  C5  UNL     1      -2.925   0.565  -3.491  1.00  0.00     0.026 A 
HETATM    6  C6  UNL     1      -2.726   1.870  -3.954  1.00  0.00     0.005 A 
ENDROOT
BRANCH   6   7
HETATM    7  N1  UNL     1      -1.688   2.149  -4.850  1.00  0.00    -0.303 NA
HETATM    8  H5  UNL     1      -0.763   1.967  -4.472  1.00  0.00     0.124 HD
HETATM    9  H6  UNL     1      -1.755   3.064  -5.283  1.00  0.00     0.124 HD
ENDBRANCH   6   7
BRANCH   3  10
HETATM   10  O1  UNL     1      -5.552   1.120  -0.995  1.00  0.00    -0.361 OA
HETATM   11  H7  UNL     1      -6.239   0.539  -1.360  1.00  0.00     0.217 HD
ENDBRANCH   3  10
TORSDOF 2
ENDMDL
MODEL 10
REMARK VINA RESULT:      -4.1     12.708     13.373
REMARK  2 active torsions:
REMARK  status: ('A' for Active; 'I' for Inactive)
REMARK    1  A    between atoms: C3_3  and  O1_8 
REMARK    2  A    between atoms: C6_6  and  N1_7 
ROOT
HETATM    1  C1  UNL     1      -5.451   6.007  -0.865  1.00  0.00     0.026 A 
HETATM    2  C2  UNL     1      -5.515   7.350  -1.244  1.00  0.00     0.038 A 
HETATM    3  C3  UNL     1      -4.751   8.292  -0.570  1.00  0.00     0.065 A 
HETATM    4  C4  UNL     1      -3.910   7.909   0.470  1.00  0.00     0.038 A 
HETATM    5  C5  UNL     1      -3.853   6.563   0.845  1.00  0.00     0.026 A 
HETATM    6  C6  UNL     1      -4.658   5.608   0.216  1.00  0.00     0.005 A 
ENDROOT
BRANCH   6   7
HETATM    7  N1  UNL     1      -4.506   4.250   0.517  1.00  0.00    -0.303 NA
HETATM    8  H5  UNL     1      -3.831   3.775  -0.074  1.00  0.00     0.124 HD
HETATM    9  H6  UNL     1      -5.383   3.744   0.585  1.00  0.00     0.124 HD
ENDBRANCH   6   7
BRANCH   3  10
HETATM   10  O1  UNL     1      -4.839   9.591  -0.971  1.00  0.00    -0.361 OA
HETATM   11  H7  UNL     1      -4.856   9.615  -1.941  1.00  0.00     0.217 HD
ENDBRANCH   3  10
TORSDOF 2
ENDMDL
MODEL 11
REMARK VINA RESULT:      -4.1     12.636     13.257
REMARK  2 active torsions:
REMARK  status: ('A' for Active; 'I' for Inactive)
REMARK    1  A    between atoms: C3_3  and  O1_8 
REMARK    2  A    between atoms: C6_6  and  N1_7 
ROOT
HETATM    1  C1  UNL     1      -5.392   7.075  -1.133  1.00  0.00     0.026 A 
HETATM    2  C2  UNL     1      -5.243   5.762  -0.681  1.00  0.00     0.038 A 
HETATM    3  C3  UNL     1      -4.461   5.505   0.436  1.00  0.00     0.065 A 
HETATM    4  C4  UNL     1      -3.839   6.543   1.120  1.00  0.00     0.038 A 
HETATM    5  C5  UNL     1      -3.992   7.855   0.660  1.00  0.00     0.026 A 
HETATM    6  C6  UNL     1      -4.727   8.128  -0.497  1.00  0.00     0.005 A 
ENDROOT
BRANCH   6   7
HETATM    7  N1  UNL     1      -4.974   9.452  -0.880  1.00  0.00    -0.303 NA
HETATM    8  H5  UNL     1      -5.821   9.841  -0.480  1.00  0.00     0.124 HD
HETATM    9  H6  UNL     1      -4.912   9.608  -1.881  1.00  0.00     0.124 HD
ENDBRANCH   6   7
BRANCH   3  10
HETATM   10  O1  UNL     1      -4.342   4.211   0.848  1.00  0.00    -0.361 OA
HETATM   11  H7  UNL     1      -3.889   3.706   0.154  1.00  0.00     0.217 HD
ENDBRANCH   3  10
TORSDOF 2
ENDMDL
MODEL 12
REMARK VINA RESULT:      -3.9     14.386     15.049
REMARK  2 active torsions:
REMARK  status: ('A' for Active; 'I' for Inactive)
REMARK    1  A    between atoms: C3_3  and  O1_8 
REMARK    2  A    between atoms: C6_6  and  N1_7 
ROOT
HETATM    1  C1  UNL     1      -4.801   4.922  -2.545  1.00  0.00     0.026 A 
HETATM    2  C2  UNL     1      -4.617   3.607  -2.114  1.00  0.00     0.038 A 
HETATM    3  C3  UNL     1      -5.335   3.134  -1.024  1.00  0.00     0.065 A 
HETATM    4  C4  UNL     1      -6.248   3.954  -0.369  1.00  0.00     0.038 A 
HETATM    5  C5  UNL     1      -6.425   5.270  -0.806  1.00  0.00     0.026 A 
HETATM    6  C6  UNL     1      -5.668   5.782  -1.864  1.00  0.00     0.005 A 
ENDROOT
BRANCH   6   7
HETATM    7  N1  UNL     1      -5.937   7.059  -2.370  1.00  0.00    -0.303 NA
HETATM    8  H5  UNL     1      -6.592   7.591  -1.805  1.00  0.00     0.124 HD
HETATM    9  H6  UNL     1      -6.180   7.068  -3.355  1.00  0.00     0.124 HD
ENDBRANCH   6   7
BRANCH   3  10
HETATM   10  O1  UNL     1      -5.131   1.845  -0.635  1.00  0.00    -0.361 OA
HETATM   11  H7  UNL     1      -5.993   1.415  -0.520  1.00  0.00     0.217 HD
ENDBRANCH   3  10
TORSDOF 2
ENDMDL
MODEL 13
REMARK VINA RESULT:      -3.9     14.828     15.416
REMARK  2 active torsions:
REMARK  status: ('A' for Active; 'I' for Inactive)
REMARK    1  A    between atoms: C3_3  and  O1_8 
REMARK    2  A    between atoms: C6_6  and  N1_7 
ROOT
HETATM    1  C1  UNL     1      -3.365   0.355  -5.514  1.00  0.00     0.026 A 
HETATM    2  C2  UNL     1      -3.795   0.094  -4.212  1.00  0.00     0.038 A 
HETATM    3  C3  UNL     1      -3.430   0.949  -3.182  1.00  0.00     0.065 A 
HETATM    4  C4  UNL     1      -2.653   2.074  -3.438  1.00  0.00     0.038 A 
HETATM    5  C5  UNL     1      -2.225   2.328  -4.744  1.00  0.00     0.026 A 
HETATM    6  C6  UNL     1      -2.534   1.446  -5.785  1.00  0.00     0.005 A 
ENDROOT
BRANCH   6   7
HETATM    7  N1  UNL     1      -2.203   1.771  -7.106  1.00  0.00    -0.303 NA
HETATM    8  H5  UNL     1      -1.996   2.755  -7.244  1.00  0.00     0.124 HD
HETATM    9  H6  UNL     1      -2.858   1.414  -7.792  1.00  0.00     0.124 HD
ENDBRANCH   6   7
BRANCH   3  10
HETATM   10  O1  UNL     1      -3.872   0.661  -1.926  1.00  0.00    -0.361 OA
HETATM   11  H7  UNL     1      -4.503  -0.074  -1.980  1.00  0.00     0.217 HD
ENDBRANCH   3  10
TORSDOF 2
ENDMDL
MODEL 14
REMARK VINA RESULT:      -3.9     14.785     15.368
REMARK  2 active torsions:
REMARK  status: ('A' for Active; 'I' for Inactive)
REMARK    1  A    between atoms: C3_3  and  O1_8 
REMARK    2  A    between atoms: C6_6  and  N1_7 
ROOT
HETATM    1  C1  UNL     1      -2.844   2.455  -3.583  1.00  0.00     0.026 A 
HETATM    2  C2  UNL     1      -2.214   2.459  -4.830  1.00  0.00     0.038 A 
HETATM    3  C3  UNL     1      -2.523   1.475  -5.758  1.00  0.00     0.065 A 
HETATM    4  C4  UNL     1      -3.464   0.495  -5.465  1.00  0.00     0.038 A 
HETATM    5  C5  UNL     1      -4.089   0.496  -4.215  1.00  0.00     0.026 A 
HETATM    6  C6  UNL     1      -3.749   1.445  -3.244  1.00  0.00     0.005 A 
ENDROOT
BRANCH   6   7
HETATM    7  N1  UNL     1      -4.463   1.511  -2.043  1.00  0.00    -0.303 NA
HETATM    8  H5  UNL     1      -4.245   2.329  -1.483  1.00  0.00     0.124 HD
HETATM    9  H6  UNL     1      -4.435   0.654  -1.501  1.00  0.00     0.124 HD
ENDBRANCH   6   7
BRANCH   3  10
HETATM   10  O1  UNL     1      -1.889   1.515  -6.964  1.00  0.00    -0.361 OA
HETATM   11  H7  UNL     1      -2.523   1.264  -7.655  1.00  0.00     0.217 HD
ENDBRANCH   3  10
TORSDOF 2
ENDMDL
MODEL 15
REMARK VINA RESULT:      -3.8     14.764     15.400
REMARK  2 active torsions:
REMARK  status: ('A' for Active; 'I' for Inactive)
REMARK    1  A    between atoms: C3_3  and  O1_8 
REMARK    2  A    between atoms: C6_6  and  N1_7 
ROOT
HETATM    1  C1  UNL     1      -2.187   2.439  -5.210  1.00  0.00     0.026 A 
HETATM    2  C2  UNL     1      -2.652   1.412  -6.035  1.00  0.00     0.038 A 
HETATM    3  C3  UNL     1      -3.377   0.364  -5.487  1.00  0.00     0.065 A 
HETATM    4  C4  UNL     1      -3.660   0.335  -4.125  1.00  0.00     0.038 A 
HETATM    5  C5  UNL     1      -3.190   1.366  -3.306  1.00  0.00     0.026 A 
HETATM    6  C6  UNL     1      -2.407   2.399  -3.830  1.00  0.00     0.005 A 
ENDROOT
BRANCH   6   7
HETATM    7  N1  UNL     1      -2.043   3.485  -3.026  1.00  0.00    -0.303 NA
HETATM    8  H5  UNL     1      -1.624   4.252  -3.542  1.00  0.00     0.124 HD
HETATM    9  H6  UNL     1      -1.501   3.227  -2.209  1.00  0.00     0.124 HD
ENDBRANCH   6   7
BRANCH   3  10
HETATM   10  O1  UNL     1      -3.816  -0.617  -6.325  1.00  0.00    -0.361 OA
HETATM   11  H7  UNL     1      -4.488  -0.241  -6.916  1.00  0.00     0.217 HD
ENDBRANCH   3  10
TORSDOF 2
ENDMDL
MODEL 16
REMARK VINA RESULT:      -3.8      1.967      2.591
REMARK  2 active torsions:
REMARK  status: ('A' for Active; 'I' for Inactive)
REMARK    1  A    between atoms: C3_3  and  O1_8 
REMARK    2  A    between atoms: C6_6  and  N1_7 
ROOT
HETATM    1  C1  UNL     1       8.562  13.376  -4.441  1.00  0.00     0.026 A 
HETATM    2  C2  UNL     1       8.866  12.735  -3.238  1.00  0.00     0.038 A 
HETATM    3  C3  UNL     1       7.894  11.977  -2.598  1.00  0.00     0.065 A 
HETATM    4  C4  UNL     1       6.627  11.837  -3.153  1.00  0.00     0.038 A 
HETATM    5  C5  UNL     1       6.330  12.484  -4.357  1.00  0.00     0.026 A 
HETATM    6  C6  UNL     1       7.277  13.299  -4.985  1.00  0.00     0.005 A 
ENDROOT
BRANCH   6   7
HETATM    7  N1  UNL     1       7.011  13.844  -6.247  1.00  0.00    -0.303 NA
HETATM    8  H5  UNL     1       7.192  13.203  -7.014  1.00  0.00     0.124 HD
HETATM    9  H6  UNL     1       7.431  14.755  -6.397  1.00  0.00     0.124 HD
ENDBRANCH   6   7
BRANCH   3  10
HETATM   10  O1  UNL     1       8.230  11.365  -1.428  1.00  0.00    -0.361 OA
HETATM   11  H7  UNL     1       8.154  10.404  -1.548  1.00  0.00     0.217 HD
ENDBRANCH   3  10
TORSDOF 2
ENDMDL
MODEL 17
REMARK VINA RESULT:      -3.8     14.994     15.523
REMARK  2 active torsions:
REMARK  status: ('A' for Active; 'I' for Inactive)
REMARK    1  A    between atoms: C3_3  and  O1_8 
REMARK    2  A    between atoms: C6_6  and  N1_7 
ROOT
HETATM    1  C1  UNL     1      -3.679  -0.006  -3.931  1.00  0.00     0.026 A 
HETATM    2  C2  UNL     1      -3.019   1.010  -3.237  1.00  0.00     0.038 A 
HETATM    3  C3  UNL     1      -2.360   2.009  -3.940  1.00  0.00     0.065 A 
HETATM    4  C4  UNL     1      -2.365   2.016  -5.330  1.00  0.00     0.038 A 
HETATM    5  C5  UNL     1      -3.027   0.995  -6.019  1.00  0.00     0.026 A 
HETATM    6  C6  UNL     1      -3.646  -0.051  -5.328  1.00  0.00     0.005 A 
ENDROOT
BRANCH   6   7
HETATM    7  N1  UNL     1      -4.406  -1.001  -6.021  1.00  0.00    -0.303 NA
HETATM    8  H5  UNL     1      -5.381  -1.027  -5.740  1.00  0.00     0.124 HD
HETATM    9  H6  UNL     1      -3.985  -1.924  -6.046  1.00  0.00     0.124 HD
ENDBRANCH   6   7
BRANCH   3  10
HETATM   10  O1  UNL     1      -1.731   2.984  -3.226  1.00  0.00    -0.361 OA
HETATM   11  H7  UNL     1      -0.979   3.311  -3.745  1.00  0.00     0.217 HD
ENDBRANCH   3  10
TORSDOF 2
ENDMDL
MODEL 18
REMARK VINA RESULT:      -3.7     13.941     14.462
REMARK  2 active torsions:
REMARK  status: ('A' for Active; 'I' for Inactive)
REMARK    1  A    between atoms: C3_3  and  O1_8 
REMARK    2  A    between atoms: C6_6  and  N1_7 
ROOT
HETATM    1  C1  UNL     1      -0.183   2.950 -10.242  1.00  0.00     0.026 A 
HETATM    2  C2  UNL     1       0.301   1.641 -10.217  1.00  0.00     0.038 A 
HETATM    3  C3  UNL     1       1.581   1.371 -10.682  1.00  0.00     0.065 A 
HETATM    4  C4  UNL     1       2.392   2.396 -11.157  1.00  0.00     0.038 A 
HETATM    5  C5  UNL     1       1.900   3.704 -11.180  1.00  0.00     0.026 A 
HETATM    6  C6  UNL     1       0.593   3.987 -10.771  1.00  0.00     0.005 A 
ENDROOT
BRANCH   6   7
HETATM    7  N1  UNL     1       0.152   5.312 -10.686  1.00  0.00    -0.303 NA
HETATM    8  H5  UNL     1      -0.713   5.487 -11.190  1.00  0.00     0.124 HD
HETATM    9  H6  UNL     1       0.868   5.998 -10.899  1.00  0.00     0.124 HD
ENDBRANCH   6   7
BRANCH   3  10
HETATM   10  O1  UNL     1       2.018   0.081 -10.638  1.00  0.00    -0.361 OA
HETATM   11  H7  UNL     1       1.711  -0.377 -11.436  1.00  0.00     0.217 HD
ENDBRANCH   3  10
TORSDOF 2
ENDMDL
MODEL 19
REMARK VINA RESULT:      -3.7     15.493     16.020
REMARK  2 active torsions:
REMARK  status: ('A' for Active; 'I' for Inactive)
REMARK    1  A    between atoms: C3_3  and  O1_8 
REMARK    2  A    between atoms: C6_6  and  N1_7 
ROOT
HETATM    1  C1  UNL     1      -3.666   2.203  -4.651  1.00  0.00     0.026 A 
HETATM    2  C2  UNL     1      -3.000   1.691  -3.535  1.00  0.00     0.038 A 
HETATM    3  C3  UNL     1      -3.133   0.348  -3.210  1.00  0.00     0.065 A 
HETATM    4  C4  UNL     1      -3.910  -0.496  -3.995  1.00  0.00     0.038 A 
HETATM    5  C5  UNL     1      -4.574   0.023  -5.110  1.00  0.00     0.026 A 
HETATM    6  C6  UNL     1      -4.500   1.385  -5.420  1.00  0.00     0.005 A 
ENDROOT
BRANCH   6   7
HETATM    7  N1  UNL     1      -5.070   1.872  -6.602  1.00  0.00    -0.303 NA
HETATM    8  H5  UNL     1      -5.369   1.142  -7.241  1.00  0.00     0.124 HD
HETATM    9  H6  UNL     1      -4.514   2.585  -7.062  1.00  0.00     0.124 HD
ENDBRANCH   6   7
BRANCH   3  10
HETATM   10  O1  UNL     1      -2.465  -0.113  -2.116  1.00  0.00    -0.361 OA
HETATM   11  H7  UNL     1      -3.087  -0.610  -1.560  1.00  0.00     0.217 HD
ENDBRANCH   3  10
TORSDOF 2
ENDMDL
MODEL 20
REMARK VINA RESULT:      -3.7     15.246     15.933
REMARK  2 active torsions:
REMARK  status: ('A' for Active; 'I' for Inactive)
REMARK    1  A    between atoms: C3_3  and  O1_8 
REMARK    2  A    between atoms: C6_6  and  N1_7 
ROOT
HETATM    1  C1  UNL     1      -3.967   1.543  -7.726  1.00  0.00     0.026 A 
HETATM    2  C2  UNL     1      -4.985   2.239  -7.071  1.00  0.00     0.038 A 
HETATM    3  C3  UNL     1      -4.793   2.671  -5.766  1.00  0.00     0.065 A 
HETATM    4  C4  UNL     1      -3.591   2.431  -5.111  1.00  0.00     0.038 A 
HETATM    5  C5  UNL     1      -2.577   1.732  -5.773  1.00  0.00     0.026 A 
HETATM    6  C6  UNL     1      -2.773   1.238  -7.066  1.00  0.00     0.005 A 
ENDROOT
BRANCH   6   7
HETATM    7  N1  UNL     1      -1.714   0.645  -7.763  1.00  0.00    -0.303 NA
HETATM    8  H5  UNL     1      -1.703  -0.368  -7.704  1.00  0.00     0.124 HD
HETATM    9  H6  UNL     1      -0.808   1.054  -7.557  1.00  0.00     0.124 HD
ENDBRANCH   6   7
BRANCH   3  10
HETATM   10  O1  UNL     1      -5.809   3.350  -5.162  1.00  0.00    -0.361 OA
HETATM   11  H7  UNL     1      -6.071   2.867  -4.362  1.00  0.00     0.217 HD
ENDBRANCH   3  10
TORSDOF 2
ENDMDL
