MODEL 1
REMARK VINA RESULT:      -3.7      0.000      0.000
REMARK  2 active torsions:
REMARK  status: ('A' for Active; 'I' for Inactive)
REMARK    1  A    between atoms: C3_3  and  O1_8 
REMARK    2  A    between atoms: C6_6  and  N1_7 
ROOT
HETATM    1  C1  UNL     1       6.480   9.229  -3.943  1.00  0.00     0.026 A 
HETATM    2  C2  UNL     1       7.158   9.539  -2.762  1.00  0.00     0.038 A 
HETATM    3  C3  UNL     1       6.456   9.627  -1.569  1.00  0.00     0.065 A 
HETATM    4  C4  UNL     1       5.085   9.394  -1.535  1.00  0.00     0.038 A 
HETATM    5  C5  UNL     1       4.413   9.086  -2.721  1.00  0.00     0.026 A 
HETATM    6  C6  UNL     1       5.093   9.050  -3.943  1.00  0.00     0.005 A 
ENDROOT
BRANCH   6   7
HETATM    7  N1  UNL     1       4.436   8.625  -5.103  1.00  0.00    -0.303 NA
HETATM    8  H5  UNL     1       5.047   8.167  -5.773  1.00  0.00     0.124 HD
HETATM    9  H6  UNL     1       3.858   9.339  -5.532  1.00  0.00     0.124 HD
ENDBRANCH   6   7
BRANCH   3  10
HETATM   10  O1  UNL     1       7.154   9.929  -0.438  1.00  0.00    -0.361 OA
HETATM   11  H7  UNL     1       6.607  10.506   0.119  1.00  0.00     0.217 HD
ENDBRANCH   3  10
TORSDOF 2
ENDMDL
MODEL 2
REMARK VINA RESULT:      -3.3      4.775      5.758
REMARK  2 active torsions:
REMARK  status: ('A' for Active; 'I' for Inactive)
REMARK    1  A    between atoms: C3_3  and  O1_8 
REMARK    2  A    between atoms: C6_6  and  N1_7 
ROOT
HETATM    1  C1  UNL     1       9.132   9.804  -1.180  1.00  0.00     0.026 A 
HETATM    2  C2  UNL     1      10.187   8.952  -1.513  1.00  0.00     0.038 A 
HETATM    3  C3  UNL     1      11.481   9.280  -1.136  1.00  0.00     0.065 A 
HETATM    4  C4  UNL     1      11.735  10.441  -0.414  1.00  0.00     0.038 A 
HETATM    5  C5  UNL     1      10.674  11.290  -0.085  1.00  0.00     0.026 A 
HETATM    6  C6  UNL     1       9.372  11.006  -0.508  1.00  0.00     0.005 A 
ENDROOT
BRANCH   6   7
HETATM    7  N1  UNL     1       8.302  11.797  -0.073  1.00  0.00    -0.303 NA
HETATM    8  H5  UNL     1       8.459  12.794  -0.186  1.00  0.00     0.124 HD
HETATM    9  H6  UNL     1       7.968  11.561   0.856  1.00  0.00     0.124 HD
ENDBRANCH   6   7
BRANCH   3  10
HETATM   10  O1  UNL     1      12.483   8.421  -1.477  1.00  0.00    -0.361 OA
HETATM   11  H7  UNL     1      12.635   8.488  -2.434  1.00  0.00     0.217 HD
ENDBRANCH   3  10
TORSDOF 2
ENDMDL
MODEL 3
REMARK VINA RESULT:      -3.3      4.485      5.278
REMARK  2 active torsions:
REMARK  status: ('A' for Active; 'I' for Inactive)
REMARK    1  A    between atoms: C3_3  and  O1_8 
REMARK    2  A    between atoms: C6_6  and  N1_7 
ROOT
HETATM    1  C1  UNL     1      10.444  12.604  -1.495  1.00  0.00     0.026 A 
HETATM    2  C2  UNL     1      11.373  11.751  -0.893  1.00  0.00     0.038 A 
HETATM    3  C3  UNL     1      11.001  10.457  -0.559  1.00  0.00     0.065 A 
HETATM    4  C4  UNL     1       9.719   9.995  -0.833  1.00  0.00     0.038 A 
HETATM    5  C5  UNL     1       8.794  10.855  -1.434  1.00  0.00     0.026 A 
HETATM    6  C6  UNL     1       9.132  12.181  -1.724  1.00  0.00     0.005 A 
ENDROOT
BRANCH   6   7
HETATM    7  N1  UNL     1       8.241  12.996  -2.432  1.00  0.00    -0.303 NA
HETATM    8  H5  UNL     1       7.376  12.529  -2.688  1.00  0.00     0.124 HD
HETATM    9  H6  UNL     1       8.664  13.481  -3.216  1.00  0.00     0.124 HD
ENDBRANCH   6   7
BRANCH   3  10
HETATM   10  O1  UNL     1      11.936   9.655   0.023  1.00  0.00    -0.361 OA
HETATM   11  H7  UNL     1      12.812  10.050  -0.113  1.00  0.00     0.217 HD
ENDBRANCH   3  10
TORSDOF 2
ENDMDL
MODEL 4
REMARK VINA RESULT:      -3.3      4.924      5.956
REMARK  2 active torsions:
REMARK  status: ('A' for Active; 'I' for Inactive)
REMARK    1  A    between atoms: C3_3  and  O1_8 
REMARK    2  A    between atoms: C6_6  and  N1_7 
ROOT
HETATM    1  C1  UNL     1       9.696  10.077  -0.857  1.00  0.00     0.026 A 
HETATM    2  C2  UNL     1       8.755  10.928  -1.441  1.00  0.00     0.038 A 
HETATM    3  C3  UNL     1       9.115  12.225  -1.776  1.00  0.00     0.065 A 
HETATM    4  C4  UNL     1      10.409  12.681  -1.550  1.00  0.00     0.038 A 
HETATM    5  C5  UNL     1      11.346  11.824  -0.965  1.00  0.00     0.026 A 
HETATM    6  C6  UNL     1      10.985  10.532  -0.567  1.00  0.00     0.005 A 
ENDROOT
BRANCH   6   7
HETATM    7  N1  UNL     1      11.957   9.644  -0.093  1.00  0.00    -0.303 NA
HETATM    8  H5  UNL     1      11.802   9.342   0.864  1.00  0.00     0.124 HD
HETATM    9  H6  UNL     1      12.910   9.956  -0.249  1.00  0.00     0.124 HD
ENDBRANCH   6   7
BRANCH   3  10
HETATM   10  O1  UNL     1       8.169  13.024  -2.345  1.00  0.00    -0.361 OA
HETATM   11  H7  UNL     1       7.299  12.613  -2.217  1.00  0.00     0.217 HD
ENDBRANCH   3  10
TORSDOF 2
ENDMDL
MODEL 5
REMARK VINA RESULT:      -3.2      4.808      5.706
REMARK  2 active torsions:
REMARK  status: ('A' for Active; 'I' for Inactive)
REMARK    1  A    between atoms: C3_3  and  O1_8 
REMARK    2  A    between atoms: C6_6  and  N1_7 
ROOT
HETATM    1  C1  UNL     1      11.687  10.558  -0.387  1.00  0.00     0.026 A 
HETATM    2  C2  UNL     1      10.610  11.376  -0.037  1.00  0.00     0.038 A 
HETATM    3  C3  UNL     1       9.323  11.018  -0.413  1.00  0.00     0.065 A 
HETATM    4  C4  UNL     1       9.094   9.843  -1.121  1.00  0.00     0.038 A 
HETATM    5  C5  UNL     1      10.176   9.030  -1.469  1.00  0.00     0.026 A 
HETATM    6  C6  UNL     1      11.486   9.404  -1.151  1.00  0.00     0.005 A 
ENDROOT
BRANCH   6   7
HETATM    7  N1  UNL     1      12.549   8.528  -1.397  1.00  0.00    -0.303 NA
HETATM    8  H5  UNL     1      12.267   7.660  -1.843  1.00  0.00     0.124 HD
HETATM    9  H6  UNL     1      13.148   8.372  -0.593  1.00  0.00     0.124 HD
ENDBRANCH   6   7
BRANCH   3  10
HETATM   10  O1  UNL     1       8.300  11.841  -0.050  1.00  0.00    -0.361 OA
HETATM   11  H7  UNL     1       8.674  12.675   0.275  1.00  0.00     0.217 HD
ENDBRANCH   3  10
TORSDOF 2
ENDMDL
MODEL 6
REMARK VINA RESULT:      -3.2      4.816      5.672
REMARK  2 active torsions:
REMARK  status: ('A' for Active; 'I' for Inactive)
REMARK    1  A    between atoms: C3_3  and  O1_8 
REMARK    2  A    between atoms: C6_6  and  N1_7 
ROOT
HETATM    1  C1  UNL     1      11.289  11.694  -1.202  1.00  0.00     0.026 A 
HETATM    2  C2  UNL     1      10.342  12.547  -1.773  1.00  0.00     0.038 A 
HETATM    3  C3  UNL     1       9.018  12.141  -1.866  1.00  0.00     0.065 A 
HETATM    4  C4  UNL     1       8.623  10.899  -1.382  1.00  0.00     0.038 A 
HETATM    5  C5  UNL     1       9.576  10.050  -0.813  1.00  0.00     0.026 A 
HETATM    6  C6  UNL     1      10.925  10.417  -0.763  1.00  0.00     0.005 A 
ENDROOT
BRANCH   6   7
HETATM    7  N1  UNL     1      11.850   9.614  -0.086  1.00  0.00    -0.303 NA
HETATM    8  H5  UNL     1      12.061   9.938   0.853  1.00  0.00     0.124 HD
HETATM    9  H6  UNL     1      12.687   9.411  -0.621  1.00  0.00     0.124 HD
ENDBRANCH   6   7
BRANCH   3  10
HETATM   10  O1  UNL     1       8.124  13.002  -2.428  1.00  0.00    -0.361 OA
HETATM   11  H7  UNL     1       8.366  13.908  -2.175  1.00  0.00     0.217 HD
ENDBRANCH   3  10
TORSDOF 2
ENDMDL
MODEL 7
REMARK VINA RESULT:      -3.1      5.402      6.228
REMARK  2 active torsions:
REMARK  status: ('A' for Active; 'I' for Inactive)
REMARK    1  A    between atoms: C3_3  and  O1_8 
REMARK    2  A    between atoms: C6_6  and  N1_7 
ROOT
HETATM    1  C1  UNL     1      11.159  12.708  -0.780  1.00  0.00     0.026 A 
HETATM    2  C2  UNL     1      10.898  13.390  -1.970  1.00  0.00     0.038 A 
HETATM    3  C3  UNL     1       9.696  13.185  -2.631  1.00  0.00     0.065 A 
HETATM    4  C4  UNL     1       8.741  12.319  -2.111  1.00  0.00     0.038 A 
HETATM    5  C5  UNL     1       9.009  11.638  -0.920  1.00  0.00     0.026 A 
HETATM    6  C6  UNL     1      10.239  11.787  -0.270  1.00  0.00     0.005 A 
ENDROOT
BRANCH   6   7
HETATM    7  N1  UNL     1      10.452  11.195   0.980  1.00  0.00    -0.303 NA
HETATM    8  H5  UNL     1       9.597  10.898   1.441  1.00  0.00     0.124 HD
HETATM    9  H6  UNL     1      11.053  11.735   1.593  1.00  0.00     0.124 HD
ENDBRANCH   6   7
BRANCH   3  10
HETATM   10  O1  UNL     1       9.478  13.872  -3.788  1.00  0.00    -0.361 OA
HETATM   11  H7  UNL     1      10.013  13.471  -4.492  1.00  0.00     0.217 HD
ENDBRANCH   3  10
TORSDOF 2
ENDMDL
MODEL 8
REMARK VINA RESULT:      -3.1      2.341      2.731
REMARK  2 active torsions:
REMARK  status: ('A' for Active; 'I' for Inactive)
REMARK    1  A    between atoms: C3_3  and  O1_8 
REMARK    2  A    between atoms: C6_6  and  N1_7 
ROOT
HETATM    1  C1  UNL     1       8.158  11.916  -2.895  1.00  0.00     0.026 A 
HETATM    2  C2  UNL     1       8.433  11.036  -1.846  1.00  0.00     0.038 A 
HETATM    3  C3  UNL     1       7.586   9.963  -1.608  1.00  0.00     0.065 A 
HETATM    4  C4  UNL     1       6.475   9.745  -2.415  1.00  0.00     0.038 A 
HETATM    5  C5  UNL     1       6.205  10.631  -3.463  1.00  0.00     0.026 A 
HETATM    6  C6  UNL     1       7.013  11.751  -3.681  1.00  0.00     0.005 A 
ENDROOT
BRANCH   6   7
HETATM    7  N1  UNL     1       6.805  12.563  -4.802  1.00  0.00    -0.303 NA
HETATM    8  H5  UNL     1       6.687  12.043  -5.666  1.00  0.00     0.124 HD
HETATM    9  H6  UNL     1       7.477  13.316  -4.894  1.00  0.00     0.124 HD
ENDBRANCH   6   7
BRANCH   3  10
HETATM   10  O1  UNL     1       7.890   9.125  -0.577  1.00  0.00    -0.361 OA
HETATM   11  H7  UNL     1       7.210   8.434  -0.528  1.00  0.00     0.217 HD
ENDBRANCH   3  10
TORSDOF 2
ENDMDL
MODEL 9
REMARK VINA RESULT:      -3.0      3.469      4.140
REMARK  2 active torsions:
REMARK  status: ('A' for Active; 'I' for Inactive)
REMARK    1  A    between atoms: C3_3  and  O1_8 
REMARK    2  A    between atoms: C6_6  and  N1_7 
ROOT
HETATM    1  C1  UNL     1       9.784  10.114  -2.360  1.00  0.00     0.026 A 
HETATM    2  C2  UNL     1       8.581  10.740  -2.694  1.00  0.00     0.038 A 
HETATM    3  C3  UNL     1       7.380  10.201  -2.254  1.00  0.00     0.065 A 
HETATM    4  C4  UNL     1       7.365   9.053  -1.470  1.00  0.00     0.038 A 
HETATM    5  C5  UNL     1       8.573   8.431  -1.141  1.00  0.00     0.026 A 
HETATM    6  C6  UNL     1       9.789   8.925  -1.624  1.00  0.00     0.005 A 
ENDROOT
BRANCH   6   7
HETATM    7  N1  UNL     1      10.997   8.367  -1.192  1.00  0.00    -0.303 NA
HETATM    8  H5  UNL     1      11.356   7.645  -1.809  1.00  0.00     0.124 HD
HETATM    9  H6  UNL     1      10.992   8.077  -0.220  1.00  0.00     0.124 HD
ENDBRANCH   6   7
BRANCH   3  10
HETATM   10  O1  UNL     1       6.228  10.843  -2.598  1.00  0.00    -0.361 OA
HETATM   11  H7  UNL     1       5.501  10.200  -2.587  1.00  0.00     0.217 HD
ENDBRANCH   3  10
TORSDOF 2
ENDMDL
MODEL 10
REMARK VINA RESULT:      -3.0      3.582      4.286
REMARK  2 active torsions:
REMARK  status: ('A' for Active; 'I' for Inactive)
REMARK    1  A    between atoms: C3_3  and  O1_8 
REMARK    2  A    between atoms: C6_6  and  N1_7 
ROOT
HETATM    1  C1  UNL     1       9.630  10.882  -1.857  1.00  0.00     0.026 A 
HETATM    2  C2  UNL     1       9.747  10.008  -2.941  1.00  0.00     0.038 A 
HETATM    3  C3  UNL     1       8.741   9.087  -3.193  1.00  0.00     0.065 A 
HETATM    4  C4  UNL     1       7.609   9.036  -2.387  1.00  0.00     0.038 A 
HETATM    5  C5  UNL     1       7.499   9.912  -1.303  1.00  0.00     0.026 A 
HETATM    6  C6  UNL     1       8.529  10.808  -0.998  1.00  0.00     0.005 A 
ENDROOT
BRANCH   6   7
HETATM    7  N1  UNL     1       8.359  11.760   0.014  1.00  0.00    -0.303 NA
HETATM    8  H5  UNL     1       7.656  12.460  -0.200  1.00  0.00     0.124 HD
HETATM    9  H6  UNL     1       9.227  12.170   0.341  1.00  0.00     0.124 HD
ENDBRANCH   6   7
BRANCH   3  10
HETATM   10  O1  UNL     1       8.891   8.254  -4.261  1.00  0.00    -0.361 OA
HETATM   11  H7  UNL     1       8.053   7.789  -4.411  1.00  0.00     0.217 HD
ENDBRANCH   3  10
TORSDOF 2
ENDMDL
MODEL 11
REMARK VINA RESULT:      -3.0      6.599      7.381
REMARK  2 active torsions:
REMARK  status: ('A' for Active; 'I' for Inactive)
REMARK    1  A    between atoms: C3_3  and  O1_8 
REMARK    2  A    between atoms: C6_6  and  N1_7 
ROOT
HETATM    1  C1  UNL     1      11.582  12.601   0.055  1.00  0.00     0.026 A 
HETATM    2  C2  UNL     1      12.909  12.404  -0.333  1.00  0.00     0.038 A 
HETATM    3  C3  UNL     1      13.345  11.131  -0.672  1.00  0.00     0.065 A 
HETATM    4  C4  UNL     1      12.468  10.052  -0.644  1.00  0.00     0.038 A 
HETATM    5  C5  UNL     1      11.142  10.257  -0.253  1.00  0.00     0.026 A 
HETATM    6  C6  UNL     1      10.699  11.522   0.149  1.00  0.00     0.005 A 
ENDROOT
BRANCH   6   7
HETATM    7  N1  UNL     1       9.344  11.740   0.423  1.00  0.00    -0.303 NA
HETATM    8  H5  UNL     1       8.717  11.227  -0.188  1.00  0.00     0.124 HD
HETATM    9  H6  UNL     1       9.094  12.720   0.499  1.00  0.00     0.124 HD
ENDBRANCH   6   7
BRANCH   3  10
HETATM   10  O1  UNL     1      14.646  10.980  -1.048  1.00  0.00    -0.361 OA
HETATM   11  H7  UNL     1      14.988  10.161  -0.657  1.00  0.00     0.217 HD
ENDBRANCH   3  10
TORSDOF 2
ENDMDL
MODEL 12
REMARK VINA RESULT:      -3.0      2.492      2.732
REMARK  2 active torsions:
REMARK  status: ('A' for Active; 'I' for Inactive)
REMARK    1  A    between atoms: C3_3  and  O1_8 
REMARK    2  A    between atoms: C6_6  and  N1_7 
ROOT
HETATM    1  C1  UNL     1       7.198  10.791  -3.194  1.00  0.00     0.026 A 
HETATM    2  C2  UNL     1       6.557   9.850  -2.385  1.00  0.00     0.038 A 
HETATM    3  C3  UNL     1       5.172   9.770  -2.388  1.00  0.00     0.065 A 
HETATM    4  C4  UNL     1       4.416  10.607  -3.201  1.00  0.00     0.038 A 
HETATM    5  C5  UNL     1       5.065  11.548  -4.007  1.00  0.00     0.026 A 
HETATM    6  C6  UNL     1       6.456  11.683  -3.974  1.00  0.00     0.005 A 
ENDROOT
BRANCH   6   7
HETATM    7  N1  UNL     1       7.102  12.543  -4.870  1.00  0.00    -0.303 NA
HETATM    8  H5  UNL     1       6.805  13.511  -4.792  1.00  0.00     0.124 HD
HETATM    9  H6  UNL     1       7.100  12.213  -5.829  1.00  0.00     0.124 HD
ENDBRANCH   6   7
BRANCH   3  10
HETATM   10  O1  UNL     1       4.584   8.837  -1.587  1.00  0.00    -0.361 OA
HETATM   11  H7  UNL     1       4.550   7.994  -2.068  1.00  0.00     0.217 HD
ENDBRANCH   3  10
TORSDOF 2
ENDMDL
MODEL 13
REMARK VINA RESULT:      -3.0      3.115      3.464
REMARK  2 active torsions:
REMARK  status: ('A' for Active; 'I' for Inactive)
REMARK    1  A    between atoms: C3_3  and  O1_8 
REMARK    2  A    between atoms: C6_6  and  N1_7 
ROOT
HETATM    1  C1  UNL     1       9.498  10.705  -3.194  1.00  0.00     0.026 A 
HETATM    2  C2  UNL     1       9.250  11.510  -2.080  1.00  0.00     0.038 A 
HETATM    3  C3  UNL     1       8.500  11.010  -1.024  1.00  0.00     0.065 A 
HETATM    4  C4  UNL     1       8.008   9.710  -1.058  1.00  0.00     0.038 A 
HETATM    5  C5  UNL     1       8.260   8.911  -2.177  1.00  0.00     0.026 A 
HETATM    6  C6  UNL     1       8.963   9.416  -3.276  1.00  0.00     0.005 A 
ENDROOT
BRANCH   6   7
HETATM    7  N1  UNL     1       9.312   8.573  -4.337  1.00  0.00    -0.303 NA
HETATM    8  H5  UNL     1       9.149   8.981  -5.252  1.00  0.00     0.124 HD
HETATM    9  H6  UNL     1       8.931   7.636  -4.259  1.00  0.00     0.124 HD
ENDBRANCH   6   7
BRANCH   3  10
HETATM   10  O1  UNL     1       8.282  11.826   0.045  1.00  0.00    -0.361 OA
HETATM   11  H7  UNL     1       8.713  12.679  -0.122  1.00  0.00     0.217 HD
ENDBRANCH   3  10
TORSDOF 2
ENDMDL
MODEL 14
REMARK VINA RESULT:      -2.9      3.959      4.625
REMARK  2 active torsions:
REMARK  status: ('A' for Active; 'I' for Inactive)
REMARK    1  A    between atoms: C3_3  and  O1_8 
REMARK    2  A    between atoms: C6_6  and  N1_7 
ROOT
HETATM    1  C1  UNL     1       9.334   8.993  -2.018  1.00  0.00     0.026 A 
HETATM    2  C2  UNL     1       8.621   9.733  -1.072  1.00  0.00     0.038 A 
HETATM    3  C3  UNL     1       8.860  11.094  -0.941  1.00  0.00     0.065 A 
HETATM    4  C4  UNL     1       9.791  11.730  -1.754  1.00  0.00     0.038 A 
HETATM    5  C5  UNL     1      10.502  10.983  -2.698  1.00  0.00     0.026 A 
HETATM    6  C6  UNL     1      10.318   9.601  -2.804  1.00  0.00     0.005 A 
ENDROOT
BRANCH   6   7
HETATM    7  N1  UNL     1      10.945   8.883  -3.829  1.00  0.00    -0.303 NA
HETATM    8  H5  UNL     1      10.770   7.883  -3.793  1.00  0.00     0.124 HD
HETATM    9  H6  UNL     1      11.930   9.099  -3.938  1.00  0.00     0.124 HD
ENDBRANCH   6   7
BRANCH   3  10
HETATM   10  O1  UNL     1       8.142  11.781  -0.009  1.00  0.00    -0.361 OA
HETATM   11  H7  UNL     1       8.732  12.412   0.433  1.00  0.00     0.217 HD
ENDBRANCH   3  10
TORSDOF 2
ENDMDL
MODEL 15
REMARK VINA RESULT:      -2.8      6.239      6.908
REMARK  2 active torsions:
REMARK  status: ('A' for Active; 'I' for Inactive)
REMARK    1  A    between atoms: C3_3  and  O1_8 
REMARK    2  A    between atoms: C6_6  and  N1_7 
ROOT
HETATM    1  C1  UNL     1      12.396  12.841  -1.111  1.00  0.00     0.026 A 
HETATM    2  C2  UNL     1      11.692  12.825   0.095  1.00  0.00     0.038 A 
HETATM    3  C3  UNL     1      10.905  11.729   0.418  1.00  0.00     0.065 A 
HETATM    4  C4  UNL     1      10.823  10.639  -0.442  1.00  0.00     0.038 A 
HETATM    5  C5  UNL     1      11.530  10.663  -1.648  1.00  0.00     0.026 A 
HETATM    6  C6  UNL     1      12.281  11.783  -2.017  1.00  0.00     0.005 A 
ENDROOT
BRANCH   6   7
HETATM    7  N1  UNL     1      13.078  11.749  -3.167  1.00  0.00    -0.303 NA
HETATM    8  H5  UNL     1      12.769  11.071  -3.857  1.00  0.00     0.124 HD
HETATM    9  H6  UNL     1      14.072  11.680  -2.976  1.00  0.00     0.124 HD
ENDBRANCH   6   7
BRANCH   3  10
HETATM   10  O1  UNL     1      10.236  11.750   1.605  1.00  0.00    -0.361 OA
HETATM   11  H7  UNL     1      10.735  11.225   2.251  1.00  0.00     0.217 HD
ENDBRANCH   3  10
TORSDOF 2
ENDMDL
MODEL 16
REMARK VINA RESULT:      -2.8      5.210      5.881
REMARK  2 active torsions:
REMARK  status: ('A' for Active; 'I' for Inactive)
REMARK    1  A    between atoms: C3_3  and  O1_8 
REMARK    2  A    between atoms: C6_6  and  N1_7 
ROOT
HETATM    1  C1  UNL     1      10.481  11.513  -0.826  1.00  0.00     0.026 A 
HETATM    2  C2  UNL     1      11.427  11.737  -1.829  1.00  0.00     0.038 A 
HETATM    3  C3  UNL     1      11.037  12.323  -3.024  1.00  0.00     0.065 A 
HETATM    4  C4  UNL     1       9.716  12.706  -3.226  1.00  0.00     0.038 A 
HETATM    5  C5  UNL     1       8.774  12.478  -2.218  1.00  0.00     0.026 A 
HETATM    6  C6  UNL     1       9.136  11.835  -1.030  1.00  0.00     0.005 A 
ENDROOT
BRANCH   6   7
HETATM    7  N1  UNL     1       8.216  11.720   0.017  1.00  0.00    -0.303 NA
HETATM    8  H5  UNL     1       7.321  12.158  -0.176  1.00  0.00     0.124 HD
HETATM    9  H6  UNL     1       8.589  11.985   0.922  1.00  0.00     0.124 HD
ENDBRANCH   6   7
BRANCH   3  10
HETATM   10  O1  UNL     1      11.990  12.527  -3.976  1.00  0.00    -0.361 OA
HETATM   11  H7  UNL     1      12.737  11.933  -3.799  1.00  0.00     0.217 HD
ENDBRANCH   3  10
TORSDOF 2
ENDMDL
MODEL 17
REMARK VINA RESULT:      -2.8      8.718      9.533
REMARK  2 active torsions:
REMARK  status: ('A' for Active; 'I' for Inactive)
REMARK    1  A    between atoms: C3_3  and  O1_8 
REMARK    2  A    between atoms: C6_6  and  N1_7 
ROOT
HETATM    1  C1  UNL     1      12.328  16.272  -0.156  1.00  0.00     0.026 A 
HETATM    2  C2  UNL     1      11.956  17.357  -0.952  1.00  0.00     0.038 A 
HETATM    3  C3  UNL     1      11.283  17.136  -2.145  1.00  0.00     0.065 A 
HETATM    4  C4  UNL     1      10.961  15.845  -2.548  1.00  0.00     0.038 A 
HETATM    5  C5  UNL     1      11.338  14.763  -1.747  1.00  0.00     0.026 A 
HETATM    6  C6  UNL     1      12.068  14.962  -0.570  1.00  0.00     0.005 A 
ENDROOT
BRANCH   6   7
HETATM    7  N1  UNL     1      12.336  13.886   0.283  1.00  0.00    -0.303 NA
HETATM    8  H5  UNL     1      12.162  14.089   1.263  1.00  0.00     0.124 HD
HETATM    9  H6  UNL     1      13.244  13.459   0.133  1.00  0.00     0.124 HD
ENDBRANCH   6   7
BRANCH   3  10
HETATM   10  O1  UNL     1      10.934  18.222  -2.892  1.00  0.00    -0.361 OA
HETATM   11  H7  UNL     1       9.976  18.356  -2.815  1.00  0.00     0.217 HD
ENDBRANCH   3  10
TORSDOF 2
ENDMDL
MODEL 18
REMARK VINA RESULT:      -1.7      2.890      3.251
REMARK  2 active torsions:
REMARK  status: ('A' for Active; 'I' for Inactive)
REMARK    1  A    between atoms: C3_3  and  O1_8 
REMARK    2  A    between atoms: C6_6  and  N1_7 
ROOT
HETATM    1  C1  UNL     1       7.379  10.598  -2.664  1.00  0.00     0.026 A 
HETATM    2  C2  UNL     1       6.550  11.238  -3.588  1.00  0.00     0.038 A 
HETATM    3  C3  UNL     1       5.188  10.975  -3.587  1.00  0.00     0.065 A 
HETATM    4  C4  UNL     1       4.637  10.092  -2.664  1.00  0.00     0.038 A 
HETATM    5  C5  UNL     1       5.474   9.454  -1.743  1.00  0.00     0.026 A 
HETATM    6  C6  UNL     1       6.857   9.662  -1.767  1.00  0.00     0.005 A 
ENDROOT
BRANCH   6   7
HETATM    7  N1  UNL     1       7.669   9.113  -0.768  1.00  0.00    -0.303 NA
HETATM    8  H5  UNL     1       7.987   8.171  -0.973  1.00  0.00     0.124 HD
HETATM    9  H6  UNL     1       7.282   9.195   0.167  1.00  0.00     0.124 HD
ENDBRANCH   6   7
BRANCH   3  10
HETATM   10  O1  UNL     1       4.412  11.621  -4.503  1.00  0.00    -0.361 OA
HETATM   11  H7  UNL     1       3.484  11.386  -4.343  1.00  0.00     0.217 HD
ENDBRANCH   3  10
TORSDOF 2
ENDMDL
