MODEL 1
REMARK VINA RESULT:      -4.2      0.000      0.000
REMARK  2 active torsions:
REMARK  status: ('A' for Active; 'I' for Inactive)
REMARK    1  A    between atoms: C3_3  and  O1_8 
REMARK    2  A    between atoms: C6_6  and  N1_7 
ROOT
HETATM    1  C1  UNL     1       5.090   9.385   0.822  1.00  0.00     0.026 A 
HETATM    2  C2  UNL     1       5.198   7.997   0.703  1.00  0.00     0.038 A 
HETATM    3  C3  UNL     1       5.188   7.206   1.843  1.00  0.00     0.065 A 
HETATM    4  C4  UNL     1       5.055   7.781   3.102  1.00  0.00     0.038 A 
HETATM    5  C5  UNL     1       4.948   9.170   3.213  1.00  0.00     0.026 A 
HETATM    6  C6  UNL     1       5.015   9.988   2.081  1.00  0.00     0.005 A 
ENDROOT
BRANCH   6   7
HETATM    7  N1  UNL     1       4.788  11.365   2.191  1.00  0.00    -0.303 NA
HETATM    8  H5  UNL     1       4.172  11.735   1.473  1.00  0.00     0.124 HD
HETATM    9  H6  UNL     1       5.635  11.913   2.294  1.00  0.00     0.124 HD
ENDBRANCH   6   7
BRANCH   3  10
HETATM   10  O1  UNL     1       5.294   5.857   1.684  1.00  0.00    -0.361 OA
HETATM   11  H7  UNL     1       5.928   5.677   0.972  1.00  0.00     0.217 HD
ENDBRANCH   3  10
TORSDOF 2
ENDMDL
MODEL 2
REMARK VINA RESULT:      -4.1      2.781      3.680
REMARK  2 active torsions:
REMARK  status: ('A' for Active; 'I' for Inactive)
REMARK    1  A    between atoms: C3_3  and  O1_8 
REMARK    2  A    between atoms: C6_6  and  N1_7 
ROOT
HETATM    1  C1  UNL     1       5.221   7.773   3.190  1.00  0.00     0.026 A 
HETATM    2  C2  UNL     1       5.043   9.157   3.244  1.00  0.00     0.038 A 
HETATM    3  C3  UNL     1       4.941   9.884   2.067  1.00  0.00     0.065 A 
HETATM    4  C4  UNL     1       4.998   9.245   0.833  1.00  0.00     0.038 A 
HETATM    5  C5  UNL     1       5.178   7.859   0.787  1.00  0.00     0.026 A 
HETATM    6  C6  UNL     1       5.342   7.118   1.961  1.00  0.00     0.005 A 
ENDROOT
BRANCH   6   7
HETATM    7  N1  UNL     1       5.402   5.720   1.910  1.00  0.00    -0.303 NA
HETATM    8  H5  UNL     1       6.197   5.365   1.389  1.00  0.00     0.124 HD
HETATM    9  H6  UNL     1       4.530   5.282   1.631  1.00  0.00     0.124 HD
ENDBRANCH   6   7
BRANCH   3  10
HETATM   10  O1  UNL     1       4.765  11.232   2.161  1.00  0.00    -0.361 OA
HETATM   11  H7  UNL     1       4.097  11.410   2.843  1.00  0.00     0.217 HD
ENDBRANCH   3  10
TORSDOF 2
ENDMDL
MODEL 3
REMARK VINA RESULT:      -4.1      6.008      6.818
REMARK  2 active torsions:
REMARK  status: ('A' for Active; 'I' for Inactive)
REMARK    1  A    between atoms: C3_3  and  O1_8 
REMARK    2  A    between atoms: C6_6  and  N1_7 
ROOT
HETATM    1  C1  UNL     1       5.672   3.354   2.349  1.00  0.00     0.026 A 
HETATM    2  C2  UNL     1       5.016   3.565   3.564  1.00  0.00     0.038 A 
HETATM    3  C3  UNL     1       5.368   2.812   4.675  1.00  0.00     0.065 A 
HETATM    4  C4  UNL     1       6.379   1.861   4.595  1.00  0.00     0.038 A 
HETATM    5  C5  UNL     1       7.031   1.655   3.375  1.00  0.00     0.026 A 
HETATM    6  C6  UNL     1       6.651   2.362   2.230  1.00  0.00     0.005 A 
ENDROOT
BRANCH   6   7
HETATM    7  N1  UNL     1       7.387   2.236   1.047  1.00  0.00    -0.303 NA
HETATM    8  H5  UNL     1       8.203   2.838   1.007  1.00  0.00     0.124 HD
HETATM    9  H6  UNL     1       6.823   2.294   0.205  1.00  0.00     0.124 HD
ENDBRANCH   6   7
BRANCH   3  10
HETATM   10  O1  UNL     1       4.706   3.049   5.842  1.00  0.00    -0.361 OA
HETATM   11  H7  UNL     1       5.357   3.127   6.558  1.00  0.00     0.217 HD
ENDBRANCH   3  10
TORSDOF 2
ENDMDL
MODEL 4
REMARK VINA RESULT:      -4.0      7.696      7.937
REMARK  2 active torsions:
REMARK  status: ('A' for Active; 'I' for Inactive)
REMARK    1  A    between atoms: C3_3  and  O1_8 
REMARK    2  A    between atoms: C6_6  and  N1_7 
ROOT
HETATM    1  C1  UNL     1       5.709   1.948   5.364  1.00  0.00     0.026 A 
HETATM    2  C2  UNL     1       5.690   2.613   6.592  1.00  0.00     0.038 A 
HETATM    3  C3  UNL     1       6.810   3.316   7.011  1.00  0.00     0.065 A 
HETATM    4  C4  UNL     1       7.947   3.377   6.213  1.00  0.00     0.038 A 
HETATM    5  C5  UNL     1       7.960   2.707   4.986  1.00  0.00     0.026 A 
HETATM    6  C6  UNL     1       6.862   1.946   4.573  1.00  0.00     0.005 A 
ENDROOT
BRANCH   6   7
HETATM    7  N1  UNL     1       6.839   1.380   3.293  1.00  0.00    -0.303 NA
HETATM    8  H5  UNL     1       5.949   0.955   3.051  1.00  0.00     0.124 HD
HETATM    9  H6  UNL     1       7.624   0.767   3.101  1.00  0.00     0.124 HD
ENDBRANCH   6   7
BRANCH   3  10
HETATM   10  O1  UNL     1       6.751   3.953   8.214  1.00  0.00    -0.361 OA
HETATM   11  H7  UNL     1       5.820   4.116   8.433  1.00  0.00     0.217 HD
ENDBRANCH   3  10
TORSDOF 2
ENDMDL
MODEL 5
REMARK VINA RESULT:      -4.0      7.421      7.559
REMARK  2 active torsions:
REMARK  status: ('A' for Active; 'I' for Inactive)
REMARK    1  A    between atoms: C3_3  and  O1_8 
REMARK    2  A    between atoms: C6_6  and  N1_7 
ROOT
HETATM    1  C1  UNL     1       5.636   2.596   6.565  1.00  0.00     0.026 A 
HETATM    2  C2  UNL     1       5.676   1.908   5.350  1.00  0.00     0.038 A 
HETATM    3  C3  UNL     1       6.820   1.961   4.566  1.00  0.00     0.065 A 
HETATM    4  C4  UNL     1       7.933   2.681   4.987  1.00  0.00     0.038 A 
HETATM    5  C5  UNL     1       7.885   3.368   6.204  1.00  0.00     0.026 A 
HETATM    6  C6  UNL     1       6.721   3.374   6.979  1.00  0.00     0.005 A 
ENDROOT
BRANCH   6   7
HETATM    7  N1  UNL     1       6.723   3.964   8.248  1.00  0.00    -0.303 NA
HETATM    8  H5  UNL     1       6.915   3.310   9.001  1.00  0.00     0.124 HD
HETATM    9  H6  UNL     1       5.908   4.539   8.434  1.00  0.00     0.124 HD
ENDBRANCH   6   7
BRANCH   3  10
HETATM   10  O1  UNL     1       6.820   1.275   3.389  1.00  0.00    -0.361 OA
HETATM   11  H7  UNL     1       5.919   0.962   3.213  1.00  0.00     0.217 HD
ENDBRANCH   3  10
TORSDOF 2
ENDMDL
MODEL 6
REMARK VINA RESULT:      -4.0      5.956      6.704
REMARK  2 active torsions:
REMARK  status: ('A' for Active; 'I' for Inactive)
REMARK    1  A    between atoms: C3_3  and  O1_8 
REMARK    2  A    between atoms: C6_6  and  N1_7 
ROOT
HETATM    1  C1  UNL     1       4.952   3.456   3.734  1.00  0.00     0.026 A 
HETATM    2  C2  UNL     1       5.561   3.276   2.490  1.00  0.00     0.038 A 
HETATM    3  C3  UNL     1       6.607   2.374   2.361  1.00  0.00     0.065 A 
HETATM    4  C4  UNL     1       7.045   1.635   3.455  1.00  0.00     0.038 A 
HETATM    5  C5  UNL     1       6.431   1.822   4.697  1.00  0.00     0.026 A 
HETATM    6  C6  UNL     1       5.415   2.769   4.860  1.00  0.00     0.005 A 
ENDROOT
BRANCH   6   7
HETATM    7  N1  UNL     1       4.728   2.863   6.076  1.00  0.00    -0.303 NA
HETATM    8  H5  UNL     1       4.659   1.981   6.575  1.00  0.00     0.124 HD
HETATM    9  H6  UNL     1       3.835   3.339   6.007  1.00  0.00     0.124 HD
ENDBRANCH   6   7
BRANCH   3  10
HETATM   10  O1  UNL     1       7.173   2.225   1.130  1.00  0.00    -0.361 OA
HETATM   11  H7  UNL     1       6.936   2.992   0.585  1.00  0.00     0.217 HD
ENDBRANCH   3  10
TORSDOF 2
ENDMDL
MODEL 7
REMARK VINA RESULT:      -3.9     10.677     11.659
REMARK  2 active torsions:
REMARK  status: ('A' for Active; 'I' for Inactive)
REMARK    1  A    between atoms: C3_3  and  O1_8 
REMARK    2  A    between atoms: C6_6  and  N1_7 
ROOT
HETATM    1  C1  UNL     1       1.074   6.017  -7.280  1.00  0.00     0.026 A 
HETATM    2  C2  UNL     1       0.793   7.241  -6.669  1.00  0.00     0.038 A 
HETATM    3  C3  UNL     1       0.154   8.239  -7.391  1.00  0.00     0.065 A 
HETATM    4  C4  UNL     1      -0.223   8.026  -8.712  1.00  0.00     0.038 A 
HETATM    5  C5  UNL     1       0.063   6.799  -9.317  1.00  0.00     0.026 A 
HETATM    6  C6  UNL     1       0.758   5.802  -8.624  1.00  0.00     0.005 A 
ENDROOT
BRANCH   6   7
HETATM    7  N1  UNL     1       0.934   4.538  -9.197  1.00  0.00    -0.303 NA
HETATM    8  H5  UNL     1       1.633   4.517  -9.934  1.00  0.00     0.124 HD
HETATM    9  H6  UNL     1       0.068   4.088  -9.474  1.00  0.00     0.124 HD
ENDBRANCH   6   7
BRANCH   3  10
HETATM   10  O1  UNL     1      -0.105   9.418  -6.758  1.00  0.00    -0.361 OA
HETATM   11  H7  UNL     1       0.549  10.075  -7.047  1.00  0.00     0.217 HD
ENDBRANCH   3  10
TORSDOF 2
ENDMDL
MODEL 8
REMARK VINA RESULT:      -3.9      3.636      4.290
REMARK  2 active torsions:
REMARK  status: ('A' for Active; 'I' for Inactive)
REMARK    1  A    between atoms: C3_3  and  O1_8 
REMARK    2  A    between atoms: C6_6  and  N1_7 
ROOT
HETATM    1  C1  UNL     1       4.304   7.258   3.511  1.00  0.00     0.026 A 
HETATM    2  C2  UNL     1       4.686   8.507   4.007  1.00  0.00     0.038 A 
HETATM    3  C3  UNL     1       5.735   8.597   4.911  1.00  0.00     0.065 A 
HETATM    4  C4  UNL     1       6.421   7.457   5.315  1.00  0.00     0.038 A 
HETATM    5  C5  UNL     1       6.032   6.210   4.816  1.00  0.00     0.026 A 
HETATM    6  C6  UNL     1       4.940   6.093   3.950  1.00  0.00     0.005 A 
ENDROOT
BRANCH   6   7
HETATM    7  N1  UNL     1       4.635   4.859   3.363  1.00  0.00    -0.303 NA
HETATM    8  H5  UNL     1       3.735   4.842   2.894  1.00  0.00     0.124 HD
HETATM    9  H6  UNL     1       4.762   4.067   3.985  1.00  0.00     0.124 HD
ENDBRANCH   6   7
BRANCH   3  10
HETATM   10  O1  UNL     1       6.078   9.833   5.369  1.00  0.00    -0.361 OA
HETATM   11  H7  UNL     1       6.106   9.807   6.339  1.00  0.00     0.217 HD
ENDBRANCH   3  10
TORSDOF 2
ENDMDL
MODEL 9
REMARK VINA RESULT:      -3.8      6.112      6.810
REMARK  2 active torsions:
REMARK  status: ('A' for Active; 'I' for Inactive)
REMARK    1  A    between atoms: C3_3  and  O1_8 
REMARK    2  A    between atoms: C6_6  and  N1_7 
ROOT
HETATM    1  C1  UNL     1       5.297   4.196   5.410  1.00  0.00     0.026 A 
HETATM    2  C2  UNL     1       6.259   4.117   6.421  1.00  0.00     0.038 A 
HETATM    3  C3  UNL     1       7.399   3.351   6.227  1.00  0.00     0.065 A 
HETATM    4  C4  UNL     1       7.602   2.674   5.029  1.00  0.00     0.038 A 
HETATM    5  C5  UNL     1       6.634   2.756   4.023  1.00  0.00     0.026 A 
HETATM    6  C6  UNL     1       5.451   3.475   4.222  1.00  0.00     0.005 A 
ENDROOT
BRANCH   6   7
HETATM    7  N1  UNL     1       4.547   3.649   3.169  1.00  0.00    -0.303 NA
HETATM    8  H5  UNL     1       4.436   2.825   2.586  1.00  0.00     0.124 HD
HETATM    9  H6  UNL     1       4.708   4.489   2.624  1.00  0.00     0.124 HD
ENDBRANCH   6   7
BRANCH   3  10
HETATM   10  O1  UNL     1       8.315   3.303   7.235  1.00  0.00    -0.361 OA
HETATM   11  H7  UNL     1       8.843   2.494   7.135  1.00  0.00     0.217 HD
ENDBRANCH   3  10
TORSDOF 2
ENDMDL
MODEL 10
REMARK VINA RESULT:      -3.7      9.157     10.024
REMARK  2 active torsions:
REMARK  status: ('A' for Active; 'I' for Inactive)
REMARK    1  A    between atoms: C3_3  and  O1_8 
REMARK    2  A    between atoms: C6_6  and  N1_7 
ROOT
HETATM    1  C1  UNL     1       0.201   7.528  -7.508  1.00  0.00     0.026 A 
HETATM    2  C2  UNL     1       0.099   8.881  -7.179  1.00  0.00     0.038 A 
HETATM    3  C3  UNL     1       0.975   9.432  -6.255  1.00  0.00     0.065 A 
HETATM    4  C4  UNL     1       1.964   8.653  -5.665  1.00  0.00     0.038 A 
HETATM    5  C5  UNL     1       2.059   7.299  -5.997  1.00  0.00     0.026 A 
HETATM    6  C6  UNL     1       1.148   6.712  -6.882  1.00  0.00     0.005 A 
ENDROOT
BRANCH   6   7
HETATM    7  N1  UNL     1       1.324   5.387  -7.299  1.00  0.00    -0.303 NA
HETATM    8  H5  UNL     1       0.724   5.120  -8.073  1.00  0.00     0.124 HD
HETATM    9  H6  UNL     1       1.303   4.712  -6.542  1.00  0.00     0.124 HD
ENDBRANCH   6   7
BRANCH   3  10
HETATM   10  O1  UNL     1       0.845  10.757  -5.963  1.00  0.00    -0.361 OA
HETATM   11  H7  UNL     1       0.783  11.253  -6.795  1.00  0.00     0.217 HD
ENDBRANCH   3  10
TORSDOF 2
ENDMDL
MODEL 11
REMARK VINA RESULT:      -3.7      1.730      2.399
REMARK  2 active torsions:
REMARK  status: ('A' for Active; 'I' for Inactive)
REMARK    1  A    between atoms: C3_3  and  O1_8 
REMARK    2  A    between atoms: C6_6  and  N1_7 
ROOT
HETATM    1  C1  UNL     1       6.305   9.756   2.570  1.00  0.00     0.026 A 
HETATM    2  C2  UNL     1       5.450   8.987   3.364  1.00  0.00     0.038 A 
HETATM    3  C3  UNL     1       4.545   8.123   2.763  1.00  0.00     0.065 A 
HETATM    4  C4  UNL     1       4.494   8.003   1.378  1.00  0.00     0.038 A 
HETATM    5  C5  UNL     1       5.351   8.776   0.591  1.00  0.00     0.026 A 
HETATM    6  C6  UNL     1       6.228   9.695   1.176  1.00  0.00     0.005 A 
ENDROOT
BRANCH   6   7
HETATM    7  N1  UNL     1       7.164  10.376   0.388  1.00  0.00    -0.303 NA
HETATM    8  H5  UNL     1       7.747   9.764  -0.174  1.00  0.00     0.124 HD
HETATM    9  H6  UNL     1       7.707  11.064   0.898  1.00  0.00     0.124 HD
ENDBRANCH   6   7
BRANCH   3  10
HETATM   10  O1  UNL     1       3.731   7.388   3.571  1.00  0.00    -0.361 OA
HETATM   11  H7  UNL     1       4.240   7.099   4.345  1.00  0.00     0.217 HD
ENDBRANCH   3  10
TORSDOF 2
ENDMDL
MODEL 12
REMARK VINA RESULT:      -3.7      8.888      9.740
REMARK  2 active torsions:
REMARK  status: ('A' for Active; 'I' for Inactive)
REMARK    1  A    between atoms: C3_3  and  O1_8 
REMARK    2  A    between atoms: C6_6  and  N1_7 
ROOT
HETATM    1  C1  UNL     1       2.002   8.302  -5.793  1.00  0.00     0.026 A 
HETATM    2  C2  UNL     1       1.887   6.979  -6.225  1.00  0.00     0.038 A 
HETATM    3  C3  UNL     1       0.946   6.649  -7.190  1.00  0.00     0.065 A 
HETATM    4  C4  UNL     1       0.126   7.627  -7.743  1.00  0.00     0.038 A 
HETATM    5  C5  UNL     1       0.246   8.950  -7.305  1.00  0.00     0.026 A 
HETATM    6  C6  UNL     1       1.148   9.291  -6.292  1.00  0.00     0.005 A 
ENDROOT
BRANCH   6   7
HETATM    7  N1  UNL     1       1.344  10.632  -5.945  1.00  0.00    -0.303 NA
HETATM    8  H5  UNL     1       2.136  11.063  -6.412  1.00  0.00     0.124 HD
HETATM    9  H6  UNL     1       1.347  10.802  -4.945  1.00  0.00     0.124 HD
ENDBRANCH   6   7
BRANCH   3  10
HETATM   10  O1  UNL     1       0.866   5.348  -7.587  1.00  0.00    -0.361 OA
HETATM   11  H7  UNL     1       0.114   4.932  -7.137  1.00  0.00     0.217 HD
ENDBRANCH   3  10
TORSDOF 2
ENDMDL
MODEL 13
REMARK VINA RESULT:      -3.7      3.068      4.010
REMARK  2 active torsions:
REMARK  status: ('A' for Active; 'I' for Inactive)
REMARK    1  A    between atoms: C3_3  and  O1_8 
REMARK    2  A    between atoms: C6_6  and  N1_7 
ROOT
HETATM    1  C1  UNL     1       5.578   5.589   3.092  1.00  0.00     0.026 A 
HETATM    2  C2  UNL     1       4.979   6.640   3.790  1.00  0.00     0.038 A 
HETATM    3  C3  UNL     1       4.665   7.817   3.125  1.00  0.00     0.065 A 
HETATM    4  C4  UNL     1       4.926   7.954   1.766  1.00  0.00     0.038 A 
HETATM    5  C5  UNL     1       5.528   6.898   1.074  1.00  0.00     0.026 A 
HETATM    6  C6  UNL     1       5.905   5.727   1.739  1.00  0.00     0.005 A 
ENDROOT
BRANCH   6   7
HETATM    7  N1  UNL     1       6.396   4.633   1.017  1.00  0.00    -0.303 NA
HETATM    8  H5  UNL     1       7.167   4.156   1.474  1.00  0.00     0.124 HD
HETATM    9  H6  UNL     1       6.591   4.839   0.043  1.00  0.00     0.124 HD
ENDBRANCH   6   7
BRANCH   3  10
HETATM   10  O1  UNL     1       4.078   8.817   3.840  1.00  0.00    -0.361 OA
HETATM   11  H7  UNL     1       4.243   9.660   3.387  1.00  0.00     0.217 HD
ENDBRANCH   3  10
TORSDOF 2
ENDMDL
MODEL 14
REMARK VINA RESULT:      -3.6      6.213      6.966
REMARK  2 active torsions:
REMARK  status: ('A' for Active; 'I' for Inactive)
REMARK    1  A    between atoms: C3_3  and  O1_8 
REMARK    2  A    between atoms: C6_6  and  N1_7 
ROOT
HETATM    1  C1  UNL     1       2.637   9.409  -3.789  1.00  0.00     0.026 A 
HETATM    2  C2  UNL     1       2.402   8.574  -4.884  1.00  0.00     0.038 A 
HETATM    3  C3  UNL     1       3.463   8.172  -5.682  1.00  0.00     0.065 A 
HETATM    4  C4  UNL     1       4.761   8.579  -5.393  1.00  0.00     0.038 A 
HETATM    5  C5  UNL     1       4.988   9.416  -4.296  1.00  0.00     0.026 A 
HETATM    6  C6  UNL     1       3.925   9.880  -3.515  1.00  0.00     0.005 A 
ENDROOT
BRANCH   6   7
HETATM    7  N1  UNL     1       4.174  10.618  -2.352  1.00  0.00    -0.303 NA
HETATM    8  H5  UNL     1       3.331  10.932  -1.881  1.00  0.00     0.124 HD
HETATM    9  H6  UNL     1       4.848  11.365  -2.477  1.00  0.00     0.124 HD
ENDBRANCH   6   7
BRANCH   3  10
HETATM   10  O1  UNL     1       3.193   7.355  -6.739  1.00  0.00    -0.361 OA
HETATM   11  H7  UNL     1       3.803   7.572  -7.462  1.00  0.00     0.217 HD
ENDBRANCH   3  10
TORSDOF 2
ENDMDL
MODEL 15
REMARK VINA RESULT:      -3.6      8.292      9.206
REMARK  2 active torsions:
REMARK  status: ('A' for Active; 'I' for Inactive)
REMARK    1  A    between atoms: C3_3  and  O1_8 
REMARK    2  A    between atoms: C6_6  and  N1_7 
ROOT
HETATM    1  C1  UNL     1       2.043   7.411  -6.161  1.00  0.00     0.026 A 
HETATM    2  C2  UNL     1       2.569   8.188  -5.126  1.00  0.00     0.038 A 
HETATM    3  C3  UNL     1       2.057   9.455  -4.888  1.00  0.00     0.065 A 
HETATM    4  C4  UNL     1       1.012   9.953  -5.659  1.00  0.00     0.038 A 
HETATM    5  C5  UNL     1       0.491   9.170  -6.694  1.00  0.00     0.026 A 
HETATM    6  C6  UNL     1       1.033   7.915  -6.987  1.00  0.00     0.005 A 
ENDROOT
BRANCH   6   7
HETATM    7  N1  UNL     1       0.428   7.092  -7.943  1.00  0.00    -0.303 NA
HETATM    8  H5  UNL     1       0.922   6.219  -8.101  1.00  0.00     0.124 HD
HETATM    9  H6  UNL     1       0.200   7.568  -8.809  1.00  0.00     0.124 HD
ENDBRANCH   6   7
BRANCH   3  10
HETATM   10  O1  UNL     1       2.596  10.181  -3.868  1.00  0.00    -0.361 OA
HETATM   11  H7  UNL     1       3.173  10.864  -4.245  1.00  0.00     0.217 HD
ENDBRANCH   3  10
TORSDOF 2
ENDMDL
MODEL 16
REMARK VINA RESULT:      -3.6      6.647      7.434
REMARK  2 active torsions:
REMARK  status: ('A' for Active; 'I' for Inactive)
REMARK    1  A    between atoms: C3_3  and  O1_8 
REMARK    2  A    between atoms: C6_6  and  N1_7 
ROOT
HETATM    1  C1  UNL     1       6.328   3.992   5.725  1.00  0.00     0.026 A 
HETATM    2  C2  UNL     1       5.431   3.444   6.644  1.00  0.00     0.038 A 
HETATM    3  C3  UNL     1       5.057   2.112   6.529  1.00  0.00     0.065 A 
HETATM    4  C4  UNL     1       5.580   1.314   5.518  1.00  0.00     0.038 A 
HETATM    5  C5  UNL     1       6.477   1.870   4.601  1.00  0.00     0.026 A 
HETATM    6  C6  UNL     1       6.821   3.225   4.665  1.00  0.00     0.005 A 
ENDROOT
BRANCH   6   7
HETATM    7  N1  UNL     1       7.808   3.742   3.818  1.00  0.00    -0.303 NA
HETATM    8  H5  UNL     1       7.590   4.664   3.454  1.00  0.00     0.124 HD
HETATM    9  H6  UNL     1       8.103   3.099   3.091  1.00  0.00     0.124 HD
ENDBRANCH   6   7
BRANCH   3  10
HETATM   10  O1  UNL     1       4.181   1.614   7.447  1.00  0.00    -0.361 OA
HETATM   11  H7  UNL     1       3.740   0.839   7.065  1.00  0.00     0.217 HD
ENDBRANCH   3  10
TORSDOF 2
ENDMDL
MODEL 17
REMARK VINA RESULT:      -3.6      2.137      2.606
REMARK  2 active torsions:
REMARK  status: ('A' for Active; 'I' for Inactive)
REMARK    1  A    between atoms: C3_3  and  O1_8 
REMARK    2  A    between atoms: C6_6  and  N1_7 
ROOT
HETATM    1  C1  UNL     1       7.341   8.168   0.077  1.00  0.00     0.026 A 
HETATM    2  C2  UNL     1       6.891   7.139   0.907  1.00  0.00     0.038 A 
HETATM    3  C3  UNL     1       5.553   7.082   1.268  1.00  0.00     0.065 A 
HETATM    4  C4  UNL     1       4.652   8.031   0.798  1.00  0.00     0.038 A 
HETATM    5  C5  UNL     1       5.110   9.059  -0.032  1.00  0.00     0.026 A 
HETATM    6  C6  UNL     1       6.465   9.167  -0.359  1.00  0.00     0.005 A 
ENDROOT
BRANCH   6   7
HETATM    7  N1  UNL     1       6.893  10.126  -1.283  1.00  0.00    -0.303 NA
HETATM    8  H5  UNL     1       6.765  11.083  -0.967  1.00  0.00     0.124 HD
HETATM    9  H6  UNL     1       6.538   9.979  -2.222  1.00  0.00     0.124 HD
ENDBRANCH   6   7
BRANCH   3  10
HETATM   10  O1  UNL     1       5.152   6.061   2.077  1.00  0.00    -0.361 OA
HETATM   11  H7  UNL     1       4.783   5.354   1.524  1.00  0.00     0.217 HD
ENDBRANCH   3  10
TORSDOF 2
ENDMDL
MODEL 18
REMARK VINA RESULT:      -3.6      5.706      6.642
REMARK  2 active torsions:
REMARK  status: ('A' for Active; 'I' for Inactive)
REMARK    1  A    between atoms: C3_3  and  O1_8 
REMARK    2  A    between atoms: C6_6  and  N1_7 
ROOT
HETATM    1  C1  UNL     1       5.693   3.507   2.459  1.00  0.00     0.026 A 
HETATM    2  C2  UNL     1       6.351   4.482   3.212  1.00  0.00     0.038 A 
HETATM    3  C3  UNL     1       7.249   4.100   4.198  1.00  0.00     0.065 A 
HETATM    4  C4  UNL     1       7.511   2.755   4.434  1.00  0.00     0.038 A 
HETATM    5  C5  UNL     1       6.846   1.784   3.678  1.00  0.00     0.026 A 
HETATM    6  C6  UNL     1       5.895   2.149   2.720  1.00  0.00     0.005 A 
ENDROOT
BRANCH   6   7
HETATM    7  N1  UNL     1       5.325   1.178   1.888  1.00  0.00    -0.303 NA
HETATM    8  H5  UNL     1       5.204   1.485   0.927  1.00  0.00     0.124 HD
HETATM    9  H6  UNL     1       4.485   0.755   2.267  1.00  0.00     0.124 HD
ENDBRANCH   6   7
BRANCH   3  10
HETATM   10  O1  UNL     1       7.873   5.081   4.909  1.00  0.00    -0.361 OA
HETATM   11  H7  UNL     1       8.831   4.997   4.777  1.00  0.00     0.217 HD
ENDBRANCH   3  10
TORSDOF 2
ENDMDL
MODEL 19
REMARK VINA RESULT:      -3.6      4.797      5.826
REMARK  2 active torsions:
REMARK  status: ('A' for Active; 'I' for Inactive)
REMARK    1  A    between atoms: C3_3  and  O1_8 
REMARK    2  A    between atoms: C6_6  and  N1_7 
ROOT
HETATM    1  C1  UNL     1       5.021   4.563   4.405  1.00  0.00     0.026 A 
HETATM    2  C2  UNL     1       5.136   3.368   5.120  1.00  0.00     0.038 A 
HETATM    3  C3  UNL     1       5.480   2.200   4.456  1.00  0.00     0.065 A 
HETATM    4  C4  UNL     1       5.727   2.210   3.087  1.00  0.00     0.038 A 
HETATM    5  C5  UNL     1       5.609   3.409   2.378  1.00  0.00     0.026 A 
HETATM    6  C6  UNL     1       5.206   4.585   3.020  1.00  0.00     0.005 A 
ENDROOT
BRANCH   6   7
HETATM    7  N1  UNL     1       5.206   5.801   2.327  1.00  0.00    -0.303 NA
HETATM    8  H5  UNL     1       5.016   5.705   1.335  1.00  0.00     0.124 HD
HETATM    9  H6  UNL     1       6.020   6.378   2.511  1.00  0.00     0.124 HD
ENDBRANCH   6   7
BRANCH   3  10
HETATM   10  O1  UNL     1       5.585   1.056   5.188  1.00  0.00    -0.361 OA
HETATM   11  H7  UNL     1       4.948   0.409   4.845  1.00  0.00     0.217 HD
ENDBRANCH   3  10
TORSDOF 2
ENDMDL
MODEL 20
REMARK VINA RESULT:      -3.4      4.273      5.180
REMARK  2 active torsions:
REMARK  status: ('A' for Active; 'I' for Inactive)
REMARK    1  A    between atoms: C3_3  and  O1_8 
REMARK    2  A    between atoms: C6_6  and  N1_7 
ROOT
HETATM    1  C1  UNL     1       6.528   4.705   1.105  1.00  0.00     0.026 A 
HETATM    2  C2  UNL     1       6.215   5.960   1.631  1.00  0.00     0.038 A 
HETATM    3  C3  UNL     1       7.036   7.044   1.359  1.00  0.00     0.065 A 
HETATM    4  C4  UNL     1       8.161   6.896   0.555  1.00  0.00     0.038 A 
HETATM    5  C5  UNL     1       8.469   5.637   0.033  1.00  0.00     0.026 A 
HETATM    6  C6  UNL     1       7.686   4.520   0.344  1.00  0.00     0.005 A 
ENDROOT
BRANCH   6   7
HETATM    7  N1  UNL     1       7.933   3.291  -0.278  1.00  0.00    -0.303 NA
HETATM    8  H5  UNL     1       7.827   3.315  -1.287  1.00  0.00     0.124 HD
HETATM    9  H6  UNL     1       7.440   2.511   0.144  1.00  0.00     0.124 HD
ENDBRANCH   6   7
BRANCH   3  10
HETATM   10  O1  UNL     1       6.695   8.253   1.888  1.00  0.00    -0.361 OA
HETATM   11  H7  UNL     1       7.386   8.524   2.513  1.00  0.00     0.217 HD
ENDBRANCH   3  10
TORSDOF 2
ENDMDL
