HETATM    1  C1  UNL     1      16.087  11.491   7.268  1.00  0.00     0.026 A 
HETATM    2  C2  UNL     1      16.765  11.801   8.449  1.00  0.00     0.038 A 
HETATM    3  C3  UNL     1      16.063  11.889   9.642  1.00  0.00     0.065 A 
HETATM    4  C4  UNL     1      14.692  11.656   9.676  1.00  0.00     0.038 A 
HETATM    5  C5  UNL     1      14.020  11.348   8.490  1.00  0.00     0.026 A 
HETATM    6  C6  UNL     1      14.700  11.312   7.268  1.00  0.00     0.005 A 
HETATM    7  N1  UNL     1      14.043  10.887   6.108  1.00  0.00    -0.303 NA
HETATM    8  H5  UNL     1      14.654  10.429   5.438  1.00  0.00     0.124 HD
HETATM    9  H6  UNL     1      13.465  11.601   5.679  1.00  0.00     0.124 HD
HETATM   10  O1  UNL     1      16.761  12.191  10.773  1.00  0.00    -0.361 OA
HETATM   11  H7  UNL     1      16.214  12.768  11.330  1.00  0.00     0.217 HD
HETATM    1  C1  UNL     1      18.739  12.066  10.031  1.00  0.00     0.026 A 
HETATM    2  C2  UNL     1      19.794  11.214   9.698  1.00  0.00     0.038 A 
HETATM    3  C3  UNL     1      21.088  11.542  10.075  1.00  0.00     0.065 A 
HETATM    4  C4  UNL     1      21.342  12.703  10.797  1.00  0.00     0.038 A 
HETATM    5  C5  UNL     1      20.281  13.552  11.126  1.00  0.00     0.026 A 
HETATM    6  C6  UNL     1      18.979  13.268  10.703  1.00  0.00     0.005 A 
HETATM    7  N1  UNL     1      17.909  14.059  11.138  1.00  0.00    -0.303 NA
HETATM    8  H5  UNL     1      18.066  15.056  11.025  1.00  0.00     0.124 HD
HETATM    9  H6  UNL     1      17.575  13.823  12.067  1.00  0.00     0.124 HD
HETATM   10  O1  UNL     1      22.090  10.683   9.734  1.00  0.00    -0.361 OA
HETATM   11  H7  UNL     1      22.242  10.750   8.777  1.00  0.00     0.217 HD
HETATM    1  C1  UNL     1      20.051  14.866   9.716  1.00  0.00     0.026 A 
HETATM    2  C2  UNL     1      20.980  14.013  10.318  1.00  0.00     0.038 A 
HETATM    3  C3  UNL     1      20.608  12.719  10.652  1.00  0.00     0.065 A 
HETATM    4  C4  UNL     1      19.326  12.257  10.378  1.00  0.00     0.038 A 
HETATM    5  C5  UNL     1      18.401  13.117   9.777  1.00  0.00     0.026 A 
HETATM    6  C6  UNL     1      18.739  14.443   9.487  1.00  0.00     0.005 A 
HETATM    7  N1  UNL     1      17.848  15.258   8.779  1.00  0.00    -0.303 NA
HETATM    8  H5  UNL     1      16.983  14.791   8.523  1.00  0.00     0.124 HD
HETATM    9  H6  UNL     1      18.271  15.743   7.995  1.00  0.00     0.124 HD
HETATM   10  O1  UNL     1      21.543  11.917  11.234  1.00  0.00    -0.361 OA
HETATM   11  H7  UNL     1      22.419  12.312  11.098  1.00  0.00     0.217 HD
HETATM    1  C1  UNL     1      19.303  12.339  10.354  1.00  0.00     0.026 A 
HETATM    2  C2  UNL     1      18.362  13.190   9.770  1.00  0.00     0.038 A 
HETATM    3  C3  UNL     1      18.722  14.487   9.435  1.00  0.00     0.065 A 
HETATM    4  C4  UNL     1      20.016  14.943   9.661  1.00  0.00     0.038 A 
HETATM    5  C5  UNL     1      20.953  14.086  10.246  1.00  0.00     0.026 A 
HETATM    6  C6  UNL     1      20.592  12.794  10.644  1.00  0.00     0.005 A 
HETATM    7  N1  UNL     1      21.564  11.906  11.118  1.00  0.00    -0.303 NA
HETATM    8  H5  UNL     1      21.409  11.604  12.075  1.00  0.00     0.124 HD
HETATM    9  H6  UNL     1      22.517  12.218  10.962  1.00  0.00     0.124 HD
HETATM   10  O1  UNL     1      17.776  15.286   8.866  1.00  0.00    -0.361 OA
HETATM   11  H7  UNL     1      16.906  14.875   8.994  1.00  0.00     0.217 HD
HETATM    1  C1  UNL     1      21.294  12.820  10.824  1.00  0.00     0.026 A 
HETATM    2  C2  UNL     1      20.217  13.638  11.174  1.00  0.00     0.038 A 
HETATM    3  C3  UNL     1      18.930  13.280  10.798  1.00  0.00     0.065 A 
HETATM    4  C4  UNL     1      18.701  12.105  10.090  1.00  0.00     0.038 A 
HETATM    5  C5  UNL     1      19.783  11.292   9.742  1.00  0.00     0.026 A 
HETATM    6  C6  UNL     1      21.093  11.666  10.060  1.00  0.00     0.005 A 
HETATM    7  N1  UNL     1      22.156  10.790   9.814  1.00  0.00    -0.303 NA
HETATM    8  H5  UNL     1      21.874   9.922   9.368  1.00  0.00     0.124 HD
HETATM    9  H6  UNL     1      22.755  10.634  10.618  1.00  0.00     0.124 HD
HETATM   10  O1  UNL     1      17.907  14.103  11.161  1.00  0.00    -0.361 OA
HETATM   11  H7  UNL     1      18.281  14.937  11.486  1.00  0.00     0.217 HD
HETATM    1  C1  UNL     1      20.896  13.956  10.009  1.00  0.00     0.026 A 
HETATM    2  C2  UNL     1      19.949  14.809   9.438  1.00  0.00     0.038 A 
HETATM    3  C3  UNL     1      18.625  14.403   9.345  1.00  0.00     0.065 A 
HETATM    4  C4  UNL     1      18.230  13.161   9.829  1.00  0.00     0.038 A 
HETATM    5  C5  UNL     1      19.183  12.312  10.398  1.00  0.00     0.026 A 
HETATM    6  C6  UNL     1      20.532  12.679  10.448  1.00  0.00     0.005 A 
HETATM    7  N1  UNL     1      21.457  11.876  11.125  1.00  0.00    -0.303 NA
HETATM    8  H5  UNL     1      21.668  12.200  12.064  1.00  0.00     0.124 HD
HETATM    9  H6  UNL     1      22.294  11.673  10.590  1.00  0.00     0.124 HD
HETATM   10  O1  UNL     1      17.731  15.264   8.783  1.00  0.00    -0.361 OA
HETATM   11  H7  UNL     1      17.973  16.170   9.036  1.00  0.00     0.217 HD
HETATM    1  C1  UNL     1      20.766  14.970  10.431  1.00  0.00     0.026 A 
HETATM    2  C2  UNL     1      20.505  15.652   9.241  1.00  0.00     0.038 A 
HETATM    3  C3  UNL     1      19.303  15.447   8.580  1.00  0.00     0.065 A 
HETATM    4  C4  UNL     1      18.348  14.581   9.100  1.00  0.00     0.038 A 
HETATM    5  C5  UNL     1      18.616  13.900  10.291  1.00  0.00     0.026 A 
HETATM    6  C6  UNL     1      19.846  14.049  10.941  1.00  0.00     0.005 A 
HETATM    7  N1  UNL     1      20.059  13.457  12.191  1.00  0.00    -0.303 NA
HETATM    8  H5  UNL     1      19.204  13.160  12.652  1.00  0.00     0.124 HD
HETATM    9  H6  UNL     1      20.660  13.997  12.804  1.00  0.00     0.124 HD
HETATM   10  O1  UNL     1      19.085  16.134   7.423  1.00  0.00    -0.361 OA
HETATM   11  H7  UNL     1      19.620  15.733   6.719  1.00  0.00     0.217 HD
HETATM    1  C1  UNL     1      17.765  14.178   8.316  1.00  0.00     0.026 A 
HETATM    2  C2  UNL     1      18.040  13.298   9.365  1.00  0.00     0.038 A 
HETATM    3  C3  UNL     1      17.193  12.225   9.603  1.00  0.00     0.065 A 
HETATM    4  C4  UNL     1      16.082  12.007   8.796  1.00  0.00     0.038 A 
HETATM    5  C5  UNL     1      15.812  12.893   7.748  1.00  0.00     0.026 A 
HETATM    6  C6  UNL     1      16.620  14.013   7.530  1.00  0.00     0.005 A 
HETATM    7  N1  UNL     1      16.412  14.825   6.409  1.00  0.00    -0.303 NA
HETATM    8  H5  UNL     1      16.294  14.305   5.545  1.00  0.00     0.124 HD
HETATM    9  H6  UNL     1      17.084  15.578   6.317  1.00  0.00     0.124 HD
HETATM   10  O1  UNL     1      17.497  11.387  10.634  1.00  0.00    -0.361 OA
HETATM   11  H7  UNL     1      16.817  10.696  10.683  1.00  0.00     0.217 HD
HETATM    1  C1  UNL     1      19.391  12.376   8.851  1.00  0.00     0.026 A 
HETATM    2  C2  UNL     1      18.188  13.002   8.517  1.00  0.00     0.038 A 
HETATM    3  C3  UNL     1      16.987  12.463   8.957  1.00  0.00     0.065 A 
HETATM    4  C4  UNL     1      16.972  11.315   9.741  1.00  0.00     0.038 A 
HETATM    5  C5  UNL     1      18.180  10.693  10.070  1.00  0.00     0.026 A 
HETATM    6  C6  UNL     1      19.396  11.187   9.587  1.00  0.00     0.005 A 
HETATM    7  N1  UNL     1      20.604  10.629  10.019  1.00  0.00    -0.303 NA
HETATM    8  H5  UNL     1      20.963   9.907   9.402  1.00  0.00     0.124 HD
HETATM    9  H6  UNL     1      20.599  10.339  10.991  1.00  0.00     0.124 HD
HETATM   10  O1  UNL     1      15.835  13.105   8.613  1.00  0.00    -0.361 OA
HETATM   11  H7  UNL     1      15.108  12.462   8.624  1.00  0.00     0.217 HD
HETATM    1  C1  UNL     1      19.237  13.144   9.354  1.00  0.00     0.026 A 
HETATM    2  C2  UNL     1      19.354  12.270   8.270  1.00  0.00     0.038 A 
HETATM    3  C3  UNL     1      18.348  11.349   8.018  1.00  0.00     0.065 A 
HETATM    4  C4  UNL     1      17.216  11.298   8.824  1.00  0.00     0.038 A 
HETATM    5  C5  UNL     1      17.106  12.174   9.908  1.00  0.00     0.026 A 
HETATM    6  C6  UNL     1      18.136  13.070  10.213  1.00  0.00     0.005 A 
HETATM    7  N1  UNL     1      17.966  14.022  11.225  1.00  0.00    -0.303 NA
HETATM    8  H5  UNL     1      17.263  14.722  11.011  1.00  0.00     0.124 HD
HETATM    9  H6  UNL     1      18.834  14.432  11.552  1.00  0.00     0.124 HD
HETATM   10  O1  UNL     1      18.498  10.516   6.950  1.00  0.00    -0.361 OA
HETATM   11  H7  UNL     1      17.660  10.051   6.800  1.00  0.00     0.217 HD
HETATM    1  C1  UNL     1      21.189  14.863  11.266  1.00  0.00     0.026 A 
HETATM    2  C2  UNL     1      22.516  14.666  10.878  1.00  0.00     0.038 A 
HETATM    3  C3  UNL     1      22.952  13.393  10.539  1.00  0.00     0.065 A 
HETATM    4  C4  UNL     1      22.075  12.314  10.567  1.00  0.00     0.038 A 
HETATM    5  C5  UNL     1      20.749  12.519  10.958  1.00  0.00     0.026 A 
HETATM    6  C6  UNL     1      20.306  13.784  11.360  1.00  0.00     0.005 A 
HETATM    7  N1  UNL     1      18.951  14.002  11.634  1.00  0.00    -0.303 NA
HETATM    8  H5  UNL     1      18.324  13.489  11.023  1.00  0.00     0.124 HD
HETATM    9  H6  UNL     1      18.701  14.982  11.710  1.00  0.00     0.124 HD
HETATM   10  O1  UNL     1      24.253  13.242  10.163  1.00  0.00    -0.361 OA
HETATM   11  H7  UNL     1      24.595  12.423  10.554  1.00  0.00     0.217 HD
HETATM    1  C1  UNL     1      16.805  13.053   8.017  1.00  0.00     0.026 A 
HETATM    2  C2  UNL     1      16.164  12.112   8.826  1.00  0.00     0.038 A 
HETATM    3  C3  UNL     1      14.779  12.032   8.823  1.00  0.00     0.065 A 
HETATM    4  C4  UNL     1      14.023  12.869   8.010  1.00  0.00     0.038 A 
HETATM    5  C5  UNL     1      14.672  13.810   7.204  1.00  0.00     0.026 A 
HETATM    6  C6  UNL     1      16.063  13.945   7.237  1.00  0.00     0.005 A 
HETATM    7  N1  UNL     1      16.709  14.805   6.341  1.00  0.00    -0.303 NA
HETATM    8  H5  UNL     1      16.412  15.773   6.419  1.00  0.00     0.124 HD
HETATM    9  H6  UNL     1      16.707  14.475   5.382  1.00  0.00     0.124 HD
HETATM   10  O1  UNL     1      14.191  11.099   9.624  1.00  0.00    -0.361 OA
HETATM   11  H7  UNL     1      14.157  10.256   9.143  1.00  0.00     0.217 HD
HETATM    1  C1  UNL     1      19.105  12.967   8.017  1.00  0.00     0.026 A 
HETATM    2  C2  UNL     1      18.857  13.772   9.131  1.00  0.00     0.038 A 
HETATM    3  C3  UNL     1      18.107  13.272  10.187  1.00  0.00     0.065 A 
HETATM    4  C4  UNL     1      17.615  11.972  10.153  1.00  0.00     0.038 A 
HETATM    5  C5  UNL     1      17.867  11.173   9.034  1.00  0.00     0.026 A 
HETATM    6  C6  UNL     1      18.570  11.678   7.935  1.00  0.00     0.005 A 
HETATM    7  N1  UNL     1      18.919  10.835   6.874  1.00  0.00    -0.303 NA
HETATM    8  H5  UNL     1      18.756  11.243   5.959  1.00  0.00     0.124 HD
HETATM    9  H6  UNL     1      18.538   9.898   6.952  1.00  0.00     0.124 HD
HETATM   10  O1  UNL     1      17.889  14.088  11.256  1.00  0.00    -0.361 OA
HETATM   11  H7  UNL     1      18.320  14.941  11.089  1.00  0.00     0.217 HD
HETATM    1  C1  UNL     1      18.941  11.255   9.193  1.00  0.00     0.026 A 
HETATM    2  C2  UNL     1      18.228  11.995  10.139  1.00  0.00     0.038 A 
HETATM    3  C3  UNL     1      18.467  13.356  10.270  1.00  0.00     0.065 A 
HETATM    4  C4  UNL     1      19.398  13.992   9.457  1.00  0.00     0.038 A 
HETATM    5  C5  UNL     1      20.109  13.245   8.513  1.00  0.00     0.026 A 
HETATM    6  C6  UNL     1      19.925  11.863   8.407  1.00  0.00     0.005 A 
HETATM    7  N1  UNL     1      20.552  11.145   7.382  1.00  0.00    -0.303 NA
HETATM    8  H5  UNL     1      20.377  10.145   7.418  1.00  0.00     0.124 HD
HETATM    9  H6  UNL     1      21.537  11.361   7.273  1.00  0.00     0.124 HD
HETATM   10  O1  UNL     1      17.749  14.043  11.202  1.00  0.00    -0.361 OA
HETATM   11  H7  UNL     1      18.339  14.674  11.644  1.00  0.00     0.217 HD
HETATM    1  C1  UNL     1      22.003  15.103  10.100  1.00  0.00     0.026 A 
HETATM    2  C2  UNL     1      21.299  15.087  11.306  1.00  0.00     0.038 A 
HETATM    3  C3  UNL     1      20.512  13.991  11.629  1.00  0.00     0.065 A 
HETATM    4  C4  UNL     1      20.430  12.901  10.769  1.00  0.00     0.038 A 
HETATM    5  C5  UNL     1      21.137  12.925   9.563  1.00  0.00     0.026 A 
HETATM    6  C6  UNL     1      21.888  14.045   9.194  1.00  0.00     0.005 A 
HETATM    7  N1  UNL     1      22.685  14.011   8.044  1.00  0.00    -0.303 NA
HETATM    8  H5  UNL     1      22.376  13.333   7.354  1.00  0.00     0.124 HD
HETATM    9  H6  UNL     1      23.679  13.942   8.235  1.00  0.00     0.124 HD
HETATM   10  O1  UNL     1      19.843  14.012  12.816  1.00  0.00    -0.361 OA
HETATM   11  H7  UNL     1      20.342  13.487  13.462  1.00  0.00     0.217 HD
HETATM    1  C1  UNL     1      20.088  13.775  10.385  1.00  0.00     0.026 A 
HETATM    2  C2  UNL     1      21.034  13.999   9.382  1.00  0.00     0.038 A 
HETATM    3  C3  UNL     1      20.644  14.585   8.187  1.00  0.00     0.065 A 
HETATM    4  C4  UNL     1      19.323  14.968   7.985  1.00  0.00     0.038 A 
HETATM    5  C5  UNL     1      18.381  14.740   8.993  1.00  0.00     0.026 A 
HETATM    6  C6  UNL     1      18.743  14.097  10.181  1.00  0.00     0.005 A 
HETATM    7  N1  UNL     1      17.823  13.982  11.228  1.00  0.00    -0.303 NA
HETATM    8  H5  UNL     1      16.928  14.420  11.035  1.00  0.00     0.124 HD
HETATM    9  H6  UNL     1      18.196  14.247  12.133  1.00  0.00     0.124 HD
HETATM   10  O1  UNL     1      21.597  14.789   7.235  1.00  0.00    -0.361 OA
HETATM   11  H7  UNL     1      22.344  14.195   7.412  1.00  0.00     0.217 HD
HETATM    1  C1  UNL     1      21.935  18.534  11.055  1.00  0.00     0.026 A 
HETATM    2  C2  UNL     1      21.563  19.619  10.259  1.00  0.00     0.038 A 
HETATM    3  C3  UNL     1      20.890  19.398   9.066  1.00  0.00     0.065 A 
HETATM    4  C4  UNL     1      20.568  18.107   8.663  1.00  0.00     0.038 A 
HETATM    5  C5  UNL     1      20.945  17.025   9.464  1.00  0.00     0.026 A 
HETATM    6  C6  UNL     1      21.675  17.224  10.641  1.00  0.00     0.005 A 
HETATM    7  N1  UNL     1      21.943  16.148  11.494  1.00  0.00    -0.303 NA
HETATM    8  H5  UNL     1      21.769  16.351  12.474  1.00  0.00     0.124 HD
HETATM    9  H6  UNL     1      22.851  15.721  11.344  1.00  0.00     0.124 HD
HETATM   10  O1  UNL     1      20.541  20.484   8.319  1.00  0.00    -0.361 OA
HETATM   11  H7  UNL     1      19.583  20.618   8.396  1.00  0.00     0.217 HD
HETATM    1  C1  UNL     1      16.986  12.860   8.547  1.00  0.00     0.026 A 
HETATM    2  C2  UNL     1      16.157  13.500   7.623  1.00  0.00     0.038 A 
HETATM    3  C3  UNL     1      14.795  13.237   7.624  1.00  0.00     0.065 A 
HETATM    4  C4  UNL     1      14.244  12.354   8.547  1.00  0.00     0.038 A 
HETATM    5  C5  UNL     1      15.081  11.716   9.468  1.00  0.00     0.026 A 
HETATM    6  C6  UNL     1      16.464  11.924   9.444  1.00  0.00     0.005 A 
HETATM    7  N1  UNL     1      17.276  11.375  10.443  1.00  0.00    -0.303 NA
HETATM    8  H5  UNL     1      17.594  10.433  10.238  1.00  0.00     0.124 HD
HETATM    9  H6  UNL     1      16.889  11.457  11.378  1.00  0.00     0.124 HD
HETATM   10  O1  UNL     1      14.019  13.883   6.708  1.00  0.00    -0.361 OA
HETATM   11  H7  UNL     1      13.091  13.648   6.868  1.00  0.00     0.217 HD
