MODEL 1
REMARK VINA RESULT:      -4.5      0.000      0.000
REMARK  2 active torsions:
REMARK  status: ('A' for Active; 'I' for Inactive)
REMARK    1  A    between atoms: C3_3  and  O1_8 
REMARK    2  A    between atoms: C6_6  and  N1_7 
ROOT
HETATM    1  C1  UNL     1      11.510   6.654  -7.141  1.00  0.00     0.026 A 
HETATM    2  C2  UNL     1      11.038   6.870  -8.438  1.00  0.00     0.038 A 
HETATM    3  C3  UNL     1       9.684   6.736  -8.709  1.00  0.00     0.065 A 
HETATM    4  C4  UNL     1       8.789   6.404  -7.697  1.00  0.00     0.038 A 
HETATM    5  C5  UNL     1       9.269   6.187  -6.402  1.00  0.00     0.026 A 
HETATM    6  C6  UNL     1      10.637   6.260  -6.122  1.00  0.00     0.005 A 
ENDROOT
BRANCH   6   7
HETATM    7  N1  UNL     1      11.092   6.160  -4.802  1.00  0.00    -0.303 NA
HETATM    8  H5  UNL     1      11.826   5.470  -4.676  1.00  0.00     0.124 HD
HETATM    9  H6  UNL     1      10.350   6.064  -4.118  1.00  0.00     0.124 HD
ENDBRANCH   6   7
BRANCH   3  10
HETATM   10  O1  UNL     1       9.263   6.958  -9.985  1.00  0.00    -0.361 OA
HETATM   11  H7  UNL     1       8.323   7.199  -9.964  1.00  0.00     0.217 HD
ENDBRANCH   3  10
TORSDOF 2
ENDMDL
MODEL 2
REMARK VINA RESULT:      -4.4      1.119      1.970
REMARK  2 active torsions:
REMARK  status: ('A' for Active; 'I' for Inactive)
REMARK    1  A    between atoms: C3_3  and  O1_8 
REMARK    2  A    between atoms: C6_6  and  N1_7 
ROOT
HETATM    1  C1  UNL     1       9.133   5.878  -5.734  1.00  0.00     0.026 A 
HETATM    2  C2  UNL     1       8.680   6.072  -7.041  1.00  0.00     0.038 A 
HETATM    3  C3  UNL     1       9.552   5.888  -8.105  1.00  0.00     0.065 A 
HETATM    4  C4  UNL     1      10.867   5.497  -7.883  1.00  0.00     0.038 A 
HETATM    5  C5  UNL     1      11.314   5.306  -6.572  1.00  0.00     0.026 A 
HETATM    6  C6  UNL     1      10.467   5.543  -5.484  1.00  0.00     0.005 A 
ENDROOT
BRANCH   6   7
HETATM    7  N1  UNL     1      10.886   5.235  -4.185  1.00  0.00    -0.303 NA
HETATM    8  H5  UNL     1      11.496   5.936  -3.776  1.00  0.00     0.124 HD
HETATM    9  H6  UNL     1      11.255   4.296  -4.085  1.00  0.00     0.124 HD
ENDBRANCH   6   7
BRANCH   3  10
HETATM   10  O1  UNL     1       9.071   6.084  -9.365  1.00  0.00    -0.361 OA
HETATM   11  H7  UNL     1       9.552   5.501  -9.974  1.00  0.00     0.217 HD
ENDBRANCH   3  10
TORSDOF 2
ENDMDL
MODEL 3
REMARK VINA RESULT:      -4.4      0.112      1.705
REMARK  2 active torsions:
REMARK  status: ('A' for Active; 'I' for Inactive)
REMARK    1  A    between atoms: C3_3  and  O1_8 
REMARK    2  A    between atoms: C6_6  and  N1_7 
ROOT
HETATM    1  C1  UNL     1       9.309   6.182  -6.446  1.00  0.00     0.026 A 
HETATM    2  C2  UNL     1       8.855   6.371  -7.753  1.00  0.00     0.038 A 
HETATM    3  C3  UNL     1       9.741   6.786  -8.736  1.00  0.00     0.065 A 
HETATM    4  C4  UNL     1      11.082   7.000  -8.436  1.00  0.00     0.038 A 
HETATM    5  C5  UNL     1      11.529   6.811  -7.125  1.00  0.00     0.026 A 
HETATM    6  C6  UNL     1      10.639   6.450  -6.108  1.00  0.00     0.005 A 
ENDROOT
BRANCH   6   7
HETATM    7  N1  UNL     1      11.117   6.147  -4.828  1.00  0.00    -0.303 NA
HETATM    8  H5  UNL     1      12.019   5.681  -4.828  1.00  0.00     0.124 HD
HETATM    9  H6  UNL     1      10.439   5.677  -4.238  1.00  0.00     0.124 HD
ENDBRANCH   6   7
BRANCH   3  10
HETATM   10  O1  UNL     1       9.260   6.956  -9.999  1.00  0.00    -0.361 OA
HETATM   11  H7  UNL     1       8.561   6.300 -10.155  1.00  0.00     0.217 HD
ENDBRANCH   3  10
TORSDOF 2
ENDMDL
MODEL 4
REMARK VINA RESULT:      -4.4      2.781      3.266
REMARK  2 active torsions:
REMARK  status: ('A' for Active; 'I' for Inactive)
REMARK    1  A    between atoms: C3_3  and  O1_8 
REMARK    2  A    between atoms: C6_6  and  N1_7 
ROOT
HETATM    1  C1  UNL     1      11.091   6.914  -8.236  1.00  0.00     0.026 A 
HETATM    2  C2  UNL     1      11.532   6.647  -6.938  1.00  0.00     0.038 A 
HETATM    3  C3  UNL     1      10.619   6.258  -5.968  1.00  0.00     0.065 A 
HETATM    4  C4  UNL     1       9.272   6.116  -6.280  1.00  0.00     0.038 A 
HETATM    5  C5  UNL     1       8.837   6.386  -7.581  1.00  0.00     0.026 A 
HETATM    6  C6  UNL     1       9.732   6.835  -8.557  1.00  0.00     0.005 A 
ENDROOT
BRANCH   6   7
HETATM    7  N1  UNL     1       9.311   6.988  -9.883  1.00  0.00    -0.303 NA
HETATM    8  H5  UNL     1       9.349   7.947 -10.216  1.00  0.00     0.124 HD
HETATM    9  H6  UNL     1       8.420   6.545 -10.084  1.00  0.00     0.124 HD
ENDBRANCH   6   7
BRANCH   3  10
HETATM   10  O1  UNL     1      11.089   6.004  -4.715  1.00  0.00    -0.361 OA
HETATM   11  H7  UNL     1      11.293   6.849  -4.283  1.00  0.00     0.217 HD
ENDBRANCH   3  10
TORSDOF 2
ENDMDL
MODEL 5
REMARK VINA RESULT:      -4.4      2.967      3.796
REMARK  2 active torsions:
REMARK  status: ('A' for Active; 'I' for Inactive)
REMARK    1  A    between atoms: C3_3  and  O1_8 
REMARK    2  A    between atoms: C6_6  and  N1_7 
ROOT
HETATM    1  C1  UNL     1       8.766   6.101  -6.994  1.00  0.00     0.026 A 
HETATM    2  C2  UNL     1       9.238   5.905  -5.694  1.00  0.00     0.038 A 
HETATM    3  C3  UNL     1      10.567   5.561  -5.490  1.00  0.00     0.065 A 
HETATM    4  C4  UNL     1      11.437   5.427  -6.567  1.00  0.00     0.038 A 
HETATM    5  C5  UNL     1      10.957   5.625  -7.865  1.00  0.00     0.026 A 
HETATM    6  C6  UNL     1       9.607   5.913  -8.094  1.00  0.00     0.005 A 
ENDROOT
BRANCH   6   7
HETATM    7  N1  UNL     1       9.163   6.225  -9.384  1.00  0.00    -0.303 NA
HETATM    8  H5  UNL     1       9.436   5.544 -10.085  1.00  0.00     0.124 HD
HETATM    9  H6  UNL     1       9.369   7.177  -9.670  1.00  0.00     0.124 HD
ENDBRANCH   6   7
BRANCH   3  10
HETATM   10  O1  UNL     1      10.990   5.381  -4.207  1.00  0.00    -0.361 OA
HETATM   11  H7  UNL     1      10.938   6.231  -3.742  1.00  0.00     0.217 HD
ENDBRANCH   3  10
TORSDOF 2
ENDMDL
MODEL 6
REMARK VINA RESULT:      -4.3      2.835      3.411
REMARK  2 active torsions:
REMARK  status: ('A' for Active; 'I' for Inactive)
REMARK    1  A    between atoms: C3_3  and  O1_8 
REMARK    2  A    between atoms: C6_6  and  N1_7 
ROOT
HETATM    1  C1  UNL     1      10.834   5.262  -7.325  1.00  0.00     0.026 A 
HETATM    2  C2  UNL     1      11.927   5.771  -6.620  1.00  0.00     0.038 A 
HETATM    3  C3  UNL     1      12.280   7.105  -6.767  1.00  0.00     0.065 A 
HETATM    4  C4  UNL     1      11.544   7.945  -7.597  1.00  0.00     0.038 A 
HETATM    5  C5  UNL     1      10.452   7.428  -8.300  1.00  0.00     0.026 A 
HETATM    6  C6  UNL     1      10.117   6.073  -8.210  1.00  0.00     0.005 A 
ENDROOT
BRANCH   6   7
HETATM    7  N1  UNL     1       8.954   5.592  -8.823  1.00  0.00    -0.303 NA
HETATM    8  H5  UNL     1       9.130   4.917  -9.560  1.00  0.00     0.124 HD
HETATM    9  H6  UNL     1       8.311   6.322  -9.112  1.00  0.00     0.124 HD
ENDBRANCH   6   7
BRANCH   3  10
HETATM   10  O1  UNL     1      13.351   7.564  -6.061  1.00  0.00    -0.361 OA
HETATM   11  H7  UNL     1      13.033   7.927  -5.218  1.00  0.00     0.217 HD
ENDBRANCH   3  10
TORSDOF 2
ENDMDL
MODEL 7
REMARK VINA RESULT:      -4.3      2.651      3.158
REMARK  2 active torsions:
REMARK  status: ('A' for Active; 'I' for Inactive)
REMARK    1  A    between atoms: C3_3  and  O1_8 
REMARK    2  A    between atoms: C6_6  and  N1_7 
ROOT
HETATM    1  C1  UNL     1      10.731   6.889  -8.621  1.00  0.00     0.026 A 
HETATM    2  C2  UNL     1      11.868   7.365  -7.964  1.00  0.00     0.038 A 
HETATM    3  C3  UNL     1      12.068   7.058  -6.626  1.00  0.00     0.065 A 
HETATM    4  C4  UNL     1      11.154   6.267  -5.937  1.00  0.00     0.038 A 
HETATM    5  C5  UNL     1      10.018   5.796  -6.601  1.00  0.00     0.026 A 
HETATM    6  C6  UNL     1       9.770   6.144  -7.933  1.00  0.00     0.005 A 
ENDROOT
BRANCH   6   7
HETATM    7  N1  UNL     1       8.694   5.571  -8.622  1.00  0.00    -0.303 NA
HETATM    8  H5  UNL     1       7.790   5.769  -8.204  1.00  0.00     0.124 HD
HETATM    9  H6  UNL     1       8.817   4.586  -8.828  1.00  0.00     0.124 HD
ENDBRANCH   6   7
BRANCH   3  10
HETATM   10  O1  UNL     1      13.191   7.538  -6.021  1.00  0.00    -0.361 OA
HETATM   11  H7  UNL     1      13.769   7.920  -6.700  1.00  0.00     0.217 HD
ENDBRANCH   3  10
TORSDOF 2
ENDMDL
MODEL 8
REMARK VINA RESULT:      -4.3      1.740      2.163
REMARK  2 active torsions:
REMARK  status: ('A' for Active; 'I' for Inactive)
REMARK    1  A    between atoms: C3_3  and  O1_8 
REMARK    2  A    between atoms: C6_6  and  N1_7 
ROOT
HETATM    1  C1  UNL     1      11.975   5.789  -6.586  1.00  0.00     0.026 A 
HETATM    2  C2  UNL     1      10.904   5.223  -7.282  1.00  0.00     0.038 A 
HETATM    3  C3  UNL     1      10.161   6.005  -8.156  1.00  0.00     0.065 A 
HETATM    4  C4  UNL     1      10.483   7.343  -8.356  1.00  0.00     0.038 A 
HETATM    5  C5  UNL     1      11.555   7.903  -7.655  1.00  0.00     0.026 A 
HETATM    6  C6  UNL     1      12.279   7.147  -6.727  1.00  0.00     0.005 A 
ENDROOT
BRANCH   6   7
HETATM    7  N1  UNL     1      13.421   7.680  -6.121  1.00  0.00    -0.303 NA
HETATM    8  H5  UNL     1      14.043   8.155  -6.768  1.00  0.00     0.124 HD
HETATM    9  H6  UNL     1      13.913   7.024  -5.523  1.00  0.00     0.124 HD
ENDBRANCH   6   7
BRANCH   3  10
HETATM   10  O1  UNL     1       9.127   5.416  -8.818  1.00  0.00    -0.361 OA
HETATM   11  H7  UNL     1       8.426   6.075  -8.947  1.00  0.00     0.217 HD
ENDBRANCH   3  10
TORSDOF 2
ENDMDL
MODEL 9
REMARK VINA RESULT:      -4.2      1.471      1.819
REMARK  2 active torsions:
REMARK  status: ('A' for Active; 'I' for Inactive)
REMARK    1  A    between atoms: C3_3  and  O1_8 
REMARK    2  A    between atoms: C6_6  and  N1_7 
ROOT
HETATM    1  C1  UNL     1      11.655   8.065  -7.891  1.00  0.00     0.026 A 
HETATM    2  C2  UNL     1      10.619   7.548  -8.671  1.00  0.00     0.038 A 
HETATM    3  C3  UNL     1      10.026   6.344  -8.317  1.00  0.00     0.065 A 
HETATM    4  C4  UNL     1      10.443   5.656  -7.183  1.00  0.00     0.038 A 
HETATM    5  C5  UNL     1      11.482   6.179  -6.408  1.00  0.00     0.026 A 
HETATM    6  C6  UNL     1      12.131   7.360  -6.781  1.00  0.00     0.005 A 
ENDROOT
BRANCH   6   7
HETATM    7  N1  UNL     1      13.087   7.937  -5.936  1.00  0.00    -0.303 NA
HETATM    8  H5  UNL     1      14.018   7.546  -6.047  1.00  0.00     0.124 HD
HETATM    9  H6  UNL     1      12.801   7.983  -4.964  1.00  0.00     0.124 HD
ENDBRANCH   6   7
BRANCH   3  10
HETATM   10  O1  UNL     1       9.016   5.874  -9.102  1.00  0.00    -0.361 OA
HETATM   11  H7  UNL     1       8.861   6.509  -9.820  1.00  0.00     0.217 HD
ENDBRANCH   3  10
TORSDOF 2
ENDMDL
MODEL 10
REMARK VINA RESULT:      -4.1      2.682      3.346
REMARK  2 active torsions:
REMARK  status: ('A' for Active; 'I' for Inactive)
REMARK    1  A    between atoms: C3_3  and  O1_8 
REMARK    2  A    between atoms: C6_6  and  N1_7 
ROOT
HETATM    1  C1  UNL     1      14.199   8.556  -8.220  1.00  0.00     0.026 A 
HETATM    2  C2  UNL     1      13.680   8.351  -9.501  1.00  0.00     0.038 A 
HETATM    3  C3  UNL     1      12.497   7.644  -9.658  1.00  0.00     0.065 A 
HETATM    4  C4  UNL     1      11.814   7.151  -8.552  1.00  0.00     0.038 A 
HETATM    5  C5  UNL     1      12.340   7.359  -7.273  1.00  0.00     0.026 A 
HETATM    6  C6  UNL     1      13.561   8.019  -7.099  1.00  0.00     0.005 A 
ENDROOT
BRANCH   6   7
HETATM    7  N1  UNL     1      14.019   8.326  -5.812  1.00  0.00    -0.303 NA
HETATM    8  H5  UNL     1      14.327   9.287  -5.708  1.00  0.00     0.124 HD
HETATM    9  H6  UNL     1      14.693   7.662  -5.447  1.00  0.00     0.124 HD
ENDBRANCH   6   7
BRANCH   3  10
HETATM   10  O1  UNL     1      12.021   7.468 -10.923  1.00  0.00    -0.361 OA
HETATM   11  H7  UNL     1      11.228   8.015 -11.035  1.00  0.00     0.217 HD
ENDBRANCH   3  10
TORSDOF 2
ENDMDL
MODEL 11
REMARK VINA RESULT:      -4.1      3.825      4.916
REMARK  2 active torsions:
REMARK  status: ('A' for Active; 'I' for Inactive)
REMARK    1  A    between atoms: C3_3  and  O1_8 
REMARK    2  A    between atoms: C6_6  and  N1_7 
ROOT
HETATM    1  C1  UNL     1      11.766   7.420  -8.352  1.00  0.00     0.026 A 
HETATM    2  C2  UNL     1      12.277   7.650  -7.073  1.00  0.00     0.038 A 
HETATM    3  C3  UNL     1      13.551   8.181  -6.927  1.00  0.00     0.065 A 
HETATM    4  C4  UNL     1      14.317   8.501  -8.043  1.00  0.00     0.038 A 
HETATM    5  C5  UNL     1      13.799   8.266  -9.320  1.00  0.00     0.026 A 
HETATM    6  C6  UNL     1      12.541   7.677  -9.487  1.00  0.00     0.005 A 
ENDROOT
BRANCH   6   7
HETATM    7  N1  UNL     1      11.983   7.557 -10.765  1.00  0.00    -0.303 NA
HETATM    8  H5  UNL     1      12.135   8.370 -11.354  1.00  0.00     0.124 HD
HETATM    9  H6  UNL     1      11.015   7.256 -10.763  1.00  0.00     0.124 HD
ENDBRANCH   6   7
BRANCH   3  10
HETATM   10  O1  UNL     1      14.013   8.394  -5.663  1.00  0.00    -0.361 OA
HETATM   11  H7  UNL     1      13.336   8.878  -5.163  1.00  0.00     0.217 HD
ENDBRANCH   3  10
TORSDOF 2
ENDMDL
MODEL 12
REMARK VINA RESULT:      -4.0      3.006      3.924
REMARK  2 active torsions:
REMARK  status: ('A' for Active; 'I' for Inactive)
REMARK    1  A    between atoms: C3_3  and  O1_8 
REMARK    2  A    between atoms: C6_6  and  N1_7 
ROOT
HETATM    1  C1  UNL     1      10.468   6.818  -8.644  1.00  0.00     0.026 A 
HETATM    2  C2  UNL     1      10.381   6.568  -7.273  1.00  0.00     0.038 A 
HETATM    3  C3  UNL     1      11.489   6.779  -6.464  1.00  0.00     0.065 A 
HETATM    4  C4  UNL     1      12.680   7.252  -7.004  1.00  0.00     0.038 A 
HETATM    5  C5  UNL     1      12.760   7.498  -8.378  1.00  0.00     0.026 A 
HETATM    6  C6  UNL     1      11.673   7.236  -9.218  1.00  0.00     0.005 A 
ENDROOT
BRANCH   6   7
HETATM    7  N1  UNL     1      11.723   7.597 -10.569  1.00  0.00    -0.303 NA
HETATM    8  H5  UNL     1      11.946   8.576 -10.722  1.00  0.00     0.124 HD
HETATM    9  H6  UNL     1      10.914   7.298 -11.104  1.00  0.00     0.124 HD
ENDBRANCH   6   7
BRANCH   3  10
HETATM   10  O1  UNL     1      11.364   6.527  -5.131  1.00  0.00    -0.361 OA
HETATM   11  H7  UNL     1      11.322   7.374  -4.658  1.00  0.00     0.217 HD
ENDBRANCH   3  10
TORSDOF 2
ENDMDL
MODEL 13
REMARK VINA RESULT:      -4.0      2.745      3.575
REMARK  2 active torsions:
REMARK  status: ('A' for Active; 'I' for Inactive)
REMARK    1  A    between atoms: C3_3  and  O1_8 
REMARK    2  A    between atoms: C6_6  and  N1_7 
ROOT
HETATM    1  C1  UNL     1       9.230   6.539  -7.376  1.00  0.00     0.026 A 
HETATM    2  C2  UNL     1      10.079   5.781  -6.566  1.00  0.00     0.038 A 
HETATM    3  C3  UNL     1      11.409   5.618  -6.925  1.00  0.00     0.065 A 
HETATM    4  C4  UNL     1      11.909   6.217  -8.076  1.00  0.00     0.038 A 
HETATM    5  C5  UNL     1      11.054   6.973  -8.883  1.00  0.00     0.026 A 
HETATM    6  C6  UNL     1       9.697   7.100  -8.568  1.00  0.00     0.005 A 
ENDROOT
BRANCH   6   7
HETATM    7  N1  UNL     1       8.877   7.954  -9.314  1.00  0.00    -0.303 NA
HETATM    8  H5  UNL     1       8.485   8.718  -8.773  1.00  0.00     0.124 HD
HETATM    9  H6  UNL     1       8.176   7.472  -9.866  1.00  0.00     0.124 HD
ENDBRANCH   6   7
BRANCH   3  10
HETATM   10  O1  UNL     1      12.205   4.874  -6.107  1.00  0.00    -0.361 OA
HETATM   11  H7  UNL     1      11.795   4.834  -5.229  1.00  0.00     0.217 HD
ENDBRANCH   3  10
TORSDOF 2
ENDMDL
MODEL 14
REMARK VINA RESULT:      -3.9      3.062      3.969
REMARK  2 active torsions:
REMARK  status: ('A' for Active; 'I' for Inactive)
REMARK    1  A    between atoms: C3_3  and  O1_8 
REMARK    2  A    between atoms: C6_6  and  N1_7 
ROOT
HETATM    1  C1  UNL     1       7.361   7.611  -7.162  1.00  0.00     0.026 A 
HETATM    2  C2  UNL     1       7.410   6.805  -6.022  1.00  0.00     0.038 A 
HETATM    3  C3  UNL     1       8.543   6.047  -5.764  1.00  0.00     0.065 A 
HETATM    4  C4  UNL     1       9.638   6.095  -6.621  1.00  0.00     0.038 A 
HETATM    5  C5  UNL     1       9.581   6.902  -7.760  1.00  0.00     0.026 A 
HETATM    6  C6  UNL     1       8.426   7.628  -8.069  1.00  0.00     0.005 A 
ENDROOT
BRANCH   6   7
HETATM    7  N1  UNL     1       8.422   8.523  -9.144  1.00  0.00    -0.303 NA
HETATM    8  H5  UNL     1       8.816   9.432  -8.920  1.00  0.00     0.124 HD
HETATM    9  H6  UNL     1       7.526   8.596  -9.615  1.00  0.00     0.124 HD
ENDBRANCH   6   7
BRANCH   3  10
HETATM   10  O1  UNL     1       8.553   5.276  -4.640  1.00  0.00    -0.361 OA
HETATM   11  H7  UNL     1       7.681   5.331  -4.219  1.00  0.00     0.217 HD
ENDBRANCH   3  10
TORSDOF 2
ENDMDL
MODEL 15
REMARK VINA RESULT:      -3.9      1.737      2.432
REMARK  2 active torsions:
REMARK  status: ('A' for Active; 'I' for Inactive)
REMARK    1  A    between atoms: C3_3  and  O1_8 
REMARK    2  A    between atoms: C6_6  and  N1_7 
ROOT
HETATM    1  C1  UNL     1       9.723   5.424  -5.569  1.00  0.00     0.026 A 
HETATM    2  C2  UNL     1       8.423   5.757  -5.957  1.00  0.00     0.038 A 
HETATM    3  C3  UNL     1       8.153   6.035  -7.289  1.00  0.00     0.065 A 
HETATM    4  C4  UNL     1       9.160   5.969  -8.245  1.00  0.00     0.038 A 
HETATM    5  C5  UNL     1      10.459   5.637  -7.849  1.00  0.00     0.026 A 
HETATM    6  C6  UNL     1      10.764   5.410  -6.503  1.00  0.00     0.005 A 
ENDROOT
BRANCH   6   7
HETATM    7  N1  UNL     1      12.037   4.962  -6.134  1.00  0.00    -0.303 NA
HETATM    8  H5  UNL     1      12.029   4.295  -5.369  1.00  0.00     0.124 HD
HETATM    9  H6  UNL     1      12.708   5.709  -5.987  1.00  0.00     0.124 HD
ENDBRANCH   6   7
BRANCH   3  10
HETATM   10  O1  UNL     1       6.871   6.353  -7.627  1.00  0.00    -0.361 OA
HETATM   11  H7  UNL     1       6.473   6.852  -6.896  1.00  0.00     0.217 HD
ENDBRANCH   3  10
TORSDOF 2
ENDMDL
MODEL 16
REMARK VINA RESULT:      -3.8      1.808      2.174
REMARK  2 active torsions:
REMARK  status: ('A' for Active; 'I' for Inactive)
REMARK    1  A    between atoms: C3_3  and  O1_8 
REMARK    2  A    between atoms: C6_6  and  N1_7 
ROOT
HETATM    1  C1  UNL     1       9.395   6.013  -6.596  1.00  0.00     0.026 A 
HETATM    2  C2  UNL     1       9.639   6.797  -7.726  1.00  0.00     0.038 A 
HETATM    3  C3  UNL     1       8.698   7.733  -8.129  1.00  0.00     0.065 A 
HETATM    4  C4  UNL     1       7.521   7.909  -7.409  1.00  0.00     0.038 A 
HETATM    5  C5  UNL     1       7.283   7.120  -6.280  1.00  0.00     0.026 A 
HETATM    6  C6  UNL     1       8.193   6.131  -5.892  1.00  0.00     0.005 A 
ENDROOT
BRANCH   6   7
HETATM    7  N1  UNL     1       8.004   5.430  -4.696  1.00  0.00    -0.303 NA
HETATM    8  H5  UNL     1       7.073   5.037  -4.596  1.00  0.00     0.124 HD
HETATM    9  H6  UNL     1       8.299   5.940  -3.870  1.00  0.00     0.124 HD
ENDBRANCH   6   7
BRANCH   3  10
HETATM   10  O1  UNL     1       8.973   8.480  -9.235  1.00  0.00    -0.361 OA
HETATM   11  H7  UNL     1       8.727   9.402  -9.055  1.00  0.00     0.217 HD
ENDBRANCH   3  10
TORSDOF 2
ENDMDL
MODEL 17
REMARK VINA RESULT:      -3.8      2.708      3.186
REMARK  2 active torsions:
REMARK  status: ('A' for Active; 'I' for Inactive)
REMARK    1  A    between atoms: C3_3  and  O1_8 
REMARK    2  A    between atoms: C6_6  and  N1_7 
ROOT
HETATM    1  C1  UNL     1       9.809   6.200  -8.174  1.00  0.00     0.026 A 
HETATM    2  C2  UNL     1      11.009   5.650  -7.716  1.00  0.00     0.038 A 
HETATM    3  C3  UNL     1      11.120   5.247  -6.393  1.00  0.00     0.065 A 
HETATM    4  C4  UNL     1      10.043   5.370  -5.523  1.00  0.00     0.038 A 
HETATM    5  C5  UNL     1       8.846   5.923  -5.987  1.00  0.00     0.026 A 
HETATM    6  C6  UNL     1       8.734   6.389  -7.301  1.00  0.00     0.005 A 
ENDROOT
BRANCH   6   7
HETATM    7  N1  UNL     1       7.498   6.829  -7.789  1.00  0.00    -0.303 NA
HETATM    8  H5  UNL     1       7.339   6.599  -8.765  1.00  0.00     0.124 HD
HETATM    9  H6  UNL     1       7.300   7.803  -7.585  1.00  0.00     0.124 HD
ENDBRANCH   6   7
BRANCH   3  10
HETATM   10  O1  UNL     1      12.306   4.713  -5.986  1.00  0.00    -0.361 OA
HETATM   11  H7  UNL     1      12.636   5.228  -5.233  1.00  0.00     0.217 HD
ENDBRANCH   3  10
TORSDOF 2
ENDMDL
MODEL 18
REMARK VINA RESULT:      -3.8      2.743      3.478
REMARK  2 active torsions:
REMARK  status: ('A' for Active; 'I' for Inactive)
REMARK    1  A    between atoms: C3_3  and  O1_8 
REMARK    2  A    between atoms: C6_6  and  N1_7 
ROOT
HETATM    1  C1  UNL     1       8.584   5.729  -5.905  1.00  0.00     0.026 A 
HETATM    2  C2  UNL     1       9.886   5.360  -5.561  1.00  0.00     0.038 A 
HETATM    3  C3  UNL     1      10.862   5.283  -6.546  1.00  0.00     0.065 A 
HETATM    4  C4  UNL     1      10.558   5.586  -7.868  1.00  0.00     0.038 A 
HETATM    5  C5  UNL     1       9.252   5.954  -8.205  1.00  0.00     0.026 A 
HETATM    6  C6  UNL     1       8.242   5.980  -7.237  1.00  0.00     0.005 A 
ENDROOT
BRANCH   6   7
HETATM    7  N1  UNL     1       6.969   6.463  -7.560  1.00  0.00    -0.303 NA
HETATM    8  H5  UNL     1       6.466   5.879  -8.221  1.00  0.00     0.124 HD
HETATM    9  H6  UNL     1       6.956   7.443  -7.823  1.00  0.00     0.124 HD
ENDBRANCH   6   7
BRANCH   3  10
HETATM   10  O1  UNL     1      12.121   4.922  -6.170  1.00  0.00    -0.361 OA
HETATM   11  H7  UNL     1      12.102   4.659  -5.236  1.00  0.00     0.217 HD
ENDBRANCH   3  10
TORSDOF 2
ENDMDL
MODEL 19
REMARK VINA RESULT:      -3.7      2.941      3.466
REMARK  2 active torsions:
REMARK  status: ('A' for Active; 'I' for Inactive)
REMARK    1  A    between atoms: C3_3  and  O1_8 
REMARK    2  A    between atoms: C6_6  and  N1_7 
ROOT
HETATM    1  C1  UNL     1       9.031   7.597  -8.548  1.00  0.00     0.026 A 
HETATM    2  C2  UNL     1       9.756   6.576  -7.928  1.00  0.00     0.038 A 
HETATM    3  C3  UNL     1       9.301   6.038  -6.733  1.00  0.00     0.065 A 
HETATM    4  C4  UNL     1       8.122   6.494  -6.154  1.00  0.00     0.038 A 
HETATM    5  C5  UNL     1       7.403   7.516  -6.779  1.00  0.00     0.026 A 
HETATM    6  C6  UNL     1       7.875   8.112  -7.953  1.00  0.00     0.005 A 
ENDROOT
BRANCH   6   7
HETATM    7  N1  UNL     1       7.090   9.050  -8.633  1.00  0.00    -0.303 NA
HETATM    8  H5  UNL     1       7.346  10.013  -8.441  1.00  0.00     0.124 HD
HETATM    9  H6  UNL     1       6.092   8.891  -8.545  1.00  0.00     0.124 HD
ENDBRANCH   6   7
BRANCH   3  10
HETATM   10  O1  UNL     1      10.035   5.042  -6.162  1.00  0.00    -0.361 OA
HETATM   11  H7  UNL     1       9.547   4.697  -5.396  1.00  0.00     0.217 HD
ENDBRANCH   3  10
TORSDOF 2
ENDMDL
MODEL 20
REMARK VINA RESULT:      -3.5      1.865      2.357
REMARK  2 active torsions:
REMARK  status: ('A' for Active; 'I' for Inactive)
REMARK    1  A    between atoms: C3_3  and  O1_8 
REMARK    2  A    between atoms: C6_6  and  N1_7 
ROOT
HETATM    1  C1  UNL     1      11.033   5.559  -5.515  1.00  0.00     0.026 A 
HETATM    2  C2  UNL     1      12.081   6.055  -6.293  1.00  0.00     0.038 A 
HETATM    3  C3  UNL     1      11.801   6.788  -7.437  1.00  0.00     0.065 A 
HETATM    4  C4  UNL     1      10.486   7.048  -7.807  1.00  0.00     0.038 A 
HETATM    5  C5  UNL     1       9.442   6.547  -7.024  1.00  0.00     0.026 A 
HETATM    6  C6  UNL     1       9.704   5.757  -5.900  1.00  0.00     0.005 A 
ENDROOT
BRANCH   6   7
HETATM    7  N1  UNL     1       8.658   5.362  -5.058  1.00  0.00    -0.303 NA
HETATM    8  H5  UNL     1       8.589   4.356  -4.938  1.00  0.00     0.124 HD
HETATM    9  H6  UNL     1       7.765   5.786  -5.285  1.00  0.00     0.124 HD
ENDBRANCH   6   7
BRANCH   3  10
HETATM   10  O1  UNL     1      12.851   7.257  -8.169  1.00  0.00    -0.361 OA
HETATM   11  H7  UNL     1      12.514   7.597  -9.013  1.00  0.00     0.217 HD
ENDBRANCH   3  10
TORSDOF 2
ENDMDL
