MODEL 1
REMARK VINA RESULT:      -2.7      0.000      0.000
REMARK  2 active torsions:
REMARK  status: ('A' for Active; 'I' for Inactive)
REMARK    1  A    between atoms: C3_3  and  O1_8 
REMARK    2  A    between atoms: C6_6  and  N1_7 
ROOT
HETATM    1  C1  UNL     1       4.951  11.796 -10.663  1.00  0.00     0.026 A 
HETATM    2  C2  UNL     1       5.591  11.906  -9.426  1.00  0.00     0.038 A 
HETATM    3  C3  UNL     1       5.692  10.793  -8.603  1.00  0.00     0.065 A 
HETATM    4  C4  UNL     1       5.175   9.566  -9.005  1.00  0.00     0.038 A 
HETATM    5  C5  UNL     1       4.535   9.465 -10.243  1.00  0.00     0.026 A 
HETATM    6  C6  UNL     1       4.372  10.588 -11.061  1.00  0.00     0.005 A 
ENDROOT
BRANCH   6   7
HETATM    7  N1  UNL     1       3.837  10.452 -12.347  1.00  0.00    -0.303 NA
HETATM    8  H5  UNL     1       3.478  11.320 -12.733  1.00  0.00     0.124 HD
HETATM    9  H6  UNL     1       3.178   9.686 -12.438  1.00  0.00     0.124 HD
ENDBRANCH   6   7
BRANCH   3  10
HETATM   10  O1  UNL     1       6.326  10.940  -7.406  1.00  0.00    -0.361 OA
HETATM   11  H7  UNL     1       5.671  10.847  -6.695  1.00  0.00     0.217 HD
ENDBRANCH   3  10
TORSDOF 2
ENDMDL
MODEL 2
REMARK VINA RESULT:      -2.7      0.193      1.712
REMARK  2 active torsions:
REMARK  status: ('A' for Active; 'I' for Inactive)
REMARK    1  A    between atoms: C3_3  and  O1_8 
REMARK    2  A    between atoms: C6_6  and  N1_7 
ROOT
HETATM    1  C1  UNL     1       4.509   9.508 -10.325  1.00  0.00     0.026 A 
HETATM    2  C2  UNL     1       5.063   9.527  -9.043  1.00  0.00     0.038 A 
HETATM    3  C3  UNL     1       5.568  10.713  -8.530  1.00  0.00     0.065 A 
HETATM    4  C4  UNL     1       5.512  11.886  -9.274  1.00  0.00     0.038 A 
HETATM    5  C5  UNL     1       4.958  11.859 -10.557  1.00  0.00     0.026 A 
HETATM    6  C6  UNL     1       4.497  10.662 -11.114  1.00  0.00     0.005 A 
ENDROOT
BRANCH   6   7
HETATM    7  N1  UNL     1       3.837  10.667 -12.348  1.00  0.00    -0.303 NA
HETATM    8  H5  UNL     1       3.220   9.872 -12.484  1.00  0.00     0.124 HD
HETATM    9  H6  UNL     1       4.451  10.819 -13.141  1.00  0.00     0.124 HD
ENDBRANCH   6   7
BRANCH   3  10
HETATM   10  O1  UNL     1       6.097  10.691  -7.275  1.00  0.00    -0.361 OA
HETATM   11  H7  UNL     1       6.482   9.814  -7.116  1.00  0.00     0.217 HD
ENDBRANCH   3  10
TORSDOF 2
ENDMDL
MODEL 3
REMARK VINA RESULT:      -2.6      2.777      3.260
REMARK  2 active torsions:
REMARK  status: ('A' for Active; 'I' for Inactive)
REMARK    1  A    between atoms: C3_3  and  O1_8 
REMARK    2  A    between atoms: C6_6  and  N1_7 
ROOT
HETATM    1  C1  UNL     1       5.548  11.831  -9.336  1.00  0.00     0.026 A 
HETATM    2  C2  UNL     1       4.958  11.838 -10.602  1.00  0.00     0.038 A 
HETATM    3  C3  UNL     1       4.408  10.670 -11.111  1.00  0.00     0.065 A 
HETATM    4  C4  UNL     1       4.424   9.497 -10.365  1.00  0.00     0.038 A 
HETATM    5  C5  UNL     1       5.017   9.497  -9.099  1.00  0.00     0.026 A 
HETATM    6  C6  UNL     1       5.629  10.649  -8.594  1.00  0.00     0.005 A 
ENDROOT
BRANCH   6   7
HETATM    7  N1  UNL     1       6.113  10.671  -7.281  1.00  0.00    -0.303 NA
HETATM    8  H5  UNL     1       7.099  10.440  -7.206  1.00  0.00     0.124 HD
HETATM    9  H6  UNL     1       5.543  10.150  -6.624  1.00  0.00     0.124 HD
ENDBRANCH   6   7
BRANCH   3  10
HETATM   10  O1  UNL     1       3.839  10.719 -12.348  1.00  0.00    -0.361 OA
HETATM   11  H7  UNL     1       4.329  10.124 -12.938  1.00  0.00     0.217 HD
ENDBRANCH   3  10
TORSDOF 2
ENDMDL
MODEL 4
REMARK VINA RESULT:      -2.2      2.702      3.523
REMARK  2 active torsions:
REMARK  status: ('A' for Active; 'I' for Inactive)
REMARK    1  A    between atoms: C3_3  and  O1_8 
REMARK    2  A    between atoms: C6_6  and  N1_7 
ROOT
HETATM    1  C1  UNL     1       6.392   9.886  -8.051  1.00  0.00     0.026 A 
HETATM    2  C2  UNL     1       5.553   8.912  -8.596  1.00  0.00     0.038 A 
HETATM    3  C3  UNL     1       4.636   9.264  -9.577  1.00  0.00     0.065 A 
HETATM    4  C4  UNL     1       4.557  10.575 -10.034  1.00  0.00     0.038 A 
HETATM    5  C5  UNL     1       5.400  11.545  -9.483  1.00  0.00     0.026 A 
HETATM    6  C6  UNL     1       6.289  11.222  -8.453  1.00  0.00     0.005 A 
ENDROOT
BRANCH   6   7
HETATM    7  N1  UNL     1       7.209  12.170  -7.992  1.00  0.00    -0.303 NA
HETATM    8  H5  UNL     1       8.036  11.763  -7.567  1.00  0.00     0.124 HD
HETATM    9  H6  UNL     1       6.796  12.896  -7.415  1.00  0.00     0.124 HD
ENDBRANCH   6   7
BRANCH   3  10
HETATM   10  O1  UNL     1       3.837   8.285 -10.085  1.00  0.00    -0.361 OA
HETATM   11  H7  UNL     1       3.866   8.333 -11.054  1.00  0.00     0.217 HD
ENDBRANCH   3  10
TORSDOF 2
ENDMDL
MODEL 5
REMARK VINA RESULT:      -2.2      1.155      1.414
REMARK  2 active torsions:
REMARK  status: ('A' for Active; 'I' for Inactive)
REMARK    1  A    between atoms: C3_3  and  O1_8 
REMARK    2  A    between atoms: C6_6  and  N1_7 
ROOT
HETATM    1  C1  UNL     1       5.876  12.125  -9.290  1.00  0.00     0.026 A 
HETATM    2  C2  UNL     1       6.443  11.422  -8.225  1.00  0.00     0.038 A 
HETATM    3  C3  UNL     1       6.164  10.072  -8.067  1.00  0.00     0.065 A 
HETATM    4  C4  UNL     1       5.339   9.409  -8.968  1.00  0.00     0.038 A 
HETATM    5  C5  UNL     1       4.774  10.120 -10.031  1.00  0.00     0.026 A 
HETATM    6  C6  UNL     1       4.996  11.494 -10.173  1.00  0.00     0.005 A 
ENDROOT
BRANCH   6   7
HETATM    7  N1  UNL     1       4.525  12.170 -11.304  1.00  0.00    -0.303 NA
HETATM    8  H5  UNL     1       4.049  13.041 -11.090  1.00  0.00     0.124 HD
HETATM    9  H6  UNL     1       3.993  11.585 -11.941  1.00  0.00     0.124 HD
ENDBRANCH   6   7
BRANCH   3  10
HETATM   10  O1  UNL     1       6.738   9.420  -7.017  1.00  0.00    -0.361 OA
HETATM   11  H7  UNL     1       6.097   8.786  -6.657  1.00  0.00     0.217 HD
ENDBRANCH   3  10
TORSDOF 2
ENDMDL
MODEL 6
REMARK VINA RESULT:      -2.1      1.954      2.655
REMARK  2 active torsions:
REMARK  status: ('A' for Active; 'I' for Inactive)
REMARK    1  A    between atoms: C3_3  and  O1_8 
REMARK    2  A    between atoms: C6_6  and  N1_7 
ROOT
HETATM    1  C1  UNL     1       4.181   9.887 -11.530  1.00  0.00     0.026 A 
HETATM    2  C2  UNL     1       3.874   8.718 -10.831  1.00  0.00     0.038 A 
HETATM    3  C3  UNL     1       4.153   8.634  -9.474  1.00  0.00     0.065 A 
HETATM    4  C4  UNL     1       4.720   9.711  -8.800  1.00  0.00     0.038 A 
HETATM    5  C5  UNL     1       5.025  10.878  -9.507  1.00  0.00     0.026 A 
HETATM    6  C6  UNL     1       4.806  10.959 -10.886  1.00  0.00     0.005 A 
ENDROOT
BRANCH   6   7
HETATM    7  N1  UNL     1       5.002  12.170 -11.561  1.00  0.00    -0.303 NA
HETATM    8  H5  UNL     1       4.192  12.480 -12.087  1.00  0.00     0.124 HD
HETATM    9  H6  UNL     1       5.854  12.199 -12.111  1.00  0.00     0.124 HD
ENDBRANCH   6   7
BRANCH   3  10
HETATM   10  O1  UNL     1       3.837   7.478  -8.827  1.00  0.00    -0.361 OA
HETATM   11  H7  UNL     1       3.880   6.745  -9.463  1.00  0.00     0.217 HD
ENDBRANCH   3  10
TORSDOF 2
ENDMDL
MODEL 7
REMARK VINA RESULT:      -1.3      1.830      2.347
REMARK  2 active torsions:
REMARK  status: ('A' for Active; 'I' for Inactive)
REMARK    1  A    between atoms: C3_3  and  O1_8 
REMARK    2  A    between atoms: C6_6  and  N1_7 
ROOT
HETATM    1  C1  UNL     1       5.697  10.724  -9.253  1.00  0.00     0.026 A 
HETATM    2  C2  UNL     1       5.572   9.518  -8.561  1.00  0.00     0.038 A 
HETATM    3  C3  UNL     1       4.639   8.579  -8.979  1.00  0.00     0.065 A 
HETATM    4  C4  UNL     1       3.840   8.821 -10.091  1.00  0.00     0.038 A 
HETATM    5  C5  UNL     1       3.971  10.032 -10.778  1.00  0.00     0.026 A 
HETATM    6  C6  UNL     1       4.863  11.014 -10.337  1.00  0.00     0.005 A 
ENDROOT
BRANCH   6   7
HETATM    7  N1  UNL     1       5.071  12.170 -11.098  1.00  0.00    -0.303 NA
HETATM    8  H5  UNL     1       5.457  12.944 -10.567  1.00  0.00     0.124 HD
HETATM    9  H6  UNL     1       4.269  12.445 -11.655  1.00  0.00     0.124 HD
ENDBRANCH   6   7
BRANCH   3  10
HETATM   10  O1  UNL     1       4.549   7.413  -8.279  1.00  0.00    -0.361 OA
HETATM   11  H7  UNL     1       3.614   7.241  -8.084  1.00  0.00     0.217 HD
ENDBRANCH   3  10
TORSDOF 2
ENDMDL
MODEL 8
REMARK VINA RESULT:      -1.0      2.758      3.445
REMARK  2 active torsions:
REMARK  status: ('A' for Active; 'I' for Inactive)
REMARK    1  A    between atoms: C3_3  and  O1_8 
REMARK    2  A    between atoms: C6_6  and  N1_7 
ROOT
HETATM    1  C1  UNL     1       6.749   9.469  -7.317  1.00  0.00     0.026 A 
HETATM    2  C2  UNL     1       6.291  10.743  -7.660  1.00  0.00     0.038 A 
HETATM    3  C3  UNL     1       5.303  10.883  -8.625  1.00  0.00     0.065 A 
HETATM    4  C4  UNL     1       4.753   9.764  -9.242  1.00  0.00     0.038 A 
HETATM    5  C5  UNL     1       5.218   8.492  -8.895  1.00  0.00     0.026 A 
HETATM    6  C6  UNL     1       6.253   8.335  -7.968  1.00  0.00     0.005 A 
ENDROOT
BRANCH   6   7
HETATM    7  N1  UNL     1       6.628   7.056  -7.540  1.00  0.00    -0.303 NA
HETATM    8  H5  UNL     1       7.512   7.036  -7.040  1.00  0.00     0.124 HD
HETATM    9  H6  UNL     1       6.579   6.350  -8.266  1.00  0.00     0.124 HD
ENDBRANCH   6   7
BRANCH   3  10
HETATM   10  O1  UNL     1       4.881  12.142  -8.929  1.00  0.00    -0.361 OA
HETATM   11  H7  UNL     1       4.919  12.684  -8.125  1.00  0.00     0.217 HD
ENDBRANCH   3  10
TORSDOF 2
ENDMDL
MODEL 9
REMARK VINA RESULT:       0.1     11.544     12.319
REMARK  2 active torsions:
REMARK  status: ('A' for Active; 'I' for Inactive)
REMARK    1  A    between atoms: C3_3  and  O1_8 
REMARK    2  A    between atoms: C6_6  and  N1_7 
ROOT
HETATM    1  C1  UNL     1      17.208  12.038  -6.327  1.00  0.00     0.026 A 
HETATM    2  C2  UNL     1      15.884  12.166  -6.754  1.00  0.00     0.038 A 
HETATM    3  C3  UNL     1      14.870  11.533  -6.048  1.00  0.00     0.065 A 
HETATM    4  C4  UNL     1      15.158  10.786  -4.912  1.00  0.00     0.038 A 
HETATM    5  C5  UNL     1      16.486  10.661  -4.492  1.00  0.00     0.026 A 
HETATM    6  C6  UNL     1      17.527  11.243  -5.223  1.00  0.00     0.005 A 
ENDROOT
BRANCH   6   7
HETATM    7  N1  UNL     1      18.837  11.213  -4.730  1.00  0.00    -0.303 NA
HETATM    8  H5  UNL     1      19.082  12.027  -4.175  1.00  0.00     0.124 HD
HETATM    9  H6  UNL     1      19.535  11.000  -5.434  1.00  0.00     0.124 HD
ENDBRANCH   6   7
BRANCH   3  10
HETATM   10  O1  UNL     1      13.592  11.685  -6.494  1.00  0.00    -0.361 OA
HETATM   11  H7  UNL     1      12.984  11.377  -5.803  1.00  0.00     0.217 HD
ENDBRANCH   3  10
TORSDOF 2
ENDMDL
MODEL 10
REMARK VINA RESULT:       0.1      5.454      6.398
REMARK  2 active torsions:
REMARK  status: ('A' for Active; 'I' for Inactive)
REMARK    1  A    between atoms: C3_3  and  O1_8 
REMARK    2  A    between atoms: C6_6  and  N1_7 
ROOT
HETATM    1  C1  UNL     1       7.088   7.298  -5.131  1.00  0.00     0.026 A 
HETATM    2  C2  UNL     1       6.884   8.090  -6.263  1.00  0.00     0.038 A 
HETATM    3  C3  UNL     1       6.661   7.488  -7.493  1.00  0.00     0.065 A 
HETATM    4  C4  UNL     1       6.623   6.102  -7.606  1.00  0.00     0.038 A 
HETATM    5  C5  UNL     1       6.830   5.316  -6.469  1.00  0.00     0.026 A 
HETATM    6  C6  UNL     1       7.114   5.904  -5.232  1.00  0.00     0.005 A 
ENDROOT
BRANCH   6   7
HETATM    7  N1  UNL     1       7.201   5.114  -4.080  1.00  0.00    -0.303 NA
HETATM    8  H5  UNL     1       6.674   5.482  -3.293  1.00  0.00     0.124 HD
HETATM    9  H6  UNL     1       8.150   4.862  -3.826  1.00  0.00     0.124 HD
ENDBRANCH   6   7
BRANCH   3  10
HETATM   10  O1  UNL     1       6.463   8.295  -8.573  1.00  0.00    -0.361 OA
HETATM   11  H7  UNL     1       6.459   9.218  -8.273  1.00  0.00     0.217 HD
ENDBRANCH   3  10
TORSDOF 2
ENDMDL
MODEL 11
REMARK VINA RESULT:       0.4     11.180     12.037
REMARK  2 active torsions:
REMARK  status: ('A' for Active; 'I' for Inactive)
REMARK    1  A    between atoms: C3_3  and  O1_8 
REMARK    2  A    between atoms: C6_6  and  N1_7 
ROOT
HETATM    1  C1  UNL     1      17.075  10.089  -5.655  1.00  0.00     0.026 A 
HETATM    2  C2  UNL     1      15.887   9.404  -5.920  1.00  0.00     0.038 A 
HETATM    3  C3  UNL     1      14.696  10.109  -6.023  1.00  0.00     0.065 A 
HETATM    4  C4  UNL     1      14.677  11.492  -5.881  1.00  0.00     0.038 A 
HETATM    5  C5  UNL     1      15.870  12.170  -5.614  1.00  0.00     0.026 A 
HETATM    6  C6  UNL     1      17.070  11.472  -5.449  1.00  0.00     0.005 A 
ENDROOT
BRANCH   6   7
HETATM    7  N1  UNL     1      18.276  12.167  -5.301  1.00  0.00    -0.303 NA
HETATM    8  H5  UNL     1      18.248  13.113  -5.669  1.00  0.00     0.124 HD
HETATM    9  H6  UNL     1      19.089  11.651  -5.621  1.00  0.00     0.124 HD
ENDBRANCH   6   7
BRANCH   3  10
HETATM   10  O1  UNL     1      13.558   9.406  -6.286  1.00  0.00    -0.361 OA
HETATM   11  H7  UNL     1      13.782   8.662  -6.868  1.00  0.00     0.217 HD
ENDBRANCH   3  10
TORSDOF 2
ENDMDL
MODEL 12
REMARK VINA RESULT:       0.5      4.453      5.329
REMARK  2 active torsions:
REMARK  status: ('A' for Active; 'I' for Inactive)
REMARK    1  A    between atoms: C3_3  and  O1_8 
REMARK    2  A    between atoms: C6_6  and  N1_7 
ROOT
HETATM    1  C1  UNL     1       7.290   8.193  -6.624  1.00  0.00     0.026 A 
HETATM    2  C2  UNL     1       7.472   7.233  -5.625  1.00  0.00     0.038 A 
HETATM    3  C3  UNL     1       6.748   6.050  -5.667  1.00  0.00     0.065 A 
HETATM    4  C4  UNL     1       5.854   5.804  -6.703  1.00  0.00     0.038 A 
HETATM    5  C5  UNL     1       5.675   6.770  -7.698  1.00  0.00     0.026 A 
HETATM    6  C6  UNL     1       6.352   7.992  -7.641  1.00  0.00     0.005 A 
ENDROOT
BRANCH   6   7
HETATM    7  N1  UNL     1       6.257   8.900  -8.702  1.00  0.00    -0.303 NA
HETATM    8  H5  UNL     1       5.465   8.731  -9.314  1.00  0.00     0.124 HD
HETATM    9  H6  UNL     1       7.123   9.023  -9.216  1.00  0.00     0.124 HD
ENDBRANCH   6   7
BRANCH   3  10
HETATM   10  O1  UNL     1       6.957   5.138  -4.677  1.00  0.00    -0.361 OA
HETATM   11  H7  UNL     1       7.869   5.232  -4.357  1.00  0.00     0.217 HD
ENDBRANCH   3  10
TORSDOF 2
ENDMDL
MODEL 13
REMARK VINA RESULT:       0.6     11.080     11.817
REMARK  2 active torsions:
REMARK  status: ('A' for Active; 'I' for Inactive)
REMARK    1  A    between atoms: C3_3  and  O1_8 
REMARK    2  A    between atoms: C6_6  and  N1_7 
ROOT
HETATM    1  C1  UNL     1      15.642   9.629  -6.709  1.00  0.00     0.026 A 
HETATM    2  C2  UNL     1      16.688  10.552  -6.648  1.00  0.00     0.038 A 
HETATM    3  C3  UNL     1      16.896  11.280  -5.485  1.00  0.00     0.065 A 
HETATM    4  C4  UNL     1      16.082  11.087  -4.374  1.00  0.00     0.038 A 
HETATM    5  C5  UNL     1      15.036  10.162  -4.443  1.00  0.00     0.026 A 
HETATM    6  C6  UNL     1      14.774   9.462  -5.625  1.00  0.00     0.005 A 
ENDROOT
BRANCH   6   7
HETATM    7  N1  UNL     1      13.803   8.455  -5.648  1.00  0.00    -0.303 NA
HETATM    8  H5  UNL     1      13.492   8.209  -6.583  1.00  0.00     0.124 HD
HETATM    9  H6  UNL     1      13.029   8.617  -5.013  1.00  0.00     0.124 HD
ENDBRANCH   6   7
BRANCH   3  10
HETATM   10  O1  UNL     1      17.928  12.169  -5.463  1.00  0.00    -0.361 OA
HETATM   11  H7  UNL     1      17.694  12.902  -4.872  1.00  0.00     0.217 HD
ENDBRANCH   3  10
TORSDOF 2
ENDMDL
MODEL 14
REMARK VINA RESULT:       1.0      6.100      7.068
REMARK  2 active torsions:
REMARK  status: ('A' for Active; 'I' for Inactive)
REMARK    1  A    between atoms: C3_3  and  O1_8 
REMARK    2  A    between atoms: C6_6  and  N1_7 
ROOT
HETATM    1  C1  UNL     1       6.798   4.645  -6.011  1.00  0.00     0.026 A 
HETATM    2  C2  UNL     1       7.352   4.722  -7.290  1.00  0.00     0.038 A 
HETATM    3  C3  UNL     1       7.687   5.960  -7.821  1.00  0.00     0.065 A 
HETATM    4  C4  UNL     1       7.491   7.123  -7.084  1.00  0.00     0.038 A 
HETATM    5  C5  UNL     1       6.935   7.038  -5.804  1.00  0.00     0.026 A 
HETATM    6  C6  UNL     1       6.537   5.806  -5.276  1.00  0.00     0.005 A 
ENDROOT
BRANCH   6   7
HETATM    7  N1  UNL     1       6.093   5.718  -3.951  1.00  0.00    -0.303 NA
HETATM    8  H5  UNL     1       5.626   6.556  -3.621  1.00  0.00     0.124 HD
HETATM    9  H6  UNL     1       6.800   5.388  -3.303  1.00  0.00     0.124 HD
ENDBRANCH   6   7
BRANCH   3  10
HETATM   10  O1  UNL     1       8.227   5.993  -9.072  1.00  0.00    -0.361 OA
HETATM   11  H7  UNL     1       7.683   5.445  -9.659  1.00  0.00     0.217 HD
ENDBRANCH   3  10
TORSDOF 2
ENDMDL
MODEL 15
REMARK VINA RESULT:       1.4      6.251      7.090
REMARK  2 active torsions:
REMARK  status: ('A' for Active; 'I' for Inactive)
REMARK    1  A    between atoms: C3_3  and  O1_8 
REMARK    2  A    between atoms: C6_6  and  N1_7 
ROOT
HETATM    1  C1  UNL     1       4.641   5.633  -5.985  1.00  0.00     0.026 A 
HETATM    2  C2  UNL     1       5.479   6.115  -6.992  1.00  0.00     0.038 A 
HETATM    3  C3  UNL     1       6.834   6.277  -6.740  1.00  0.00     0.065 A 
HETATM    4  C4  UNL     1       7.368   5.948  -5.499  1.00  0.00     0.038 A 
HETATM    5  C5  UNL     1       6.522   5.467  -4.495  1.00  0.00     0.026 A 
HETATM    6  C6  UNL     1       5.145   5.352  -4.711  1.00  0.00     0.005 A 
ENDROOT
BRANCH   6   7
HETATM    7  N1  UNL     1       4.327   4.759  -3.743  1.00  0.00    -0.303 NA
HETATM    8  H5  UNL     1       4.095   5.376  -2.972  1.00  0.00     0.124 HD
HETATM    9  H6  UNL     1       4.656   3.853  -3.427  1.00  0.00     0.124 HD
ENDBRANCH   6   7
BRANCH   3  10
HETATM   10  O1  UNL     1       7.619   6.748  -7.750  1.00  0.00    -0.361 OA
HETATM   11  H7  UNL     1       7.743   7.703  -7.627  1.00  0.00     0.217 HD
ENDBRANCH   3  10
TORSDOF 2
ENDMDL
