MODEL 1
REMARK VINA RESULT:      -6.5      0.000      0.000
REMARK  27 active torsions:
REMARK  status: ('A' for Active; 'I' for Inactive)
REMARK    1  A    between atoms: C2_2  and  S1_4 
REMARK    2  A    between atoms: S1_4  and  C3_5 
REMARK    3  A    between atoms: C3_5  and  C4_6 
REMARK    4  A    between atoms: C4_6  and  N1_7 
REMARK       I    between atoms: N1_7  and  C5_8 
REMARK    5  A    between atoms: C5_8  and  C6_10 
REMARK    6  A    between atoms: C6_10  and  C7_11 
REMARK    7  A    between atoms: C7_11  and  N2_12 
REMARK       I    between atoms: N2_12  and  C8_13 
REMARK    8  A    between atoms: C8_13  and  C9_15 
REMARK    9  A    between atoms: C9_15  and  C10_16 
REMARK   10  A    between atoms: C9_15  and  O17_54 
REMARK   11  A    between atoms: C10_16  and  C13_19 
REMARK   12  A    between atoms: C13_19  and  O4_20 
REMARK   13  A    between atoms: O4_20  and  P1_21 
REMARK   14  A    between atoms: P1_21  and  O6_23 
REMARK   15  A    between atoms: P1_21  and  O7_24 
REMARK   16  A    between atoms: O7_24  and  P2_25 
REMARK   17  A    between atoms: P2_25  and  O9_27 
REMARK   18  A    between atoms: P2_25  and  O10_28 
REMARK   19  A    between atoms: O10_28  and  C14_29 
REMARK   20  A    between atoms: C14_29  and  C15_30 
REMARK   21  A    between atoms: C16_31  and  O13_49 
REMARK   22  A    between atoms: C17_32  and  O12_48 
REMARK   23  A    between atoms: C18_33  and  N3_35 
REMARK   24  A    between atoms: C21_40  and  N7_47 
REMARK   25  A    between atoms: O13_49  and  P3_50 
REMARK   26  A    between atoms: P3_50  and  O15_52 
REMARK   27  A    between atoms: P3_50  and  O16_53 
ROOT
HETATM    1  C1  UNL     1       0.857   6.884  -6.621  1.00  0.00     0.104 C 
HETATM    2  C2  UNL     1       0.850   7.920  -7.703  1.00  0.00     0.182 C 
HETATM    3  O1  UNL     1       0.014   8.817  -7.773  1.00  0.00    -0.286 OA
ENDROOT
BRANCH   2   4
HETATM    4  S1  UNL     1       2.123   7.725  -8.901  1.00  0.00    -0.091 SA
BRANCH   4   5
HETATM    5  C3  UNL     1       2.643   9.459  -9.105  1.00  0.00     0.102 C 
BRANCH   5   6
HETATM    6  C4  UNL     1       4.013   9.568  -9.777  1.00  0.00     0.133 C 
BRANCH   6   7
HETATM    7  N1  UNL     1       4.417  10.940 -10.005  1.00  0.00    -0.360 N 
HETATM    8  C5  UNL     1       5.312  11.578  -9.178  1.00  0.00     0.219 C 
HETATM    9  O2  UNL     1       5.757  11.059  -8.161  1.00  0.00    -0.274 OA
HETATM   10  H8  UNL     1       4.034  11.434 -10.799  1.00  0.00     0.162 HD
BRANCH   8  11
HETATM   11  C6  UNL     1       5.641  12.986  -9.625  1.00  0.00     0.122 C 
BRANCH  11  12
HETATM   12  C7  UNL     1       6.882  13.533  -8.920  1.00  0.00     0.132 C 
BRANCH  12  13
HETATM   13  N2  UNL     1       7.940  13.902  -9.838  1.00  0.00    -0.358 N 
HETATM   14  C8  UNL     1       9.166  13.266  -9.780  1.00  0.00     0.247 C 
HETATM   15  O3  UNL     1       9.445  12.468  -8.894  1.00  0.00    -0.271 OA
HETATM   16  H13 UNL     1       7.632  14.237 -10.749  1.00  0.00     0.162 HD
BRANCH  14  17
HETATM   17  C9  UNL     1      10.133  13.625 -10.918  1.00  0.00     0.219 C 
BRANCH  17  18
HETATM   18  C10 UNL     1      10.981  14.899 -10.664  1.00  0.00     0.009 C 
HETATM   19  C11 UNL     1      10.426  16.121 -11.411  1.00  0.00     0.020 C 
HETATM   20  C12 UNL     1      11.042  15.247  -9.163  1.00  0.00     0.020 C 
BRANCH  18  21
HETATM   21  C13 UNL     1      12.409  14.573 -11.185  1.00  0.00     0.192 C 
BRANCH  21  22
HETATM   22  O4  UNL     1      13.280  14.165 -10.150  1.00  0.00    -0.296 OA
BRANCH  22  23
HETATM   23  P1  UNL     1      14.443  13.082 -10.366  1.00  0.00     0.401 P 
HETATM   24  O5  UNL     1      15.515  13.517 -11.315  1.00  0.00    -0.631 OA
BRANCH  23  25
HETATM   25  O6  UNL     1      13.724  11.705 -10.786  1.00  0.00    -0.307 OA
HETATM   26  H23 UNL     1      12.914  11.858 -11.288  1.00  0.00     0.222 HD
ENDBRANCH  23  25
BRANCH  23  27
HETATM   27  O7  UNL     1      14.954  12.731  -8.901  1.00  0.00    -0.195 OA
BRANCH  27  28
HETATM   28  P2  UNL     1      13.993  11.917  -7.925  1.00  0.00     0.401 P 
HETATM   29  O8  UNL     1      14.117  12.199  -6.463  1.00  0.00    -0.631 OA
BRANCH  28  30
HETATM   30  O9  UNL     1      12.539  12.201  -8.521  1.00  0.00    -0.307 OA
HETATM   31  H24 UNL     1      12.542  12.510  -9.460  1.00  0.00     0.222 HD
ENDBRANCH  28  30
BRANCH  28  32
HETATM   32  O10 UNL     1      14.198  10.395  -8.361  1.00  0.00    -0.294 OA
BRANCH  32  33
HETATM   33  C14 UNL     1      14.208   9.381  -7.390  1.00  0.00     0.215 C 
BRANCH  33  34
HETATM   34  C15 UNL     1      13.778   8.101  -8.105  1.00  0.00     0.180 C 
HETATM   35  C16 UNL     1      13.435   8.412  -9.556  1.00  0.00     0.197 C 
HETATM   36  C17 UNL     1      11.966   8.057  -9.689  1.00  0.00     0.199 C 
HETATM   37  C18 UNL     1      11.784   7.016  -8.581  1.00  0.00     0.262 C 
HETATM   38  O11 UNL     1      12.631   7.486  -7.508  1.00  0.00    -0.353 OA
BRANCH  35  39
HETATM   39  O13 UNL     1      14.260   7.602 -10.387  1.00  0.00    -0.286 OA
BRANCH  39  40
HETATM   40  P3  UNL     1      15.080   8.384 -11.515  1.00  0.00     0.391 P 
HETATM   41  O14 UNL     1      15.992   7.509 -12.313  1.00  0.00    -0.632 OA
BRANCH  40  42
HETATM   42  O15 UNL     1      15.746   9.551 -10.646  1.00  0.00    -0.307 OA
HETATM   43  H36 UNL     1      15.538   9.434  -9.689  1.00  0.00     0.222 HD
ENDBRANCH  40  42
BRANCH  40  44
HETATM   44  O16 UNL     1      13.912   9.133 -12.292  1.00  0.00    -0.307 OA
HETATM   45  H37 UNL     1      13.052   8.698 -12.188  1.00  0.00     0.222 HD
ENDBRANCH  40  44
ENDBRANCH  39  40
ENDBRANCH  35  39
BRANCH  36  46
HETATM   46  O12 UNL     1      11.673   7.648 -11.027  1.00  0.00    -0.388 OA
HETATM   47  H35 UNL     1      10.919   7.015 -10.966  1.00  0.00     0.210 HD
ENDBRANCH  36  46
BRANCH  37  48
HETATM   48  N3  UNL     1      10.419   6.947  -8.101  1.00  0.00    -0.297 N 
HETATM   49  C19 UNL     1       9.292   7.424  -8.729  1.00  0.00     0.188 A 
HETATM   50  N4  UNL     1       8.189   7.092  -8.094  1.00  0.00    -0.346 N 
HETATM   51  C20 UNL     1       8.622   6.360  -7.003  1.00  0.00     0.116 A 
HETATM   52  H4  UNL     1       7.229   7.322  -8.349  1.00  0.00     0.167 HD
HETATM   53  C21 UNL     1       7.938   5.694  -5.970  1.00  0.00     0.109 A 
HETATM   54  C23 UNL     1      10.003   6.296  -6.973  1.00  0.00     0.142 A 
HETATM   55  N5  UNL     1       8.663   5.058  -5.017  1.00  0.00    -0.341 N 
HETATM   56  C22 UNL     1      10.007   5.099  -5.104  1.00  0.00     0.183 A 
HETATM   57  H5  UNL     1       8.202   4.561  -4.255  1.00  0.00     0.167 HD
HETATM   58  N6  UNL     1      10.768   5.694  -6.045  1.00  0.00    -0.336 N 
HETATM   59  H6  UNL     1      11.788   5.688  -6.053  1.00  0.00     0.168 HD
BRANCH  53  60
HETATM   60  N7  UNL     1       6.557   5.661  -5.869  1.00  0.00    -0.287 NA
HETATM   61  H33 UNL     1       6.211   5.358  -4.961  1.00  0.00     0.125 HD
HETATM   62  H34 UNL     1       6.110   5.260  -6.683  1.00  0.00     0.125 HD
ENDBRANCH  53  60
ENDBRANCH  37  48
ENDBRANCH  33  34
ENDBRANCH  32  33
ENDBRANCH  28  32
ENDBRANCH  27  28
ENDBRANCH  23  27
ENDBRANCH  22  23
ENDBRANCH  21  22
ENDBRANCH  18  21
ENDBRANCH  17  18
BRANCH  17  63
HETATM   63  O17 UNL     1      11.021  12.532 -11.173  1.00  0.00    -0.385 OA
HETATM   64  H38 UNL     1      10.561  11.897 -11.747  1.00  0.00     0.210 HD
ENDBRANCH  17  63
ENDBRANCH  14  17
ENDBRANCH  12  13
ENDBRANCH  11  12
ENDBRANCH   8  11
ENDBRANCH   6   7
ENDBRANCH   5   6
ENDBRANCH   4   5
ENDBRANCH   2   4
TORSDOF 27
ENDMDL
MODEL 2
REMARK VINA RESULT:      -6.5      5.467      9.141
REMARK  27 active torsions:
REMARK  status: ('A' for Active; 'I' for Inactive)
REMARK    1  A    between atoms: C2_2  and  S1_4 
REMARK    2  A    between atoms: S1_4  and  C3_5 
REMARK    3  A    between atoms: C3_5  and  C4_6 
REMARK    4  A    between atoms: C4_6  and  N1_7 
REMARK       I    between atoms: N1_7  and  C5_8 
REMARK    5  A    between atoms: C5_8  and  C6_10 
REMARK    6  A    between atoms: C6_10  and  C7_11 
REMARK    7  A    between atoms: C7_11  and  N2_12 
REMARK       I    between atoms: N2_12  and  C8_13 
REMARK    8  A    between atoms: C8_13  and  C9_15 
REMARK    9  A    between atoms: C9_15  and  C10_16 
REMARK   10  A    between atoms: C9_15  and  O17_54 
REMARK   11  A    between atoms: C10_16  and  C13_19 
REMARK   12  A    between atoms: C13_19  and  O4_20 
REMARK   13  A    between atoms: O4_20  and  P1_21 
REMARK   14  A    between atoms: P1_21  and  O6_23 
REMARK   15  A    between atoms: P1_21  and  O7_24 
REMARK   16  A    between atoms: O7_24  and  P2_25 
REMARK   17  A    between atoms: P2_25  and  O9_27 
REMARK   18  A    between atoms: P2_25  and  O10_28 
REMARK   19  A    between atoms: O10_28  and  C14_29 
REMARK   20  A    between atoms: C14_29  and  C15_30 
REMARK   21  A    between atoms: C16_31  and  O13_49 
REMARK   22  A    between atoms: C17_32  and  O12_48 
REMARK   23  A    between atoms: C18_33  and  N3_35 
REMARK   24  A    between atoms: C21_40  and  N7_47 
REMARK   25  A    between atoms: O13_49  and  P3_50 
REMARK   26  A    between atoms: P3_50  and  O15_52 
REMARK   27  A    between atoms: P3_50  and  O16_53 
ROOT
HETATM    1  C1  UNL     1      13.625   2.043 -14.900  1.00  0.00     0.104 C 
HETATM    2  C2  UNL     1      14.953   2.683 -14.636  1.00  0.00     0.182 C 
HETATM    3  O1  UNL     1      15.107   3.898 -14.528  1.00  0.00    -0.286 OA
ENDROOT
BRANCH   2   4
HETATM    4  S1  UNL     1      16.296   1.553 -14.532  1.00  0.00    -0.091 SA
BRANCH   4   5
HETATM    5  C3  UNL     1      17.354   2.182 -15.875  1.00  0.00     0.102 C 
BRANCH   5   6
HETATM    6  C4  UNL     1      18.464   3.092 -15.346  1.00  0.00     0.133 C 
BRANCH   6   7
HETATM    7  N1  UNL     1      18.053   4.478 -15.251  1.00  0.00    -0.360 N 
HETATM    8  C5  UNL     1      18.874   5.506 -15.653  1.00  0.00     0.219 C 
HETATM    9  O2  UNL     1      20.023   5.322 -16.037  1.00  0.00    -0.274 OA
HETATM   10  H8  UNL     1      17.134   4.689 -14.885  1.00  0.00     0.162 HD
BRANCH   8  11
HETATM   11  C6  UNL     1      18.233   6.871 -15.522  1.00  0.00     0.122 C 
BRANCH  11  12
HETATM   12  C7  UNL     1      19.272   7.991 -15.512  1.00  0.00     0.132 C 
BRANCH  12  13
HETATM   13  N2  UNL     1      19.996   8.083 -14.261  1.00  0.00    -0.358 N 
HETATM   14  C8  UNL     1      19.378   8.591 -13.134  1.00  0.00     0.247 C 
HETATM   15  O3  UNL     1      18.259   9.085 -13.171  1.00  0.00    -0.271 OA
HETATM   16  H13 UNL     1      20.716   7.377 -14.120  1.00  0.00     0.162 HD
BRANCH  14  17
HETATM   17  C9  UNL     1      20.196   8.467 -11.840  1.00  0.00     0.219 C 
BRANCH  17  18
HETATM   18  C10 UNL     1      20.854   9.790 -11.366  1.00  0.00     0.009 C 
HETATM   19  C11 UNL     1      22.337   9.603 -11.010  1.00  0.00     0.020 C 
HETATM   20  C12 UNL     1      20.760  10.886 -12.447  1.00  0.00     0.020 C 
BRANCH  18  21
HETATM   21  C13 UNL     1      20.064  10.231 -10.101  1.00  0.00     0.192 C 
BRANCH  21  22
HETATM   22  O4  UNL     1      18.790  10.753 -10.417  1.00  0.00    -0.296 OA
BRANCH  22  23
HETATM   23  P1  UNL     1      18.056  11.860  -9.519  1.00  0.00     0.401 P 
HETATM   24  O5  UNL     1      18.573  13.250  -9.717  1.00  0.00    -0.631 OA
BRANCH  23  25
HETATM   25  O6  UNL     1      18.133  11.349  -7.995  1.00  0.00    -0.307 OA
HETATM   26  H23 UNL     1      17.868  12.036  -7.369  1.00  0.00     0.222 HD
ENDBRANCH  23  25
BRANCH  23  27
HETATM   27  O7  UNL     1      16.506  11.678  -9.828  1.00  0.00    -0.195 OA
BRANCH  27  28
HETATM   28  P2  UNL     1      15.470  11.713  -8.618  1.00  0.00     0.401 P 
HETATM   29  O8  UNL     1      15.765  12.662  -7.502  1.00  0.00    -0.631 OA
BRANCH  28  30
HETATM   30  O9  UNL     1      14.070  11.973  -9.340  1.00  0.00    -0.307 OA
HETATM   31  H24 UNL     1      14.034  12.813  -9.859  1.00  0.00     0.222 HD
ENDBRANCH  28  30
BRANCH  28  32
HETATM   32  O10 UNL     1      15.307  10.180  -8.204  1.00  0.00    -0.294 OA
BRANCH  32  33
HETATM   33  C14 UNL     1      14.162   9.757  -7.512  1.00  0.00     0.215 C 
BRANCH  33  34
HETATM   34  C15 UNL     1      13.787   8.397  -8.098  1.00  0.00     0.180 C 
HETATM   35  C16 UNL     1      13.480   8.542  -9.583  1.00  0.00     0.197 C 
HETATM   36  C17 UNL     1      12.026   8.133  -9.717  1.00  0.00     0.199 C 
HETATM   37  C18 UNL     1      11.837   7.211  -8.510  1.00  0.00     0.262 C 
HETATM   38  O11 UNL     1      12.638   7.815  -7.470  1.00  0.00    -0.353 OA
BRANCH  35  39
HETATM   39  O13 UNL     1      14.351   7.674 -10.300  1.00  0.00    -0.286 OA
BRANCH  39  40
HETATM   40  P3  UNL     1      15.320   8.385 -11.353  1.00  0.00     0.391 P 
HETATM   41  O14 UNL     1      15.464   7.638 -12.640  1.00  0.00    -0.632 OA
BRANCH  40  42
HETATM   42  O15 UNL     1      16.633   8.587 -10.463  1.00  0.00    -0.307 OA
HETATM   43  H36 UNL     1      17.333   9.057 -10.975  1.00  0.00     0.222 HD
ENDBRANCH  40  42
BRANCH  40  44
HETATM   44  O16 UNL     1      14.697   9.847 -11.417  1.00  0.00    -0.307 OA
HETATM   45  H37 UNL     1      13.734   9.852 -11.299  1.00  0.00     0.222 HD
ENDBRANCH  40  44
ENDBRANCH  39  40
ENDBRANCH  35  39
BRANCH  36  46
HETATM   46  O12 UNL     1      11.784   7.577 -11.012  1.00  0.00    -0.388 OA
HETATM   47  H35 UNL     1      11.241   8.240 -11.502  1.00  0.00     0.210 HD
ENDBRANCH  36  46
BRANCH  37  48
HETATM   48  N3  UNL     1      10.460   7.153  -8.063  1.00  0.00    -0.297 N 
HETATM   49  C19 UNL     1       9.363   7.715  -8.675  1.00  0.00     0.188 A 
HETATM   50  N4  UNL     1       8.236   7.375  -8.088  1.00  0.00    -0.346 N 
HETATM   51  C20 UNL     1       8.621   6.548  -7.048  1.00  0.00     0.116 A 
HETATM   52  H4  UNL     1       7.290   7.658  -8.343  1.00  0.00     0.167 HD
HETATM   53  C21 UNL     1       7.893   5.831  -6.082  1.00  0.00     0.109 A 
HETATM   54  C23 UNL     1       9.998   6.434  -6.997  1.00  0.00     0.142 A 
HETATM   55  N5  UNL     1       8.574   5.100  -5.167  1.00  0.00    -0.341 N 
HETATM   56  C22 UNL     1       9.921   5.100  -5.224  1.00  0.00     0.183 A 
HETATM   57  H5  UNL     1       8.081   4.563  -4.453  1.00  0.00     0.167 HD
HETATM   58  N6  UNL     1      10.722   5.737  -6.103  1.00  0.00    -0.336 N 
HETATM   59  H6  UNL     1      11.741   5.697  -6.091  1.00  0.00     0.168 HD
BRANCH  53  60
HETATM   60  N7  UNL     1       6.509   5.838  -6.010  1.00  0.00    -0.287 NA
HETATM   61  H33 UNL     1       6.134   6.351  -5.215  1.00  0.00     0.125 HD
HETATM   62  H34 UNL     1       6.099   4.935  -6.204  1.00  0.00     0.125 HD
ENDBRANCH  53  60
ENDBRANCH  37  48
ENDBRANCH  33  34
ENDBRANCH  32  33
ENDBRANCH  28  32
ENDBRANCH  27  28
ENDBRANCH  23  27
ENDBRANCH  22  23
ENDBRANCH  21  22
ENDBRANCH  18  21
ENDBRANCH  17  18
BRANCH  17  63
HETATM   63  O17 UNL     1      19.372   7.966 -10.782  1.00  0.00    -0.385 OA
HETATM   64  H38 UNL     1      18.590   8.539 -10.711  1.00  0.00     0.210 HD
ENDBRANCH  17  63
ENDBRANCH  14  17
ENDBRANCH  12  13
ENDBRANCH  11  12
ENDBRANCH   8  11
ENDBRANCH   6   7
ENDBRANCH   5   6
ENDBRANCH   4   5
ENDBRANCH   2   4
TORSDOF 27
ENDMDL
MODEL 3
REMARK VINA RESULT:      -6.5      5.003      8.632
REMARK  27 active torsions:
REMARK  status: ('A' for Active; 'I' for Inactive)
REMARK    1  A    between atoms: C2_2  and  S1_4 
REMARK    2  A    between atoms: S1_4  and  C3_5 
REMARK    3  A    between atoms: C3_5  and  C4_6 
REMARK    4  A    between atoms: C4_6  and  N1_7 
REMARK       I    between atoms: N1_7  and  C5_8 
REMARK    5  A    between atoms: C5_8  and  C6_10 
REMARK    6  A    between atoms: C6_10  and  C7_11 
REMARK    7  A    between atoms: C7_11  and  N2_12 
REMARK       I    between atoms: N2_12  and  C8_13 
REMARK    8  A    between atoms: C8_13  and  C9_15 
REMARK    9  A    between atoms: C9_15  and  C10_16 
REMARK   10  A    between atoms: C9_15  and  O17_54 
REMARK   11  A    between atoms: C10_16  and  C13_19 
REMARK   12  A    between atoms: C13_19  and  O4_20 
REMARK   13  A    between atoms: O4_20  and  P1_21 
REMARK   14  A    between atoms: P1_21  and  O6_23 
REMARK   15  A    between atoms: P1_21  and  O7_24 
REMARK   16  A    between atoms: O7_24  and  P2_25 
REMARK   17  A    between atoms: P2_25  and  O9_27 
REMARK   18  A    between atoms: P2_25  and  O10_28 
REMARK   19  A    between atoms: O10_28  and  C14_29 
REMARK   20  A    between atoms: C14_29  and  C15_30 
REMARK   21  A    between atoms: C16_31  and  O13_49 
REMARK   22  A    between atoms: C17_32  and  O12_48 
REMARK   23  A    between atoms: C18_33  and  N3_35 
REMARK   24  A    between atoms: C21_40  and  N7_47 
REMARK   25  A    between atoms: O13_49  and  P3_50 
REMARK   26  A    between atoms: P3_50  and  O15_52 
REMARK   27  A    between atoms: P3_50  and  O16_53 
ROOT
HETATM    1  C1  UNL     1      14.960   3.213 -14.524  1.00  0.00     0.104 C 
HETATM    2  C2  UNL     1      16.326   2.945 -15.077  1.00  0.00     0.182 C 
HETATM    3  O1  UNL     1      16.633   1.894 -15.636  1.00  0.00    -0.286 OA
ENDROOT
BRANCH   2   4
HETATM    4  S1  UNL     1      17.479   4.249 -14.828  1.00  0.00    -0.091 SA
BRANCH   4   5
HETATM    5  C3  UNL     1      16.338   5.625 -14.472  1.00  0.00     0.102 C 
BRANCH   5   6
HETATM    6  C4  UNL     1      16.748   6.907 -15.200  1.00  0.00     0.133 C 
BRANCH   6   7
HETATM    7  N1  UNL     1      17.792   7.634 -14.509  1.00  0.00    -0.360 N 
HETATM    8  C5  UNL     1      18.966   7.985 -15.134  1.00  0.00     0.219 C 
HETATM    9  O2  UNL     1      19.233   7.638 -16.279  1.00  0.00    -0.274 OA
HETATM   10  H8  UNL     1      17.646   7.894 -13.542  1.00  0.00     0.162 HD
BRANCH   8  11
HETATM   11  C6  UNL     1      19.898   8.787 -14.253  1.00  0.00     0.122 C 
BRANCH  11  12
HETATM   12  C7  UNL     1      19.850   8.321 -12.798  1.00  0.00     0.132 C 
BRANCH  12  13
HETATM   13  N2  UNL     1      19.126   9.230 -11.934  1.00  0.00    -0.358 N 
HETATM   14  C8  UNL     1      19.760   9.824 -10.859  1.00  0.00     0.247 C 
HETATM   15  O3  UNL     1      20.899   9.522 -10.526  1.00  0.00    -0.271 OA
HETATM   16  H13 UNL     1      18.377   9.755 -12.381  1.00  0.00     0.162 HD
BRANCH  14  17
HETATM   17  C9  UNL     1      18.933  10.897 -10.135  1.00  0.00     0.219 C 
BRANCH  17  18
HETATM   18  C10 UNL     1      18.896  12.272 -10.851  1.00  0.00     0.009 C 
HETATM   19  C11 UNL     1      20.150  12.513 -11.705  1.00  0.00     0.020 C 
HETATM   20  C12 UNL     1      17.665  12.399 -11.770  1.00  0.00     0.020 C 
BRANCH  18  21
HETATM   21  C13 UNL     1      18.820  13.339  -9.722  1.00  0.00     0.192 C 
BRANCH  21  22
HETATM   22  O4  UNL     1      17.528  13.435  -9.158  1.00  0.00    -0.296 OA
BRANCH  22  23
HETATM   23  P1  UNL     1      17.248  13.258  -7.589  1.00  0.00     0.401 P 
HETATM   24  O5  UNL     1      16.518  14.406  -6.965  1.00  0.00    -0.631 OA
BRANCH  23  25
HETATM   25  O6  UNL     1      18.665  12.936  -6.897  1.00  0.00    -0.307 OA
HETATM   26  H23 UNL     1      18.891  11.998  -6.955  1.00  0.00     0.222 HD
ENDBRANCH  23  25
BRANCH  23  27
HETATM   27  O7  UNL     1      16.513  11.853  -7.459  1.00  0.00    -0.195 OA
BRANCH  27  28
HETATM   28  P2  UNL     1      15.016  11.715  -7.984  1.00  0.00     0.401 P 
HETATM   29  O8  UNL     1      13.947  12.355  -7.159  1.00  0.00    -0.631 OA
BRANCH  28  30
HETATM   30  O9  UNL     1      15.100  12.267  -9.480  1.00  0.00    -0.307 OA
HETATM   31  H24 UNL     1      14.249  12.210  -9.980  1.00  0.00     0.222 HD
ENDBRANCH  28  30
BRANCH  28  32
HETATM   32  O10 UNL     1      14.844  10.151  -8.257  1.00  0.00    -0.294 OA
BRANCH  32  33
HETATM   33  C14 UNL     1      14.165   9.347  -7.329  1.00  0.00     0.215 C 
BRANCH  33  34
HETATM   34  C15 UNL     1      13.768   8.075  -8.077  1.00  0.00     0.180 C 
HETATM   35  C16 UNL     1      13.513   8.398  -9.543  1.00  0.00     0.197 C 
HETATM   36  C17 UNL     1      12.052   8.056  -9.764  1.00  0.00     0.199 C 
HETATM   37  C18 UNL     1      11.797   7.010  -8.676  1.00  0.00     0.262 C 
HETATM   38  O11 UNL     1      12.582   7.466  -7.552  1.00  0.00    -0.353 OA
BRANCH  35  39
HETATM   39  O13 UNL     1      14.379   7.587 -10.330  1.00  0.00    -0.286 OA
BRANCH  39  40
HETATM   40  P3  UNL     1      15.187   8.353 -11.477  1.00  0.00     0.391 P 
HETATM   41  O14 UNL     1      16.641   8.008 -11.523  1.00  0.00    -0.632 OA
BRANCH  40  42
HETATM   42  O15 UNL     1      14.796   9.870 -11.156  1.00  0.00    -0.307 OA
HETATM   43  H36 UNL     1      15.593  10.388 -10.891  1.00  0.00     0.222 HD
ENDBRANCH  40  42
BRANCH  40  44
HETATM   44  O16 UNL     1      14.309   8.016 -12.760  1.00  0.00    -0.307 OA
HETATM   45  H37 UNL     1      14.234   8.766 -13.372  1.00  0.00     0.222 HD
ENDBRANCH  40  44
ENDBRANCH  39  40
ENDBRANCH  35  39
BRANCH  36  46
HETATM   46  O12 UNL     1      11.835   7.659 -11.120  1.00  0.00    -0.388 OA
HETATM   47  H35 UNL     1      12.485   8.163 -11.665  1.00  0.00     0.210 HD
ENDBRANCH  36  46
BRANCH  37  48
HETATM   48  N3  UNL     1      10.405   6.949  -8.277  1.00  0.00    -0.297 N 
HETATM   49  C19 UNL     1       9.317   7.400  -8.987  1.00  0.00     0.188 A 
HETATM   50  N4  UNL     1       8.178   7.083  -8.410  1.00  0.00    -0.346 N 
HETATM   51  C20 UNL     1       8.546   6.389  -7.271  1.00  0.00     0.116 A 
HETATM   52  H4  UNL     1       7.235   7.301  -8.730  1.00  0.00     0.167 HD
HETATM   53  C21 UNL     1       7.804   5.753  -6.261  1.00  0.00     0.109 A 
HETATM   54  C23 UNL     1       9.924   6.332  -7.157  1.00  0.00     0.142 A 
HETATM   55  N5  UNL     1       8.471   5.151  -5.246  1.00  0.00    -0.341 N 
HETATM   56  C22 UNL     1       9.818   5.197  -5.253  1.00  0.00     0.183 A 
HETATM   57  H5  UNL     1       7.967   4.677  -4.497  1.00  0.00     0.167 HD
HETATM   58  N6  UNL     1      10.633   5.765  -6.165  1.00  0.00    -0.336 N 
HETATM   59  H6  UNL     1      11.652   5.764  -6.111  1.00  0.00     0.168 HD
BRANCH  53  60
HETATM   60  N7  UNL     1       6.419   5.716  -6.242  1.00  0.00    -0.287 NA
HETATM   61  H33 UNL     1       5.981   5.970  -7.125  1.00  0.00     0.125 HD
HETATM   62  H34 UNL     1       6.025   6.123  -5.404  1.00  0.00     0.125 HD
ENDBRANCH  53  60
ENDBRANCH  37  48
ENDBRANCH  33  34
ENDBRANCH  32  33
ENDBRANCH  28  32
ENDBRANCH  27  28
ENDBRANCH  23  27
ENDBRANCH  22  23
ENDBRANCH  21  22
ENDBRANCH  18  21
ENDBRANCH  17  18
BRANCH  17  63
HETATM   63  O17 UNL     1      17.587  10.443  -9.954  1.00  0.00    -0.385 OA
HETATM   64  H38 UNL     1      17.405  10.410  -9.000  1.00  0.00     0.210 HD
ENDBRANCH  17  63
ENDBRANCH  14  17
ENDBRANCH  12  13
ENDBRANCH  11  12
ENDBRANCH   8  11
ENDBRANCH   6   7
ENDBRANCH   5   6
ENDBRANCH   4   5
ENDBRANCH   2   4
TORSDOF 27
ENDMDL
MODEL 4
REMARK VINA RESULT:      -6.2      2.707      4.006
REMARK  27 active torsions:
REMARK  status: ('A' for Active; 'I' for Inactive)
REMARK    1  A    between atoms: C2_2  and  S1_4 
REMARK    2  A    between atoms: S1_4  and  C3_5 
REMARK    3  A    between atoms: C3_5  and  C4_6 
REMARK    4  A    between atoms: C4_6  and  N1_7 
REMARK       I    between atoms: N1_7  and  C5_8 
REMARK    5  A    between atoms: C5_8  and  C6_10 
REMARK    6  A    between atoms: C6_10  and  C7_11 
REMARK    7  A    between atoms: C7_11  and  N2_12 
REMARK       I    between atoms: N2_12  and  C8_13 
REMARK    8  A    between atoms: C8_13  and  C9_15 
REMARK    9  A    between atoms: C9_15  and  C10_16 
REMARK   10  A    between atoms: C9_15  and  O17_54 
REMARK   11  A    between atoms: C10_16  and  C13_19 
REMARK   12  A    between atoms: C13_19  and  O4_20 
REMARK   13  A    between atoms: O4_20  and  P1_21 
REMARK   14  A    between atoms: P1_21  and  O6_23 
REMARK   15  A    between atoms: P1_21  and  O7_24 
REMARK   16  A    between atoms: O7_24  and  P2_25 
REMARK   17  A    between atoms: P2_25  and  O9_27 
REMARK   18  A    between atoms: P2_25  and  O10_28 
REMARK   19  A    between atoms: O10_28  and  C14_29 
REMARK   20  A    between atoms: C14_29  and  C15_30 
REMARK   21  A    between atoms: C16_31  and  O13_49 
REMARK   22  A    between atoms: C17_32  and  O12_48 
REMARK   23  A    between atoms: C18_33  and  N3_35 
REMARK   24  A    between atoms: C21_40  and  N7_47 
REMARK   25  A    between atoms: O13_49  and  P3_50 
REMARK   26  A    between atoms: P3_50  and  O15_52 
REMARK   27  A    between atoms: P3_50  and  O16_53 
ROOT
HETATM    1  C1  UNL     1       7.218   8.050  -6.906  1.00  0.00     0.104 C 
HETATM    2  C2  UNL     1       7.346   9.031  -8.031  1.00  0.00     0.182 C 
HETATM    3  O1  UNL     1       8.240   8.978  -8.873  1.00  0.00    -0.286 OA
ENDROOT
BRANCH   2   4
HETATM    4  S1  UNL     1       6.129  10.300  -8.029  1.00  0.00    -0.091 SA
BRANCH   4   5
HETATM    5  C3  UNL     1       4.994   9.662  -9.303  1.00  0.00     0.102 C 
BRANCH   5   6
HETATM    6  C4  UNL     1       4.420  10.785 -10.169  1.00  0.00     0.133 C 
BRANCH   6   7
HETATM    7  N1  UNL     1       4.641  12.098  -9.600  1.00  0.00    -0.360 N 
HETATM    8  C5  UNL     1       5.283  13.092 -10.302  1.00  0.00     0.219 C 
HETATM    9  O2  UNL     1       5.774  12.907 -11.409  1.00  0.00    -0.274 OA
HETATM   10  H8  UNL     1       4.306  12.286  -8.665  1.00  0.00     0.162 HD
BRANCH   8  11
HETATM   11  C6  UNL     1       5.361  14.403  -9.549  1.00  0.00     0.122 C 
BRANCH  11  12
HETATM   12  C7  UNL     1       6.612  15.200  -9.919  1.00  0.00     0.132 C 
BRANCH  12  13
HETATM   13  N2  UNL     1       7.787  14.788  -9.180  1.00  0.00    -0.358 N 
HETATM   14  C8  UNL     1       8.269  15.569  -8.146  1.00  0.00     0.247 C 
HETATM   15  O3  UNL     1       7.807  16.675  -7.895  1.00  0.00    -0.271 OA
HETATM   16  H13 UNL     1       7.930  13.782  -9.109  1.00  0.00     0.162 HD
BRANCH  14  17
HETATM   17  C9  UNL     1       9.407  14.933  -7.334  1.00  0.00     0.219 C 
BRANCH  17  18
HETATM   18  C10 UNL     1      10.812  15.523  -7.625  1.00  0.00     0.009 C 
HETATM   19  C11 UNL     1      10.954  15.988  -9.082  1.00  0.00     0.020 C 
HETATM   20  C12 UNL     1      11.120  16.726  -6.710  1.00  0.00     0.020 C 
BRANCH  18  21
HETATM   21  C13 UNL     1      11.824  14.376  -7.343  1.00  0.00     0.192 C 
BRANCH  21  22
HETATM   22  O4  UNL     1      12.252  14.355  -5.996  1.00  0.00    -0.296 OA
BRANCH  22  23
HETATM   23  P1  UNL     1      13.671  13.763  -5.542  1.00  0.00     0.401 P 
HETATM   24  O5  UNL     1      13.787  13.510  -4.072  1.00  0.00    -0.631 OA
BRANCH  23  25
HETATM   25  O6  UNL     1      14.797  14.759  -6.120  1.00  0.00    -0.307 OA
HETATM   26  H23 UNL     1      15.690  14.455  -5.912  1.00  0.00     0.222 HD
ENDBRANCH  23  25
BRANCH  23  27
HETATM   27  O7  UNL     1      13.893  12.481  -6.457  1.00  0.00    -0.195 OA
BRANCH  27  28
HETATM   28  P2  UNL     1      15.212  11.610  -6.255  1.00  0.00     0.401 P 
HETATM   29  O8  UNL     1      16.420  12.321  -5.741  1.00  0.00    -0.631 OA
BRANCH  28  30
HETATM   30  O9  UNL     1      14.718  10.408  -5.327  1.00  0.00    -0.307 OA
HETATM   31  H24 UNL     1      14.463   9.593  -5.824  1.00  0.00     0.222 HD
ENDBRANCH  28  30
BRANCH  28  32
HETATM   32  O10 UNL     1      15.390  10.850  -7.649  1.00  0.00    -0.294 OA
BRANCH  32  33
HETATM   33  C14 UNL     1      15.111  11.517  -8.853  1.00  0.00     0.215 C 
BRANCH  33  34
HETATM   34  C15 UNL     1      14.192  10.592  -9.649  1.00  0.00     0.180 C 
HETATM   35  C16 UNL     1      12.784  11.172  -9.685  1.00  0.00     0.197 C 
HETATM   36  C17 UNL     1      11.925  10.140  -8.979  1.00  0.00     0.199 C 
HETATM   37  C18 UNL     1      12.728   8.854  -9.189  1.00  0.00     0.262 C 
HETATM   38  O11 UNL     1      14.107   9.275  -9.094  1.00  0.00    -0.353 OA
BRANCH  35  39
HETATM   39  O13 UNL     1      12.410  11.339 -11.049  1.00  0.00    -0.286 OA
BRANCH  39  40
HETATM   40  P3  UNL     1      11.970  12.818 -11.466  1.00  0.00     0.391 P 
HETATM   41  O14 UNL     1      12.950  13.874 -11.070  1.00  0.00    -0.632 OA
BRANCH  40  42
HETATM   42  O15 UNL     1      10.506  12.887 -10.823  1.00  0.00    -0.307 OA
HETATM   43  H36 UNL     1      10.118  13.787 -10.936  1.00  0.00     0.222 HD
ENDBRANCH  40  42
BRANCH  40  44
HETATM   44  O16 UNL     1      11.674  12.632 -13.018  1.00  0.00    -0.307 OA
HETATM   45  H37 UNL     1      12.006  13.369 -13.555  1.00  0.00     0.222 HD
ENDBRANCH  40  44
ENDBRANCH  39  40
ENDBRANCH  35  39
BRANCH  36  46
HETATM   46  O12 UNL     1      10.590  10.172  -9.491  1.00  0.00    -0.388 OA
HETATM   47  H35 UNL     1       9.992  10.190  -8.706  1.00  0.00     0.210 HD
ENDBRANCH  36  46
BRANCH  37  48
HETATM   48  N3  UNL     1      12.471   7.864  -8.162  1.00  0.00    -0.297 N 
HETATM   49  C19 UNL     1      13.198   7.649  -7.014  1.00  0.00     0.188 A 
HETATM   50  N4  UNL     1      12.632   6.762  -6.225  1.00  0.00    -0.346 N 
HETATM   51  C20 UNL     1      11.480   6.386  -6.893  1.00  0.00     0.116 A 
HETATM   52  H4  UNL     1      12.968   6.426  -5.323  1.00  0.00     0.167 HD
HETATM   53  C21 UNL     1      10.431   5.510  -6.563  1.00  0.00     0.109 A 
HETATM   54  C23 UNL     1      11.388   7.032  -8.112  1.00  0.00     0.142 A 
HETATM   55  N5  UNL     1       9.422   5.341  -7.453  1.00  0.00    -0.341 N 
HETATM   56  C22 UNL     1       9.477   6.021  -8.616  1.00  0.00     0.183 A 
HETATM   57  H5  UNL     1       8.642   4.717  -7.247  1.00  0.00     0.167 HD
HETATM   58  N6  UNL     1      10.421   6.889  -9.035  1.00  0.00    -0.336 N 
HETATM   59  H6  UNL     1      10.403   7.373  -9.933  1.00  0.00     0.168 HD
BRANCH  53  60
HETATM   60  N7  UNL     1      10.377   4.798  -5.375  1.00  0.00    -0.287 NA
HETATM   61  H33 UNL     1      10.732   5.304  -4.567  1.00  0.00     0.125 HD
HETATM   62  H34 UNL     1      10.675   3.837  -5.478  1.00  0.00     0.125 HD
ENDBRANCH  53  60
ENDBRANCH  37  48
ENDBRANCH  33  34
ENDBRANCH  32  33
ENDBRANCH  28  32
ENDBRANCH  27  28
ENDBRANCH  23  27
ENDBRANCH  22  23
ENDBRANCH  21  22
ENDBRANCH  18  21
ENDBRANCH  17  18
BRANCH  17  63
HETATM   63  O17 UNL     1       9.143  15.058  -5.933  1.00  0.00    -0.385 OA
HETATM   64  H38 UNL     1       8.914  15.985  -5.751  1.00  0.00     0.210 HD
ENDBRANCH  17  63
ENDBRANCH  14  17
ENDBRANCH  12  13
ENDBRANCH  11  12
ENDBRANCH   8  11
ENDBRANCH   6   7
ENDBRANCH   5   6
ENDBRANCH   4   5
ENDBRANCH   2   4
TORSDOF 27
ENDMDL
MODEL 5
REMARK VINA RESULT:      -6.0      5.099      8.788
REMARK  27 active torsions:
REMARK  status: ('A' for Active; 'I' for Inactive)
REMARK    1  A    between atoms: C2_2  and  S1_4 
REMARK    2  A    between atoms: S1_4  and  C3_5 
REMARK    3  A    between atoms: C3_5  and  C4_6 
REMARK    4  A    between atoms: C4_6  and  N1_7 
REMARK       I    between atoms: N1_7  and  C5_8 
REMARK    5  A    between atoms: C5_8  and  C6_10 
REMARK    6  A    between atoms: C6_10  and  C7_11 
REMARK    7  A    between atoms: C7_11  and  N2_12 
REMARK       I    between atoms: N2_12  and  C8_13 
REMARK    8  A    between atoms: C8_13  and  C9_15 
REMARK    9  A    between atoms: C9_15  and  C10_16 
REMARK   10  A    between atoms: C9_15  and  O17_54 
REMARK   11  A    between atoms: C10_16  and  C13_19 
REMARK   12  A    between atoms: C13_19  and  O4_20 
REMARK   13  A    between atoms: O4_20  and  P1_21 
REMARK   14  A    between atoms: P1_21  and  O6_23 
REMARK   15  A    between atoms: P1_21  and  O7_24 
REMARK   16  A    between atoms: O7_24  and  P2_25 
REMARK   17  A    between atoms: P2_25  and  O9_27 
REMARK   18  A    between atoms: P2_25  and  O10_28 
REMARK   19  A    between atoms: O10_28  and  C14_29 
REMARK   20  A    between atoms: C14_29  and  C15_30 
REMARK   21  A    between atoms: C16_31  and  O13_49 
REMARK   22  A    between atoms: C17_32  and  O12_48 
REMARK   23  A    between atoms: C18_33  and  N3_35 
REMARK   24  A    between atoms: C21_40  and  N7_47 
REMARK   25  A    between atoms: O13_49  and  P3_50 
REMARK   26  A    between atoms: P3_50  and  O15_52 
REMARK   27  A    between atoms: P3_50  and  O16_53 
ROOT
HETATM    1  C1  UNL     1      16.230   1.519 -14.533  1.00  0.00     0.104 C 
HETATM    2  C2  UNL     1      17.433   1.840 -15.368  1.00  0.00     0.182 C 
HETATM    3  O1  UNL     1      17.382   2.023 -16.581  1.00  0.00    -0.286 OA
ENDROOT
BRANCH   2   4
HETATM    4  S1  UNL     1      18.944   1.893 -14.471  1.00  0.00    -0.091 SA
BRANCH   4   5
HETATM    5  C3  UNL     1      18.710   3.437 -13.533  1.00  0.00     0.102 C 
BRANCH   5   6
HETATM    6  C4  UNL     1      18.380   4.616 -14.450  1.00  0.00     0.133 C 
BRANCH   6   7
HETATM    7  N1  UNL     1      18.202   5.857 -13.723  1.00  0.00    -0.360 N 
HETATM    8  C5  UNL     1      17.892   7.034 -14.365  1.00  0.00     0.219 C 
HETATM    9  O2  UNL     1      17.829   7.123 -15.586  1.00  0.00    -0.274 OA
HETATM   10  H8  UNL     1      18.301   5.850 -12.717  1.00  0.00     0.162 HD
BRANCH   8  11
HETATM   11  C6  UNL     1      17.695   8.198 -13.419  1.00  0.00     0.122 C 
BRANCH  11  12
HETATM   12  C7  UNL     1      18.469   8.012 -12.115  1.00  0.00     0.132 C 
BRANCH  12  13
HETATM   13  N2  UNL     1      18.133   8.998 -11.109  1.00  0.00    -0.358 N 
HETATM   14  C8  UNL     1      18.906  10.134 -10.962  1.00  0.00     0.247 C 
HETATM   15  O3  UNL     1      19.952  10.295 -11.578  1.00  0.00    -0.271 OA
HETATM   16  H13 UNL     1      17.143   9.076 -10.886  1.00  0.00     0.162 HD
BRANCH  14  17
HETATM   17  C9  UNL     1      18.340  11.177  -9.986  1.00  0.00     0.219 C 
BRANCH  17  18
HETATM   18  C10 UNL     1      18.035  12.557 -10.626  1.00  0.00     0.009 C 
HETATM   19  C11 UNL     1      19.276  13.177 -11.284  1.00  0.00     0.020 C 
HETATM   20  C12 UNL     1      16.931  12.451 -11.698  1.00  0.00     0.020 C 
BRANCH  18  21
HETATM   21  C13 UNL     1      17.550  13.468  -9.462  1.00  0.00     0.192 C 
BRANCH  21  22
HETATM   22  O4  UNL     1      16.150  13.665  -9.480  1.00  0.00    -0.296 OA
BRANCH  22  23
HETATM   23  P1  UNL     1      15.251  13.640  -8.152  1.00  0.00     0.401 P 
HETATM   24  O5  UNL     1      14.137  14.639  -8.149  1.00  0.00    -0.631 OA
BRANCH  23  25
HETATM   25  O6  UNL     1      16.258  13.786  -6.905  1.00  0.00    -0.307 OA
HETATM   26  H23 UNL     1      15.920  14.396  -6.237  1.00  0.00     0.222 HD
ENDBRANCH  23  25
BRANCH  23  27
HETATM   27  O7  UNL     1      14.787  12.126  -7.999  1.00  0.00    -0.195 OA
BRANCH  27  28
HETATM   28  P2  UNL     1      15.097  11.360  -6.637  1.00  0.00     0.401 P 
HETATM   29  O8  UNL     1      16.533  11.102  -6.318  1.00  0.00    -0.631 OA
BRANCH  28  30
HETATM   30  O9  UNL     1      14.334  12.236  -5.542  1.00  0.00    -0.307 OA
HETATM   31  H24 UNL     1      14.933  12.718  -4.921  1.00  0.00     0.222 HD
ENDBRANCH  28  30
BRANCH  28  32
HETATM   32  O10 UNL     1      14.153  10.073  -6.694  1.00  0.00    -0.294 OA
BRANCH  32  33
HETATM   33  C14 UNL     1      14.607   8.846  -6.186  1.00  0.00     0.215 C 
BRANCH  33  34
HETATM   34  C15 UNL     1      14.031   7.766  -7.100  1.00  0.00     0.180 C 
HETATM   35  C16 UNL     1      13.132   8.406  -8.150  1.00  0.00     0.197 C 
HETATM   36  C17 UNL     1      11.757   7.822  -7.886  1.00  0.00     0.199 C 
HETATM   37  C18 UNL     1      12.095   6.494  -7.206  1.00  0.00     0.262 C 
HETATM   38  O11 UNL     1      13.252   6.793  -6.394  1.00  0.00    -0.353 OA
BRANCH  35  39
HETATM   39  O13 UNL     1      13.629   8.047  -9.435  1.00  0.00    -0.286 OA
BRANCH  39  40
HETATM   40  P3  UNL     1      13.809   9.255 -10.467  1.00  0.00     0.391 P 
HETATM   41  O14 UNL     1      15.191   9.373 -11.021  1.00  0.00    -0.632 OA
BRANCH  40  42
HETATM   42  O15 UNL     1      13.252  10.476  -9.597  1.00  0.00    -0.307 OA
HETATM   43  H36 UNL     1      12.958  11.215 -10.182  1.00  0.00     0.222 HD
ENDBRANCH  40  42
BRANCH  40  44
HETATM   44  O16 UNL     1      12.626   8.972 -11.492  1.00  0.00    -0.307 OA
HETATM   45  H37 UNL     1      12.716   9.473 -12.318  1.00  0.00     0.222 HD
ENDBRANCH  40  44
ENDBRANCH  39  40
ENDBRANCH  35  39
BRANCH  36  46
HETATM   46  O12 UNL     1      11.000   7.765  -9.098  1.00  0.00    -0.388 OA
HETATM   47  H35 UNL     1      11.210   6.896  -9.516  1.00  0.00     0.210 HD
ENDBRANCH  36  46
BRANCH  37  48
HETATM   48  N3  UNL     1      11.030   6.023  -6.343  1.00  0.00    -0.297 N 
HETATM   49  C19 UNL     1      11.099   5.790  -4.989  1.00  0.00     0.188 A 
HETATM   50  N4  UNL     1       9.926   5.490  -4.474  1.00  0.00    -0.346 N 
HETATM   51  C20 UNL     1       9.053   5.536  -5.547  1.00  0.00     0.116 A 
HETATM   52  H4  UNL     1       9.709   5.273  -3.502  1.00  0.00     0.167 HD
HETATM   53  C21 UNL     1       7.663   5.355  -5.652  1.00  0.00     0.109 A 
HETATM   54  C23 UNL     1       9.730   5.826  -6.717  1.00  0.00     0.142 A 
HETATM   55  N5  UNL     1       7.086   5.456  -6.874  1.00  0.00    -0.341 N 
HETATM   56  C22 UNL     1       7.876   5.721  -7.933  1.00  0.00     0.183 A 
HETATM   57  H5  UNL     1       6.080   5.335  -6.989  1.00  0.00     0.167 HD
HETATM   58  N6  UNL     1       9.210   5.922  -7.954  1.00  0.00    -0.336 N 
HETATM   59  H6  UNL     1       9.752   6.119  -8.795  1.00  0.00     0.168 HD
BRANCH  53  60
HETATM   60  N7  UNL     1       6.847   5.068  -4.569  1.00  0.00    -0.287 NA
HETATM   61  H33 UNL     1       7.148   4.266  -4.019  1.00  0.00     0.125 HD
HETATM   62  H34 UNL     1       5.862   5.124  -4.790  1.00  0.00     0.125 HD
ENDBRANCH  53  60
ENDBRANCH  37  48
ENDBRANCH  33  34
ENDBRANCH  32  33
ENDBRANCH  28  32
ENDBRANCH  27  28
ENDBRANCH  23  27
ENDBRANCH  22  23
ENDBRANCH  21  22
ENDBRANCH  18  21
ENDBRANCH  17  18
BRANCH  17  63
HETATM   63  O17 UNL     1      17.142  10.683  -9.378  1.00  0.00    -0.385 OA
HETATM   64  H38 UNL     1      17.187   9.712  -9.367  1.00  0.00     0.210 HD
ENDBRANCH  17  63
ENDBRANCH  14  17
ENDBRANCH  12  13
ENDBRANCH  11  12
ENDBRANCH   8  11
ENDBRANCH   6   7
ENDBRANCH   5   6
ENDBRANCH   4   5
ENDBRANCH   2   4
TORSDOF 27
ENDMDL
MODEL 6
REMARK VINA RESULT:      -5.8      4.605      7.725
REMARK  27 active torsions:
REMARK  status: ('A' for Active; 'I' for Inactive)
REMARK    1  A    between atoms: C2_2  and  S1_4 
REMARK    2  A    between atoms: S1_4  and  C3_5 
REMARK    3  A    between atoms: C3_5  and  C4_6 
REMARK    4  A    between atoms: C4_6  and  N1_7 
REMARK       I    between atoms: N1_7  and  C5_8 
REMARK    5  A    between atoms: C5_8  and  C6_10 
REMARK    6  A    between atoms: C6_10  and  C7_11 
REMARK    7  A    between atoms: C7_11  and  N2_12 
REMARK       I    between atoms: N2_12  and  C8_13 
REMARK    8  A    between atoms: C8_13  and  C9_15 
REMARK    9  A    between atoms: C9_15  and  C10_16 
REMARK   10  A    between atoms: C9_15  and  O17_54 
REMARK   11  A    between atoms: C10_16  and  C13_19 
REMARK   12  A    between atoms: C13_19  and  O4_20 
REMARK   13  A    between atoms: O4_20  and  P1_21 
REMARK   14  A    between atoms: P1_21  and  O6_23 
REMARK   15  A    between atoms: P1_21  and  O7_24 
REMARK   16  A    between atoms: O7_24  and  P2_25 
REMARK   17  A    between atoms: P2_25  and  O9_27 
REMARK   18  A    between atoms: P2_25  and  O10_28 
REMARK   19  A    between atoms: O10_28  and  C14_29 
REMARK   20  A    between atoms: C14_29  and  C15_30 
REMARK   21  A    between atoms: C16_31  and  O13_49 
REMARK   22  A    between atoms: C17_32  and  O12_48 
REMARK   23  A    between atoms: C18_33  and  N3_35 
REMARK   24  A    between atoms: C21_40  and  N7_47 
REMARK   25  A    between atoms: O13_49  and  P3_50 
REMARK   26  A    between atoms: P3_50  and  O15_52 
REMARK   27  A    between atoms: P3_50  and  O16_53 
ROOT
HETATM    1  C1  UNL     1       7.203   7.309  -6.413  1.00  0.00     0.104 C 
HETATM    2  C2  UNL     1       7.386   6.170  -5.456  1.00  0.00     0.182 C 
HETATM    3  O1  UNL     1       6.515   5.802  -4.672  1.00  0.00    -0.286 OA
ENDROOT
BRANCH   2   4
HETATM    4  S1  UNL     1       8.975   5.421  -5.517  1.00  0.00    -0.091 SA
BRANCH   4   5
HETATM    5  C3  UNL     1       9.626   6.165  -7.047  1.00  0.00     0.102 C 
BRANCH   5   6
HETATM    6  C4  UNL     1      10.847   5.408  -7.574  1.00  0.00     0.133 C 
BRANCH   6   7
HETATM    7  N1  UNL     1      12.003   6.264  -7.750  1.00  0.00    -0.360 N 
HETATM    8  C5  UNL     1      12.597   6.905  -6.688  1.00  0.00     0.219 C 
HETATM    9  O2  UNL     1      12.142   6.858  -5.551  1.00  0.00    -0.274 OA
HETATM   10  H8  UNL     1      12.382   6.384  -8.679  1.00  0.00     0.162 HD
BRANCH   8  11
HETATM   11  C6  UNL     1      13.821   7.705  -7.079  1.00  0.00     0.122 C 
BRANCH  11  12
HETATM   12  C7  UNL     1      14.162   8.772  -6.040  1.00  0.00     0.132 C 
BRANCH  12  13
HETATM   13  N2  UNL     1      14.987   9.837  -6.570  1.00  0.00    -0.358 N 
HETATM   14  C8  UNL     1      15.917  10.465  -5.763  1.00  0.00     0.247 C 
HETATM   15  O3  UNL     1      15.998  10.237  -4.562  1.00  0.00    -0.271 OA
HETATM   16  H13 UNL     1      15.201   9.773  -7.563  1.00  0.00     0.162 HD
BRANCH  14  17
HETATM   17  C9  UNL     1      16.845  11.448  -6.493  1.00  0.00     0.219 C 
BRANCH  17  18
HETATM   18  C10 UNL     1      16.790  12.903  -5.956  1.00  0.00     0.009 C 
HETATM   19  C11 UNL     1      15.397  13.271  -5.425  1.00  0.00     0.020 C 
HETATM   20  C12 UNL     1      17.806  13.124  -4.818  1.00  0.00     0.020 C 
BRANCH  18  21
HETATM   21  C13 UNL     1      17.147  13.817  -7.163  1.00  0.00     0.192 C 
BRANCH  21  22
HETATM   22  O4  UNL     1      18.492  13.671  -7.570  1.00  0.00    -0.296 OA
BRANCH  22  23
HETATM   23  P1  UNL     1      18.923  13.468  -9.101  1.00  0.00     0.401 P 
HETATM   24  O5  UNL     1      20.247  14.071  -9.450  1.00  0.00    -0.631 OA
BRANCH  23  25
HETATM   25  O6  UNL     1      17.704  14.010 -10.002  1.00  0.00    -0.307 OA
HETATM   26  H23 UNL     1      16.856  13.642  -9.724  1.00  0.00     0.222 HD
ENDBRANCH  23  25
BRANCH  23  27
HETATM   27  O7  UNL     1      18.819  11.900  -9.352  1.00  0.00    -0.195 OA
BRANCH  27  28
HETATM   28  P2  UNL     1      17.917  11.371 -10.554  1.00  0.00     0.401 P 
HETATM   29  O8  UNL     1      18.116  12.020 -11.885  1.00  0.00    -0.631 OA
BRANCH  28  30
HETATM   30  O9  UNL     1      18.188   9.798 -10.550  1.00  0.00    -0.307 OA
HETATM   31  H24 UNL     1      19.063   9.538 -10.929  1.00  0.00     0.222 HD
ENDBRANCH  28  30
BRANCH  28  32
HETATM   32  O10 UNL     1      16.432  11.416  -9.971  1.00  0.00    -0.294 OA
BRANCH  32  33
HETATM   33  C14 UNL     1      15.762  10.221  -9.663  1.00  0.00     0.215 C 
BRANCH  33  34
HETATM   34  C15 UNL     1      14.768   9.984 -10.799  1.00  0.00     0.180 C 
HETATM   35  C16 UNL     1      13.593   9.159 -10.291  1.00  0.00     0.197 C 
HETATM   36  C17 UNL     1      13.641   7.880 -11.107  1.00  0.00     0.199 C 
HETATM   37  C18 UNL     1      14.363   8.335 -12.378  1.00  0.00     0.262 C 
HETATM   38  O11 UNL     1      15.343   9.287 -11.909  1.00  0.00    -0.353 OA
BRANCH  35  39
HETATM   39  O13 UNL     1      12.400   9.900 -10.524  1.00  0.00    -0.286 OA
BRANCH  39  40
HETATM   40  P3  UNL     1      11.546  10.258  -9.221  1.00  0.00     0.391 P 
HETATM   41  O14 UNL     1      12.373  10.728  -8.069  1.00  0.00    -0.632 OA
BRANCH  40  42
HETATM   42  O15 UNL     1      10.709   8.908  -9.031  1.00  0.00    -0.307 OA
HETATM   43  H36 UNL     1      10.591   8.703  -8.073  1.00  0.00     0.222 HD
ENDBRANCH  40  42
BRANCH  40  44
HETATM   44  O16 UNL     1      10.472  11.269  -9.817  1.00  0.00    -0.307 OA
HETATM   45  H37 UNL     1      10.873  11.976 -10.346  1.00  0.00     0.222 HD
ENDBRANCH  40  44
ENDBRANCH  39  40
ENDBRANCH  35  39
BRANCH  36  46
HETATM   46  O12 UNL     1      12.326   7.338 -11.257  1.00  0.00    -0.388 OA
HETATM   47  H35 UNL     1      11.918   7.807 -12.023  1.00  0.00     0.210 HD
ENDBRANCH  36  46
BRANCH  37  48
HETATM   48  N3  UNL     1      15.050   7.248 -13.046  1.00  0.00    -0.297 N 
HETATM   49  C19 UNL     1      14.511   6.052 -13.458  1.00  0.00     0.188 A 
HETATM   50  N4  UNL     1      15.367   5.330 -14.147  1.00  0.00    -0.346 N 
HETATM   51  C20 UNL     1      16.516   6.099 -14.190  1.00  0.00     0.116 A 
HETATM   52  H4  UNL     1      15.217   4.409 -14.560  1.00  0.00     0.167 HD
HETATM   53  C21 UNL     1      17.766   5.911 -14.806  1.00  0.00     0.109 A 
HETATM   54  C23 UNL     1      16.347   7.272 -13.478  1.00  0.00     0.142 A 
HETATM   55  N5  UNL     1      18.716   6.865 -14.651  1.00  0.00    -0.341 N 
HETATM   56  C22 UNL     1      18.416   7.949 -13.907  1.00  0.00     0.183 A 
HETATM   57  H5  UNL     1      19.633   6.765 -15.085  1.00  0.00     0.167 HD
HETATM   58  N6  UNL     1      17.258   8.241 -13.281  1.00  0.00    -0.336 N 
HETATM   59  H6  UNL     1      17.095   9.084 -12.730  1.00  0.00     0.168 HD
BRANCH  53  60
HETATM   60  N7  UNL     1      18.084   4.791 -15.558  1.00  0.00    -0.287 NA
HETATM   61  H33 UNL     1      19.033   4.789 -15.925  1.00  0.00     0.125 HD
HETATM   62  H34 UNL     1      17.348   4.524 -16.198  1.00  0.00     0.125 HD
ENDBRANCH  53  60
ENDBRANCH  37  48
ENDBRANCH  33  34
ENDBRANCH  32  33
ENDBRANCH  28  32
ENDBRANCH  27  28
ENDBRANCH  23  27
ENDBRANCH  22  23
ENDBRANCH  21  22
ENDBRANCH  18  21
ENDBRANCH  17  18
BRANCH  17  63
HETATM   63  O17 UNL     1      18.200  10.990  -6.426  1.00  0.00    -0.385 OA
HETATM   64  H38 UNL     1      18.506  11.087  -5.508  1.00  0.00     0.210 HD
ENDBRANCH  17  63
ENDBRANCH  14  17
ENDBRANCH  12  13
ENDBRANCH  11  12
ENDBRANCH   8  11
ENDBRANCH   6   7
ENDBRANCH   5   6
ENDBRANCH   4   5
ENDBRANCH   2   4
TORSDOF 27
ENDMDL
MODEL 7
REMARK VINA RESULT:      -5.7      5.172      7.081
REMARK  27 active torsions:
REMARK  status: ('A' for Active; 'I' for Inactive)
REMARK    1  A    between atoms: C2_2  and  S1_4 
REMARK    2  A    between atoms: S1_4  and  C3_5 
REMARK    3  A    between atoms: C3_5  and  C4_6 
REMARK    4  A    between atoms: C4_6  and  N1_7 
REMARK       I    between atoms: N1_7  and  C5_8 
REMARK    5  A    between atoms: C5_8  and  C6_10 
REMARK    6  A    between atoms: C6_10  and  C7_11 
REMARK    7  A    between atoms: C7_11  and  N2_12 
REMARK       I    between atoms: N2_12  and  C8_13 
REMARK    8  A    between atoms: C8_13  and  C9_15 
REMARK    9  A    between atoms: C9_15  and  C10_16 
REMARK   10  A    between atoms: C9_15  and  O17_54 
REMARK   11  A    between atoms: C10_16  and  C13_19 
REMARK   12  A    between atoms: C13_19  and  O4_20 
REMARK   13  A    between atoms: O4_20  and  P1_21 
REMARK   14  A    between atoms: P1_21  and  O6_23 
REMARK   15  A    between atoms: P1_21  and  O7_24 
REMARK   16  A    between atoms: O7_24  and  P2_25 
REMARK   17  A    between atoms: P2_25  and  O9_27 
REMARK   18  A    between atoms: P2_25  and  O10_28 
REMARK   19  A    between atoms: O10_28  and  C14_29 
REMARK   20  A    between atoms: C14_29  and  C15_30 
REMARK   21  A    between atoms: C16_31  and  O13_49 
REMARK   22  A    between atoms: C17_32  and  O12_48 
REMARK   23  A    between atoms: C18_33  and  N3_35 
REMARK   24  A    between atoms: C21_40  and  N7_47 
REMARK   25  A    between atoms: O13_49  and  P3_50 
REMARK   26  A    between atoms: P3_50  and  O15_52 
REMARK   27  A    between atoms: P3_50  and  O16_53 
ROOT
HETATM    1  C1  UNL     1       6.119  16.086  -2.443  1.00  0.00     0.104 C 
HETATM    2  C2  UNL     1       7.035  15.762  -1.302  1.00  0.00     0.182 C 
HETATM    3  O1  UNL     1       6.911  14.761  -0.601  1.00  0.00    -0.286 OA
ENDROOT
BRANCH   2   4
HETATM    4  S1  UNL     1       8.290  16.960  -1.018  1.00  0.00    -0.091 SA
BRANCH   4   5
HETATM    5  C3  UNL     1       9.360  16.657  -2.461  1.00  0.00     0.102 C 
BRANCH   5   6
HETATM    6  C4  UNL     1      10.160  15.361  -2.315  1.00  0.00     0.133 C 
BRANCH   6   7
HETATM    7  N1  UNL     1      11.364  15.532  -1.527  1.00  0.00    -0.360 N 
HETATM    8  C5  UNL     1      12.588  15.755  -2.115  1.00  0.00     0.219 C 
HETATM    9  O2  UNL     1      12.749  15.742  -3.330  1.00  0.00    -0.274 OA
HETATM   10  H8  UNL     1      11.295  15.493  -0.519  1.00  0.00     0.162 HD
BRANCH   8  11
HETATM   11  C6  UNL     1      13.704  15.961  -1.114  1.00  0.00     0.122 C 
BRANCH  11  12
HETATM   12  C7  UNL     1      14.928  15.106  -1.439  1.00  0.00     0.132 C 
BRANCH  12  13
HETATM   13  N2  UNL     1      15.530  15.437  -2.714  1.00  0.00    -0.358 N 
HETATM   14  C8  UNL     1      16.726  16.129  -2.761  1.00  0.00     0.247 C 
HETATM   15  O3  UNL     1      17.254  16.586  -1.755  1.00  0.00    -0.271 OA
HETATM   16  H13 UNL     1      15.340  14.783  -3.471  1.00  0.00     0.162 HD
BRANCH  14  17
HETATM   17  C9  UNL     1      17.341  16.258  -4.162  1.00  0.00     0.219 C 
BRANCH  17  18
HETATM   18  C10 UNL     1      18.203  15.046  -4.601  1.00  0.00     0.009 C 
HETATM   19  C11 UNL     1      19.544  15.480  -5.211  1.00  0.00     0.020 C 
HETATM   20  C12 UNL     1      18.502  14.107  -3.414  1.00  0.00     0.020 C 
BRANCH  18  21
HETATM   21  C13 UNL     1      17.363  14.289  -5.669  1.00  0.00     0.192 C 
BRANCH  21  22
HETATM   22  O4  UNL     1      16.425  13.405  -5.090  1.00  0.00    -0.296 OA
BRANCH  22  23
HETATM   23  P1  UNL     1      14.916  13.270  -5.614  1.00  0.00     0.401 P 
HETATM   24  O5  UNL     1      14.520  14.310  -6.614  1.00  0.00    -0.631 OA
BRANCH  23  25
HETATM   25  O6  UNL     1      13.972  13.230  -4.310  1.00  0.00    -0.307 OA
HETATM   26  H23 UNL     1      13.862  12.333  -3.971  1.00  0.00     0.222 HD
ENDBRANCH  23  25
BRANCH  23  27
HETATM   27  O7  UNL     1      14.793  11.770  -6.131  1.00  0.00    -0.195 OA
BRANCH  27  28
HETATM   28  P2  UNL     1      15.649  11.319  -7.396  1.00  0.00     0.401 P 
HETATM   29  O8  UNL     1      15.651  12.237  -8.574  1.00  0.00    -0.631 OA
BRANCH  28  30
HETATM   30  O9  UNL     1      17.097  11.046  -6.780  1.00  0.00    -0.307 OA
HETATM   31  H24 UNL     1      17.507  10.196  -7.074  1.00  0.00     0.222 HD
ENDBRANCH  28  30
BRANCH  28  32
HETATM   32  O10 UNL     1      15.163   9.824  -7.677  1.00  0.00    -0.294 OA
BRANCH  32  33
HETATM   33  C14 UNL     1      13.982   9.347  -7.088  1.00  0.00     0.215 C 
BRANCH  33  34
HETATM   34  C15 UNL     1      13.592   8.093  -7.870  1.00  0.00     0.180 C 
HETATM   35  C16 UNL     1      13.361   8.449  -9.333  1.00  0.00     0.197 C 
HETATM   36  C17 UNL     1      11.903   8.118  -9.584  1.00  0.00     0.199 C 
HETATM   37  C18 UNL     1      11.627   7.049  -8.524  1.00  0.00     0.262 C 
HETATM   38  O11 UNL     1      12.396   7.477  -7.378  1.00  0.00    -0.353 OA
BRANCH  35  39
HETATM   39  O13 UNL     1      14.237   7.652 -10.124  1.00  0.00    -0.286 OA
BRANCH  39  40
HETATM   40  P3  UNL     1      15.192   8.459 -11.120  1.00  0.00     0.391 P 
HETATM   41  O14 UNL     1      16.631   8.067 -11.024  1.00  0.00    -0.632 OA
BRANCH  40  42
HETATM   42  O15 UNL     1      14.809   9.967 -10.747  1.00  0.00    -0.307 OA
HETATM   43  H36 UNL     1      15.218  10.599 -11.385  1.00  0.00     0.222 HD
ENDBRANCH  40  42
BRANCH  40  44
HETATM   44  O16 UNL     1      14.459   8.233 -12.513  1.00  0.00    -0.307 OA
HETATM   45  H37 UNL     1      13.500   8.373 -12.460  1.00  0.00     0.222 HD
ENDBRANCH  40  44
ENDBRANCH  39  40
ENDBRANCH  35  39
BRANCH  36  46
HETATM   46  O12 UNL     1      11.706   7.752 -10.952  1.00  0.00    -0.388 OA
HETATM   47  H35 UNL     1      12.220   6.921 -11.094  1.00  0.00     0.210 HD
ENDBRANCH  36  46
BRANCH  37  48
HETATM   48  N3  UNL     1      10.229   6.985  -8.149  1.00  0.00    -0.297 N 
HETATM   49  C19 UNL     1       9.156   7.480  -8.853  1.00  0.00     0.188 A 
HETATM   50  N4  UNL     1       8.006   7.149  -8.307  1.00  0.00    -0.346 N 
HETATM   51  C20 UNL     1       8.350   6.399  -7.196  1.00  0.00     0.116 A 
HETATM   52  H4  UNL     1       7.069   7.391  -8.630  1.00  0.00     0.167 HD
HETATM   53  C21 UNL     1       7.586   5.725  -6.228  1.00  0.00     0.109 A 
HETATM   54  C23 UNL     1       9.724   6.323  -7.065  1.00  0.00     0.142 A 
HETATM   55  N5  UNL     1       8.232   5.071  -5.232  1.00  0.00    -0.341 N 
HETATM   56  C22 UNL     1       9.579   5.102  -5.217  1.00  0.00     0.183 A 
HETATM   57  H5  UNL     1       7.711   4.568  -4.513  1.00  0.00     0.167 HD
HETATM   58  N6  UNL     1      10.413   5.702  -6.090  1.00  0.00    -0.336 N 
HETATM   59  H6  UNL     1      11.431   5.688  -6.021  1.00  0.00     0.168 HD
BRANCH  53  60
HETATM   60  N7  UNL     1       6.200   5.702  -6.230  1.00  0.00    -0.287 NA
HETATM   61  H33 UNL     1       5.791   5.059  -5.556  1.00  0.00     0.125 HD
HETATM   62  H34 UNL     1       5.807   5.697  -7.162  1.00  0.00     0.125 HD
ENDBRANCH  53  60
ENDBRANCH  37  48
ENDBRANCH  33  34
ENDBRANCH  32  33
ENDBRANCH  28  32
ENDBRANCH  27  28
ENDBRANCH  23  27
ENDBRANCH  22  23
ENDBRANCH  21  22
ENDBRANCH  18  21
ENDBRANCH  17  18
BRANCH  17  63
HETATM   63  O17 UNL     1      16.310  16.459  -5.136  1.00  0.00    -0.385 OA
HETATM   64  H38 UNL     1      15.471  16.593  -4.664  1.00  0.00     0.210 HD
ENDBRANCH  17  63
ENDBRANCH  14  17
ENDBRANCH  12  13
ENDBRANCH  11  12
ENDBRANCH   8  11
ENDBRANCH   6   7
ENDBRANCH   5   6
ENDBRANCH   4   5
ENDBRANCH   2   4
TORSDOF 27
ENDMDL
MODEL 8
REMARK VINA RESULT:      -5.7      5.595      9.556
REMARK  27 active torsions:
REMARK  status: ('A' for Active; 'I' for Inactive)
REMARK    1  A    between atoms: C2_2  and  S1_4 
REMARK    2  A    between atoms: S1_4  and  C3_5 
REMARK    3  A    between atoms: C3_5  and  C4_6 
REMARK    4  A    between atoms: C4_6  and  N1_7 
REMARK       I    between atoms: N1_7  and  C5_8 
REMARK    5  A    between atoms: C5_8  and  C6_10 
REMARK    6  A    between atoms: C6_10  and  C7_11 
REMARK    7  A    between atoms: C7_11  and  N2_12 
REMARK       I    between atoms: N2_12  and  C8_13 
REMARK    8  A    between atoms: C8_13  and  C9_15 
REMARK    9  A    between atoms: C9_15  and  C10_16 
REMARK   10  A    between atoms: C9_15  and  O17_54 
REMARK   11  A    between atoms: C10_16  and  C13_19 
REMARK   12  A    between atoms: C13_19  and  O4_20 
REMARK   13  A    between atoms: O4_20  and  P1_21 
REMARK   14  A    between atoms: P1_21  and  O6_23 
REMARK   15  A    between atoms: P1_21  and  O7_24 
REMARK   16  A    between atoms: O7_24  and  P2_25 
REMARK   17  A    between atoms: P2_25  and  O9_27 
REMARK   18  A    between atoms: P2_25  and  O10_28 
REMARK   19  A    between atoms: O10_28  and  C14_29 
REMARK   20  A    between atoms: C14_29  and  C15_30 
REMARK   21  A    between atoms: C16_31  and  O13_49 
REMARK   22  A    between atoms: C17_32  and  O12_48 
REMARK   23  A    between atoms: C18_33  and  N3_35 
REMARK   24  A    between atoms: C21_40  and  N7_47 
REMARK   25  A    between atoms: O13_49  and  P3_50 
REMARK   26  A    between atoms: P3_50  and  O15_52 
REMARK   27  A    between atoms: P3_50  and  O16_53 
ROOT
HETATM    1  C1  UNL     1      16.977   3.138 -15.275  1.00  0.00     0.104 C 
HETATM    2  C2  UNL     1      17.826   2.709 -14.117  1.00  0.00     0.182 C 
HETATM    3  O1  UNL     1      17.490   2.852 -12.944  1.00  0.00    -0.286 OA
ENDROOT
BRANCH   2   4
HETATM    4  S1  UNL     1      19.374   2.012 -14.573  1.00  0.00    -0.091 SA
BRANCH   4   5
HETATM    5  C3  UNL     1      19.505   2.608 -16.290  1.00  0.00     0.102 C 
BRANCH   5   6
HETATM    6  C4  UNL     1      20.534   3.732 -16.426  1.00  0.00     0.133 C 
BRANCH   6   7
HETATM    7  N1  UNL     1      20.520   4.642 -15.300  1.00  0.00    -0.360 N 
HETATM    8  C5  UNL     1      19.754   5.784 -15.300  1.00  0.00     0.219 C 
HETATM    9  O2  UNL     1      19.103   6.142 -16.276  1.00  0.00    -0.274 OA
HETATM   10  H8  UNL     1      21.086   4.423 -14.491  1.00  0.00     0.162 HD
BRANCH   8  11
HETATM   11  C6  UNL     1      19.841   6.565 -14.007  1.00  0.00     0.122 C 
BRANCH  11  12
HETATM   12  C7  UNL     1      18.730   7.609 -13.895  1.00  0.00     0.132 C 
BRANCH  12  13
HETATM   13  N2  UNL     1      19.100   8.746 -13.078  1.00  0.00    -0.358 N 
HETATM   14  C8  UNL     1      18.999   8.677 -11.700  1.00  0.00     0.247 C 
HETATM   15  O3  UNL     1      18.490   7.719 -11.132  1.00  0.00    -0.271 OA
HETATM   16  H13 UNL     1      19.831   9.341 -13.461  1.00  0.00     0.162 HD
BRANCH  14  17
HETATM   17  C9  UNL     1      19.588   9.880 -10.950  1.00  0.00     0.219 C 
BRANCH  17  18
HETATM   18  C10 UNL     1      18.640  11.103 -10.851  1.00  0.00     0.009 C 
HETATM   19  C11 UNL     1      19.017  12.210 -11.847  1.00  0.00     0.020 C 
HETATM   20  C12 UNL     1      17.174  10.705 -11.116  1.00  0.00     0.020 C 
BRANCH  18  21
HETATM   21  C13 UNL     1      18.783  11.638  -9.397  1.00  0.00     0.192 C 
BRANCH  21  22
HETATM   22  O4  UNL     1      17.544  12.035  -8.844  1.00  0.00    -0.296 OA
BRANCH  22  23
HETATM   23  P1  UNL     1      17.324  12.261  -7.272  1.00  0.00     0.401 P 
HETATM   24  O5  UNL     1      18.220  13.297  -6.672  1.00  0.00    -0.631 OA
BRANCH  23  25
HETATM   25  O6  UNL     1      17.443  10.815  -6.573  1.00  0.00    -0.307 OA
HETATM   26  H23 UNL     1      17.400  10.875  -5.610  1.00  0.00     0.222 HD
ENDBRANCH  23  25
BRANCH  23  27
HETATM   27  O7  UNL     1      15.769  12.554  -7.113  1.00  0.00    -0.195 OA
BRANCH  27  28
HETATM   28  P2  UNL     1      14.825  11.411  -6.528  1.00  0.00     0.401 P 
HETATM   29  O8  UNL     1      15.138  10.911  -5.156  1.00  0.00    -0.631 OA
BRANCH  28  30
HETATM   30  O9  UNL     1      13.362  12.032  -6.677  1.00  0.00    -0.307 OA
HETATM   31  H24 UNL     1      12.978  11.947  -7.584  1.00  0.00     0.222 HD
ENDBRANCH  28  30
BRANCH  28  32
HETATM   32  O10 UNL     1      14.795  10.307  -7.682  1.00  0.00    -0.294 OA
BRANCH  32  33
HETATM   33  C14 UNL     1      14.742   8.945  -7.350  1.00  0.00     0.215 C 
BRANCH  33  34
HETATM   34  C15 UNL     1      13.701   8.319  -8.277  1.00  0.00     0.180 C 
HETATM   35  C16 UNL     1      12.687   9.374  -8.699  1.00  0.00     0.197 C 
HETATM   36  C17 UNL     1      11.363   8.876  -8.151  1.00  0.00     0.199 C 
HETATM   37  C18 UNL     1      11.598   7.366  -8.062  1.00  0.00     0.262 C 
HETATM   38  O11 UNL     1      12.981   7.243  -7.664  1.00  0.00    -0.353 OA
BRANCH  35  39
HETATM   39  O13 UNL     1      12.687   9.442 -10.121  1.00  0.00    -0.286 OA
BRANCH  39  40
HETATM   40  P3  UNL     1      12.657  10.916 -10.741  1.00  0.00     0.391 P 
HETATM   41  O14 UNL     1      11.292  11.523 -10.782  1.00  0.00    -0.632 OA
BRANCH  40  42
HETATM   42  O15 UNL     1      13.400  10.669 -12.135  1.00  0.00    -0.307 OA
HETATM   43  H36 UNL     1      13.054  11.281 -12.828  1.00  0.00     0.222 HD
ENDBRANCH  40  42
BRANCH  40  44
HETATM   44  O16 UNL     1      13.763  11.649  -9.865  1.00  0.00    -0.307 OA
HETATM   45  H37 UNL     1      13.671  12.615  -9.873  1.00  0.00     0.222 HD
ENDBRANCH  40  44
ENDBRANCH  39  40
ENDBRANCH  35  39
BRANCH  36  46
HETATM   46  O12 UNL     1      10.284   9.326  -8.975  1.00  0.00    -0.388 OA
HETATM   47  H35 UNL     1       9.516   9.470  -8.372  1.00  0.00     0.210 HD
ENDBRANCH  36  46
BRANCH  37  48
HETATM   48  N3  UNL     1      10.766   6.732  -7.059  1.00  0.00    -0.297 N 
HETATM   49  C19 UNL     1      11.177   6.166  -5.875  1.00  0.00     0.188 A 
HETATM   50  N4  UNL     1      10.165   5.787  -5.125  1.00  0.00    -0.346 N 
HETATM   51  C20 UNL     1       9.042   6.128  -5.858  1.00  0.00     0.116 A 
HETATM   52  H4  UNL     1      10.200   5.342  -4.209  1.00  0.00     0.167 HD
HETATM   53  C21 UNL     1       7.665   6.027  -5.594  1.00  0.00     0.109 A 
HETATM   54  C23 UNL     1       9.400   6.678  -7.075  1.00  0.00     0.142 A 
HETATM   55  N5  UNL     1       6.790   6.449  -6.539  1.00  0.00    -0.341 N 
HETATM   56  C22 UNL     1       7.285   6.943  -7.691  1.00  0.00     0.183 A 
HETATM   57  H5  UNL     1       5.784   6.394  -6.382  1.00  0.00     0.167 HD
HETATM   58  N6  UNL     1       8.575   7.097  -8.051  1.00  0.00    -0.336 N 
HETATM   59  H6  UNL     1       8.885   7.480  -8.945  1.00  0.00     0.168 HD
BRANCH  53  60
HETATM   60  N7  UNL     1       7.151   5.506  -4.417  1.00  0.00    -0.287 NA
HETATM   61  H33 UNL     1       6.322   5.986  -4.073  1.00  0.00     0.125 HD
HETATM   62  H34 UNL     1       7.867   5.289  -3.736  1.00  0.00     0.125 HD
ENDBRANCH  53  60
ENDBRANCH  37  48
ENDBRANCH  33  34
ENDBRANCH  32  33
ENDBRANCH  28  32
ENDBRANCH  27  28
ENDBRANCH  23  27
ENDBRANCH  22  23
ENDBRANCH  21  22
ENDBRANCH  18  21
ENDBRANCH  17  18
BRANCH  17  63
HETATM   63  O17 UNL     1      19.972   9.494  -9.625  1.00  0.00    -0.385 OA
HETATM   64  H38 UNL     1      20.750  10.019  -9.372  1.00  0.00     0.210 HD
ENDBRANCH  17  63
ENDBRANCH  14  17
ENDBRANCH  12  13
ENDBRANCH  11  12
ENDBRANCH   8  11
ENDBRANCH   6   7
ENDBRANCH   5   6
ENDBRANCH   4   5
ENDBRANCH   2   4
TORSDOF 27
ENDMDL
MODEL 9
REMARK VINA RESULT:      -5.7      4.847      8.012
REMARK  27 active torsions:
REMARK  status: ('A' for Active; 'I' for Inactive)
REMARK    1  A    between atoms: C2_2  and  S1_4 
REMARK    2  A    between atoms: S1_4  and  C3_5 
REMARK    3  A    between atoms: C3_5  and  C4_6 
REMARK    4  A    between atoms: C4_6  and  N1_7 
REMARK       I    between atoms: N1_7  and  C5_8 
REMARK    5  A    between atoms: C5_8  and  C6_10 
REMARK    6  A    between atoms: C6_10  and  C7_11 
REMARK    7  A    between atoms: C7_11  and  N2_12 
REMARK       I    between atoms: N2_12  and  C8_13 
REMARK    8  A    between atoms: C8_13  and  C9_15 
REMARK    9  A    between atoms: C9_15  and  C10_16 
REMARK   10  A    between atoms: C9_15  and  O17_54 
REMARK   11  A    between atoms: C10_16  and  C13_19 
REMARK   12  A    between atoms: C13_19  and  O4_20 
REMARK   13  A    between atoms: O4_20  and  P1_21 
REMARK   14  A    between atoms: P1_21  and  O6_23 
REMARK   15  A    between atoms: P1_21  and  O7_24 
REMARK   16  A    between atoms: O7_24  and  P2_25 
REMARK   17  A    between atoms: P2_25  and  O9_27 
REMARK   18  A    between atoms: P2_25  and  O10_28 
REMARK   19  A    between atoms: O10_28  and  C14_29 
REMARK   20  A    between atoms: C14_29  and  C15_30 
REMARK   21  A    between atoms: C16_31  and  O13_49 
REMARK   22  A    between atoms: C17_32  and  O12_48 
REMARK   23  A    between atoms: C18_33  and  N3_35 
REMARK   24  A    between atoms: C21_40  and  N7_47 
REMARK   25  A    between atoms: O13_49  and  P3_50 
REMARK   26  A    between atoms: P3_50  and  O15_52 
REMARK   27  A    between atoms: P3_50  and  O16_53 
ROOT
HETATM    1  C1  UNL     1      16.255  16.987  -1.709  1.00  0.00     0.104 C 
HETATM    2  C2  UNL     1      16.593  15.715  -0.994  1.00  0.00     0.182 C 
HETATM    3  O1  UNL     1      15.811  15.134  -0.245  1.00  0.00    -0.286 OA
ENDROOT
BRANCH   2   4
HETATM    4  S1  UNL     1      18.227  15.133  -1.282  1.00  0.00    -0.091 SA
BRANCH   4   5
HETATM    5  C3  UNL     1      18.419  15.565  -3.041  1.00  0.00     0.102 C 
BRANCH   5   6
HETATM    6  C4  UNL     1      18.607  14.324  -3.916  1.00  0.00     0.133 C 
BRANCH   6   7
HETATM    7  N1  UNL     1      17.383  13.910  -4.570  1.00  0.00    -0.360 N 
HETATM    8  C5  UNL     1      17.313  13.736  -5.932  1.00  0.00     0.219 C 
HETATM    9  O2  UNL     1      18.249  13.995  -6.680  1.00  0.00    -0.274 OA
HETATM   10  H8  UNL     1      16.562  13.739  -4.003  1.00  0.00     0.162 HD
BRANCH   8  11
HETATM   11  C6  UNL     1      15.961  13.248  -6.406  1.00  0.00     0.122 C 
BRANCH  11  12
HETATM   12  C7  UNL     1      15.265  12.386  -5.353  1.00  0.00     0.132 C 
BRANCH  12  13
HETATM   13  N2  UNL     1      13.926  12.841  -5.042  1.00  0.00    -0.358 N 
HETATM   14  C8  UNL     1      13.730  13.851  -4.118  1.00  0.00     0.247 C 
HETATM   15  O3  UNL     1      14.649  14.310  -3.451  1.00  0.00    -0.271 OA
HETATM   16  H13 UNL     1      13.250  12.766  -5.800  1.00  0.00     0.162 HD
BRANCH  14  17
HETATM   17  C9  UNL     1      12.284  14.357  -4.013  1.00  0.00     0.219 C 
BRANCH  17  18
HETATM   18  C10 UNL     1      12.069  15.802  -4.537  1.00  0.00     0.009 C 
HETATM   19  C11 UNL     1      10.580  16.151  -4.675  1.00  0.00     0.020 C 
HETATM   20  C12 UNL     1      12.717  16.844  -3.602  1.00  0.00     0.020 C 
BRANCH  18  21
HETATM   21  C13 UNL     1      12.751  15.855  -5.934  1.00  0.00     0.192 C 
BRANCH  21  22
HETATM   22  O4  UNL     1      11.915  15.357  -6.960  1.00  0.00    -0.296 OA
BRANCH  22  23
HETATM   23  P1  UNL     1      12.459  14.441  -8.158  1.00  0.00     0.401 P 
HETATM   24  O5  UNL     1      13.775  14.882  -8.717  1.00  0.00    -0.631 OA
BRANCH  23  25
HETATM   25  O6  UNL     1      11.282  14.363  -9.254  1.00  0.00    -0.307 OA
HETATM   26  H23 UNL     1      11.445  13.674  -9.911  1.00  0.00     0.222 HD
ENDBRANCH  23  25
BRANCH  23  27
HETATM   27  O7  UNL     1      12.444  12.959  -7.582  1.00  0.00    -0.195 OA
BRANCH  27  28
HETATM   28  P2  UNL     1      12.589  11.737  -8.594  1.00  0.00     0.401 P 
HETATM   29  O8  UNL     1      11.476  11.531  -9.569  1.00  0.00    -0.631 OA
BRANCH  28  30
HETATM   30  O9  UNL     1      14.011  11.991  -9.273  1.00  0.00    -0.307 OA
HETATM   31  H24 UNL     1      14.007  11.917 -10.259  1.00  0.00     0.222 HD
ENDBRANCH  28  30
BRANCH  28  32
HETATM   32  O10 UNL     1      12.931  10.494  -7.652  1.00  0.00    -0.294 OA
BRANCH  32  33
HETATM   33  C14 UNL     1      14.157   9.824  -7.791  1.00  0.00     0.215 C 
BRANCH  33  34
HETATM   34  C15 UNL     1      13.824   8.431  -8.322  1.00  0.00     0.180 C 
HETATM   35  C16 UNL     1      13.521   8.507  -9.813  1.00  0.00     0.197 C 
HETATM   36  C17 UNL     1      12.080   8.050  -9.936  1.00  0.00     0.199 C 
HETATM   37  C18 UNL     1      11.912   7.173  -8.693  1.00  0.00     0.262 C 
HETATM   38  O11 UNL     1      12.689   7.842  -7.676  1.00  0.00    -0.353 OA
BRANCH  35  39
HETATM   39  O13 UNL     1      14.420   7.635 -10.490  1.00  0.00    -0.286 OA
BRANCH  39  40
HETATM   40  P3  UNL     1      15.536   8.353 -11.382  1.00  0.00     0.391 P 
HETATM   41  O14 UNL     1      15.611   7.837 -12.783  1.00  0.00    -0.632 OA
BRANCH  40  42
HETATM   42  O15 UNL     1      16.826   8.169 -10.454  1.00  0.00    -0.307 OA
HETATM   43  H36 UNL     1      17.553   8.768 -10.746  1.00  0.00     0.222 HD
ENDBRANCH  40  42
BRANCH  40  44
HETATM   44  O16 UNL     1      15.161   9.886 -11.181  1.00  0.00    -0.307 OA
HETATM   45  H37 UNL     1      15.936  10.470 -11.215  1.00  0.00     0.222 HD
ENDBRANCH  40  44
ENDBRANCH  39  40
ENDBRANCH  35  39
BRANCH  36  46
HETATM   46  O12 UNL     1      11.862   7.435 -11.208  1.00  0.00    -0.388 OA
HETATM   47  H35 UNL     1      12.263   6.535 -11.154  1.00  0.00     0.210 HD
ENDBRANCH  36  46
BRANCH  37  48
HETATM   48  N3  UNL     1      10.534   7.093  -8.250  1.00  0.00    -0.297 N 
HETATM   49  C19 UNL     1       9.422   7.568  -8.905  1.00  0.00     0.188 A 
HETATM   50  N4  UNL     1       8.305   7.227  -8.301  1.00  0.00    -0.346 N 
HETATM   51  C20 UNL     1       8.712   6.490  -7.203  1.00  0.00     0.116 A 
HETATM   52  H4  UNL     1       7.350   7.454  -8.580  1.00  0.00     0.167 HD
HETATM   53  C21 UNL     1       8.005   5.814  -6.193  1.00  0.00     0.109 A 
HETATM   54  C23 UNL     1      10.093   6.433  -7.138  1.00  0.00     0.142 A 
HETATM   55  N5  UNL     1       8.708   5.176  -5.225  1.00  0.00    -0.341 N 
HETATM   56  C22 UNL     1      10.054   5.225  -5.276  1.00  0.00     0.183 A 
HETATM   57  H5  UNL     1       8.230   4.673  -4.478  1.00  0.00     0.167 HD
HETATM   58  N6  UNL     1      10.836   5.829  -6.193  1.00  0.00    -0.336 N 
HETATM   59  H6  UNL     1      11.856   5.829  -6.174  1.00  0.00     0.168 HD
BRANCH  53  60
HETATM   60  N7  UNL     1       6.622   5.773  -6.128  1.00  0.00    -0.287 NA
HETATM   61  H33 UNL     1       6.163   6.629  -6.433  1.00  0.00     0.125 HD
HETATM   62  H34 UNL     1       6.279   5.351  -5.275  1.00  0.00     0.125 HD
ENDBRANCH  53  60
ENDBRANCH  37  48
ENDBRANCH  33  34
ENDBRANCH  32  33
ENDBRANCH  28  32
ENDBRANCH  27  28
ENDBRANCH  23  27
ENDBRANCH  22  23
ENDBRANCH  21  22
ENDBRANCH  18  21
ENDBRANCH  17  18
BRANCH  17  63
HETATM   63  O17 UNL     1      11.402  13.481  -4.723  1.00  0.00    -0.385 OA
HETATM   64  H38 UNL     1      11.941  12.803  -5.164  1.00  0.00     0.210 HD
ENDBRANCH  17  63
ENDBRANCH  14  17
ENDBRANCH  12  13
ENDBRANCH  11  12
ENDBRANCH   8  11
ENDBRANCH   6   7
ENDBRANCH   5   6
ENDBRANCH   4   5
ENDBRANCH   2   4
TORSDOF 27
ENDMDL
MODEL 10
REMARK VINA RESULT:      -5.6      5.178      7.815
REMARK  27 active torsions:
REMARK  status: ('A' for Active; 'I' for Inactive)
REMARK    1  A    between atoms: C2_2  and  S1_4 
REMARK    2  A    between atoms: S1_4  and  C3_5 
REMARK    3  A    between atoms: C3_5  and  C4_6 
REMARK    4  A    between atoms: C4_6  and  N1_7 
REMARK       I    between atoms: N1_7  and  C5_8 
REMARK    5  A    between atoms: C5_8  and  C6_10 
REMARK    6  A    between atoms: C6_10  and  C7_11 
REMARK    7  A    between atoms: C7_11  and  N2_12 
REMARK       I    between atoms: N2_12  and  C8_13 
REMARK    8  A    between atoms: C8_13  and  C9_15 
REMARK    9  A    between atoms: C9_15  and  C10_16 
REMARK   10  A    between atoms: C9_15  and  O17_54 
REMARK   11  A    between atoms: C10_16  and  C13_19 
REMARK   12  A    between atoms: C13_19  and  O4_20 
REMARK   13  A    between atoms: O4_20  and  P1_21 
REMARK   14  A    between atoms: P1_21  and  O6_23 
REMARK   15  A    between atoms: P1_21  and  O7_24 
REMARK   16  A    between atoms: O7_24  and  P2_25 
REMARK   17  A    between atoms: P2_25  and  O9_27 
REMARK   18  A    between atoms: P2_25  and  O10_28 
REMARK   19  A    between atoms: O10_28  and  C14_29 
REMARK   20  A    between atoms: C14_29  and  C15_30 
REMARK   21  A    between atoms: C16_31  and  O13_49 
REMARK   22  A    between atoms: C17_32  and  O12_48 
REMARK   23  A    between atoms: C18_33  and  N3_35 
REMARK   24  A    between atoms: C21_40  and  N7_47 
REMARK   25  A    between atoms: O13_49  and  P3_50 
REMARK   26  A    between atoms: P3_50  and  O15_52 
REMARK   27  A    between atoms: P3_50  and  O16_53 
ROOT
HETATM    1  C1  UNL     1      12.570  16.534  -0.370  1.00  0.00     0.104 C 
HETATM    2  C2  UNL     1      12.871  15.651   0.802  1.00  0.00     0.182 C 
HETATM    3  O1  UNL     1      12.111  15.516   1.758  1.00  0.00    -0.286 OA
ENDROOT
BRANCH   2   4
HETATM    4  S1  UNL     1      14.432  14.846   0.721  1.00  0.00    -0.091 SA
BRANCH   4   5
HETATM    5  C3  UNL     1      15.467  16.210   0.097  1.00  0.00     0.102 C 
BRANCH   5   6
HETATM    6  C4  UNL     1      16.597  15.703  -0.801  1.00  0.00     0.133 C 
BRANCH   6   7
HETATM    7  N1  UNL     1      16.170  15.484  -2.168  1.00  0.00    -0.360 N 
HETATM    8  C5  UNL     1      16.755  16.142  -3.224  1.00  0.00     0.219 C 
HETATM    9  O2  UNL     1      17.610  17.007  -3.070  1.00  0.00    -0.274 OA
HETATM   10  H8  UNL     1      15.426  14.822  -2.344  1.00  0.00     0.162 HD
BRANCH   8  11
HETATM   11  C6  UNL     1      16.200  15.728  -4.570  1.00  0.00     0.122 C 
BRANCH  11  12
HETATM   12  C7  UNL     1      15.825  14.247  -4.601  1.00  0.00     0.132 C 
BRANCH  12  13
HETATM   13  N2  UNL     1      14.455  14.018  -5.012  1.00  0.00    -0.358 N 
HETATM   14  C8  UNL     1      13.418  14.209  -4.117  1.00  0.00     0.247 C 
HETATM   15  O3  UNL     1      13.616  14.457  -2.934  1.00  0.00    -0.271 OA
HETATM   16  H13 UNL     1      14.258  14.189  -5.996  1.00  0.00     0.162 HD
BRANCH  14  17
HETATM   17  C9  UNL     1      12.013  14.104  -4.727  1.00  0.00     0.219 C 
BRANCH  17  18
HETATM   18  C10 UNL     1      11.381  15.465  -5.123  1.00  0.00     0.009 C 
HETATM   19  C11 UNL     1       9.914  15.571  -4.682  1.00  0.00     0.020 C 
HETATM   20  C12 UNL     1      12.151  16.647  -4.501  1.00  0.00     0.020 C 
BRANCH  18  21
HETATM   21  C13 UNL     1      11.468  15.540  -6.674  1.00  0.00     0.192 C 
BRANCH  21  22
HETATM   22  O4  UNL     1      10.255  15.170  -7.300  1.00  0.00    -0.296 OA
BRANCH  22  23
HETATM   23  P1  UNL     1      10.200  14.406  -8.708  1.00  0.00     0.401 P 
HETATM   24  O5  UNL     1      11.109  14.977  -9.751  1.00  0.00    -0.631 OA
BRANCH  23  25
HETATM   25  O6  UNL     1       8.653  14.357  -9.151  1.00  0.00    -0.307 OA
HETATM   26  H23 UNL     1       8.351  13.454  -9.311  1.00  0.00     0.222 HD
ENDBRANCH  23  25
BRANCH  23  27
HETATM   27  O7  UNL     1      10.470  12.878  -8.357  1.00  0.00    -0.195 OA
BRANCH  27  28
HETATM   28  P2  UNL     1      11.718  12.144  -9.021  1.00  0.00     0.401 P 
HETATM   29  O8  UNL     1      11.580  11.734 -10.451  1.00  0.00    -0.631 OA
BRANCH  28  30
HETATM   30  O9  UNL     1      12.925  13.151  -8.746  1.00  0.00    -0.307 OA
HETATM   31  H24 UNL     1      12.693  13.908  -8.153  1.00  0.00     0.222 HD
ENDBRANCH  28  30
BRANCH  28  32
HETATM   32  O10 UNL     1      12.071  10.975  -7.992  1.00  0.00    -0.294 OA
BRANCH  32  33
HETATM   33  C14 UNL     1      13.411  10.643  -7.739  1.00  0.00     0.215 C 
BRANCH  33  34
HETATM   34  C15 UNL     1      13.540   9.147  -8.021  1.00  0.00     0.180 C 
HETATM   35  C16 UNL     1      13.620   8.911  -9.523  1.00  0.00     0.197 C 
HETATM   36  C17 UNL     1      12.395   8.076  -9.846  1.00  0.00     0.199 C 
HETATM   37  C18 UNL     1      12.112   7.386  -8.510  1.00  0.00     0.262 C 
HETATM   38  O11 UNL     1      12.437   8.385  -7.518  1.00  0.00    -0.353 OA
BRANCH  35  39
HETATM   39  O13 UNL     1      14.831   8.214  -9.797  1.00  0.00    -0.286 OA
BRANCH  39  40
HETATM   40  P3  UNL     1      15.757   8.861 -10.929  1.00  0.00     0.391 P 
HETATM   41  O14 UNL     1      15.791  10.355 -10.898  1.00  0.00    -0.632 OA
BRANCH  40  42
HETATM   42  O15 UNL     1      15.162   8.161 -12.239  1.00  0.00    -0.307 OA
HETATM   43  H36 UNL     1      15.620   8.490 -13.048  1.00  0.00     0.222 HD
ENDBRANCH  40  42
BRANCH  40  44
HETATM   44  O16 UNL     1      17.127   8.088 -10.695  1.00  0.00    -0.307 OA
HETATM   45  H37 UNL     1      17.143   7.215 -11.117  1.00  0.00     0.222 HD
ENDBRANCH  40  44
ENDBRANCH  39  40
ENDBRANCH  35  39
BRANCH  36  46
HETATM   46  O12 UNL     1      12.650   7.238 -10.977  1.00  0.00    -0.388 OA
HETATM   47  H35 UNL     1      12.376   6.327 -10.714  1.00  0.00     0.210 HD
ENDBRANCH  36  46
BRANCH  37  48
HETATM   48  N3  UNL     1      10.720   7.014  -8.359  1.00  0.00    -0.297 N 
HETATM   49  C19 UNL     1       9.719   7.146  -9.292  1.00  0.00     0.188 A 
HETATM   50  N4  UNL     1       8.591   6.598  -8.895  1.00  0.00    -0.346 N 
HETATM   51  C20 UNL     1       8.877   6.081  -7.643  1.00  0.00     0.116 A 
HETATM   52  H4  UNL     1       7.704   6.561  -9.396  1.00  0.00     0.167 HD
HETATM   53  C21 UNL     1       8.114   5.346  -6.719  1.00  0.00     0.109 A 
HETATM   54  C23 UNL     1      10.181   6.367  -7.282  1.00  0.00     0.142 A 
HETATM   55  N5  UNL     1       8.688   4.985  -5.545  1.00  0.00    -0.341 N 
HETATM   56  C22 UNL     1       9.964   5.354  -5.319  1.00  0.00     0.183 A 
HETATM   57  H5  UNL     1       8.167   4.448  -4.852  1.00  0.00     0.167 HD
HETATM   58  N6  UNL     1      10.792   6.047  -6.128  1.00  0.00    -0.336 N 
HETATM   59  H6  UNL     1      11.754   6.296  -5.895  1.00  0.00     0.168 HD
BRANCH  53  60
HETATM   60  N7  UNL     1       6.797   4.976  -6.940  1.00  0.00    -0.287 NA
HETATM   61  H33 UNL     1       6.562   4.831  -7.920  1.00  0.00     0.125 HD
HETATM   62  H34 UNL     1       6.139   5.510  -6.388  1.00  0.00     0.125 HD
ENDBRANCH  53  60
ENDBRANCH  37  48
ENDBRANCH  33  34
ENDBRANCH  32  33
ENDBRANCH  28  32
ENDBRANCH  27  28
ENDBRANCH  23  27
ENDBRANCH  22  23
ENDBRANCH  21  22
ENDBRANCH  18  21
ENDBRANCH  17  18
BRANCH  17  63
HETATM   63  O17 UNL     1      12.040  13.262  -5.885  1.00  0.00    -0.385 OA
HETATM   64  H38 UNL     1      11.722  13.780  -6.643  1.00  0.00     0.210 HD
ENDBRANCH  17  63
ENDBRANCH  14  17
ENDBRANCH  12  13
ENDBRANCH  11  12
ENDBRANCH   8  11
ENDBRANCH   6   7
ENDBRANCH   5   6
ENDBRANCH   4   5
ENDBRANCH   2   4
TORSDOF 27
ENDMDL
MODEL 11
REMARK VINA RESULT:      -5.4      3.300      6.135
REMARK  27 active torsions:
REMARK  status: ('A' for Active; 'I' for Inactive)
REMARK    1  A    between atoms: C2_2  and  S1_4 
REMARK    2  A    between atoms: S1_4  and  C3_5 
REMARK    3  A    between atoms: C3_5  and  C4_6 
REMARK    4  A    between atoms: C4_6  and  N1_7 
REMARK       I    between atoms: N1_7  and  C5_8 
REMARK    5  A    between atoms: C5_8  and  C6_10 
REMARK    6  A    between atoms: C6_10  and  C7_11 
REMARK    7  A    between atoms: C7_11  and  N2_12 
REMARK       I    between atoms: N2_12  and  C8_13 
REMARK    8  A    between atoms: C8_13  and  C9_15 
REMARK    9  A    between atoms: C9_15  and  C10_16 
REMARK   10  A    between atoms: C9_15  and  O17_54 
REMARK   11  A    between atoms: C10_16  and  C13_19 
REMARK   12  A    between atoms: C13_19  and  O4_20 
REMARK   13  A    between atoms: O4_20  and  P1_21 
REMARK   14  A    between atoms: P1_21  and  O6_23 
REMARK   15  A    between atoms: P1_21  and  O7_24 
REMARK   16  A    between atoms: O7_24  and  P2_25 
REMARK   17  A    between atoms: P2_25  and  O9_27 
REMARK   18  A    between atoms: P2_25  and  O10_28 
REMARK   19  A    between atoms: O10_28  and  C14_29 
REMARK   20  A    between atoms: C14_29  and  C15_30 
REMARK   21  A    between atoms: C16_31  and  O13_49 
REMARK   22  A    between atoms: C17_32  and  O12_48 
REMARK   23  A    between atoms: C18_33  and  N3_35 
REMARK   24  A    between atoms: C21_40  and  N7_47 
REMARK   25  A    between atoms: O13_49  and  P3_50 
REMARK   26  A    between atoms: P3_50  and  O15_52 
REMARK   27  A    between atoms: P3_50  and  O16_53 
ROOT
HETATM    1  C1  UNL     1      11.514   6.075  -5.899  1.00  0.00     0.104 C 
HETATM    2  C2  UNL     1      10.327   5.267  -5.470  1.00  0.00     0.182 C 
HETATM    3  O1  UNL     1      10.413   4.265  -4.764  1.00  0.00    -0.286 OA
ENDROOT
BRANCH   2   4
HETATM    4  S1  UNL     1       8.790   5.849  -6.095  1.00  0.00    -0.091 SA
BRANCH   4   5
HETATM    5  C3  UNL     1       9.093   5.705  -7.886  1.00  0.00     0.102 C 
BRANCH   5   6
HETATM    6  C4  UNL     1       9.146   7.074  -8.567  1.00  0.00     0.133 C 
BRANCH   6   7
HETATM    7  N1  UNL     1       7.970   7.877  -8.299  1.00  0.00    -0.360 N 
HETATM    8  C5  UNL     1       7.954   9.234  -8.524  1.00  0.00     0.219 C 
HETATM    9  O2  UNL     1       8.948   9.856  -8.883  1.00  0.00    -0.274 OA
HETATM   10  H8  UNL     1       7.140   7.421  -7.946  1.00  0.00     0.162 HD
BRANCH   8  11
HETATM   11  C6  UNL     1       6.614   9.874  -8.233  1.00  0.00     0.122 C 
BRANCH  11  12
HETATM   12  C7  UNL     1       6.746  11.367  -7.936  1.00  0.00     0.132 C 
BRANCH  12  13
HETATM   13  N2  UNL     1       7.243  12.128  -9.062  1.00  0.00    -0.358 N 
HETATM   14  C8  UNL     1       8.194  13.114  -8.872  1.00  0.00     0.247 C 
HETATM   15  O3  UNL     1       8.559  13.460  -7.756  1.00  0.00    -0.271 OA
HETATM   16  H13 UNL     1       7.256  11.635  -9.953  1.00  0.00     0.162 HD
BRANCH  14  17
HETATM   17  C9  UNL     1       8.762  13.719 -10.165  1.00  0.00     0.219 C 
BRANCH  17  18
HETATM   18  C10 UNL     1       8.338  15.188 -10.428  1.00  0.00     0.009 C 
HETATM   19  C11 UNL     1       6.816  15.373 -10.349  1.00  0.00     0.020 C 
HETATM   20  C12 UNL     1       8.987  16.153  -9.416  1.00  0.00     0.020 C 
BRANCH  18  21
HETATM   21  C13 UNL     1       8.832  15.524 -11.864  1.00  0.00     0.192 C 
BRANCH  21  22
HETATM   22  O4  UNL     1      10.018  16.293 -11.860  1.00  0.00    -0.296 OA
BRANCH  22  23
HETATM   23  P1  UNL     1      11.395  15.773 -12.495  1.00  0.00     0.401 P 
HETATM   24  O5  UNL     1      11.931  16.641 -13.589  1.00  0.00    -0.631 OA
BRANCH  23  25
HETATM   25  O6  UNL     1      11.155  14.244 -12.938  1.00  0.00    -0.307 OA
HETATM   26  H23 UNL     1      11.785  13.959 -13.612  1.00  0.00     0.222 HD
ENDBRANCH  23  25
BRANCH  23  27
HETATM   27  O7  UNL     1      12.374  15.585 -11.255  1.00  0.00    -0.195 OA
BRANCH  27  28
HETATM   28  P2  UNL     1      13.566  14.534 -11.366  1.00  0.00     0.401 P 
HETATM   29  O8  UNL     1      14.213  14.384 -12.705  1.00  0.00    -0.631 OA
BRANCH  28  30
HETATM   30  O9  UNL     1      14.565  14.988 -10.207  1.00  0.00    -0.307 OA
HETATM   31  H24 UNL     1      14.366  15.878  -9.828  1.00  0.00     0.222 HD
ENDBRANCH  28  30
BRANCH  28  32
HETATM   32  O10 UNL     1      12.964  13.199 -10.729  1.00  0.00    -0.294 OA
BRANCH  32  33
HETATM   33  C14 UNL     1      13.333  11.946 -11.244  1.00  0.00     0.215 C 
BRANCH  33  34
HETATM   34  C15 UNL     1      14.143  11.256 -10.148  1.00  0.00     0.180 C 
HETATM   35  C16 UNL     1      13.331  10.116  -9.547  1.00  0.00     0.197 C 
HETATM   36  C17 UNL     1      13.147  10.501  -8.092  1.00  0.00     0.199 C 
HETATM   37  C18 UNL     1      14.351  11.413  -7.844  1.00  0.00     0.262 C 
HETATM   38  O11 UNL     1      14.508  12.140  -9.082  1.00  0.00    -0.353 OA
BRANCH  35  39
HETATM   39  O13 UNL     1      14.082   8.915  -9.694  1.00  0.00    -0.286 OA
BRANCH  39  40
HETATM   40  P3  UNL     1      13.367   7.755 -10.530  1.00  0.00     0.391 P 
HETATM   41  O14 UNL     1      14.296   6.993 -11.420  1.00  0.00    -0.632 OA
BRANCH  40  42
HETATM   42  O15 UNL     1      12.181   8.573 -11.225  1.00  0.00    -0.307 OA
HETATM   43  H36 UNL     1      11.352   8.502 -10.695  1.00  0.00     0.222 HD
ENDBRANCH  40  42
BRANCH  40  44
HETATM   44  O16 UNL     1      12.625   6.948  -9.379  1.00  0.00    -0.307 OA
HETATM   45  H37 UNL     1      12.841   7.274  -8.491  1.00  0.00     0.222 HD
ENDBRANCH  40  44
ENDBRANCH  39  40
ENDBRANCH  35  39
BRANCH  36  46
HETATM   46  O12 UNL     1      13.033   9.330  -7.280  1.00  0.00    -0.388 OA
HETATM   47  H35 UNL     1      12.509   8.678  -7.804  1.00  0.00     0.210 HD
ENDBRANCH  36  46
BRANCH  37  48
HETATM   48  N3  UNL     1      14.120  12.361  -6.772  1.00  0.00    -0.297 N 
HETATM   49  C19 UNL     1      14.706  12.368  -5.528  1.00  0.00     0.188 A 
HETATM   50  N4  UNL     1      14.381  13.434  -4.830  1.00  0.00    -0.346 N 
HETATM   51  C20 UNL     1      13.547  14.157  -5.665  1.00  0.00     0.116 A 
HETATM   52  H4  UNL     1      14.677  13.675  -3.884  1.00  0.00     0.167 HD
HETATM   53  C21 UNL     1      12.904  15.399  -5.526  1.00  0.00     0.109 A 
HETATM   54  C23 UNL     1      13.346  13.484  -6.856  1.00  0.00     0.142 A 
HETATM   55  N5  UNL     1      12.125  15.843  -6.542  1.00  0.00    -0.341 N 
HETATM   56  C22 UNL     1      12.002  15.068  -7.638  1.00  0.00     0.183 A 
HETATM   57  H5  UNL     1      11.645  16.741  -6.480  1.00  0.00     0.167 HD
HETATM   58  N6  UNL     1      12.573  13.872  -7.887  1.00  0.00    -0.336 N 
HETATM   59  H6  UNL     1      12.438  13.333  -8.742  1.00  0.00     0.168 HD
BRANCH  53  60
HETATM   60  N7  UNL     1      13.015  16.193  -4.396  1.00  0.00    -0.287 NA
HETATM   61  H33 UNL     1      13.937  16.602  -4.260  1.00  0.00     0.125 HD
HETATM   62  H34 UNL     1      12.573  15.786  -3.582  1.00  0.00     0.125 HD
ENDBRANCH  53  60
ENDBRANCH  37  48
ENDBRANCH  33  34
ENDBRANCH  32  33
ENDBRANCH  28  32
ENDBRANCH  27  28
ENDBRANCH  23  27
ENDBRANCH  22  23
ENDBRANCH  21  22
ENDBRANCH  18  21
ENDBRANCH  17  18
BRANCH  17  63
HETATM   63  O17 UNL     1      10.193  13.654 -10.152  1.00  0.00    -0.385 OA
HETATM   64  H38 UNL     1      10.452  12.781  -9.812  1.00  0.00     0.210 HD
ENDBRANCH  17  63
ENDBRANCH  14  17
ENDBRANCH  12  13
ENDBRANCH  11  12
ENDBRANCH   8  11
ENDBRANCH   6   7
ENDBRANCH   5   6
ENDBRANCH   4   5
ENDBRANCH   2   4
TORSDOF 27
ENDMDL
MODEL 12
REMARK VINA RESULT:      -5.4      5.031      9.113
REMARK  27 active torsions:
REMARK  status: ('A' for Active; 'I' for Inactive)
REMARK    1  A    between atoms: C2_2  and  S1_4 
REMARK    2  A    between atoms: S1_4  and  C3_5 
REMARK    3  A    between atoms: C3_5  and  C4_6 
REMARK    4  A    between atoms: C4_6  and  N1_7 
REMARK       I    between atoms: N1_7  and  C5_8 
REMARK    5  A    between atoms: C5_8  and  C6_10 
REMARK    6  A    between atoms: C6_10  and  C7_11 
REMARK    7  A    between atoms: C7_11  and  N2_12 
REMARK       I    between atoms: N2_12  and  C8_13 
REMARK    8  A    between atoms: C8_13  and  C9_15 
REMARK    9  A    between atoms: C9_15  and  C10_16 
REMARK   10  A    between atoms: C9_15  and  O17_54 
REMARK   11  A    between atoms: C10_16  and  C13_19 
REMARK   12  A    between atoms: C13_19  and  O4_20 
REMARK   13  A    between atoms: O4_20  and  P1_21 
REMARK   14  A    between atoms: P1_21  and  O6_23 
REMARK   15  A    between atoms: P1_21  and  O7_24 
REMARK   16  A    between atoms: O7_24  and  P2_25 
REMARK   17  A    between atoms: P2_25  and  O9_27 
REMARK   18  A    between atoms: P2_25  and  O10_28 
REMARK   19  A    between atoms: O10_28  and  C14_29 
REMARK   20  A    between atoms: C14_29  and  C15_30 
REMARK   21  A    between atoms: C16_31  and  O13_49 
REMARK   22  A    between atoms: C17_32  and  O12_48 
REMARK   23  A    between atoms: C18_33  and  N3_35 
REMARK   24  A    between atoms: C21_40  and  N7_47 
REMARK   25  A    between atoms: O13_49  and  P3_50 
REMARK   26  A    between atoms: P3_50  and  O15_52 
REMARK   27  A    between atoms: P3_50  and  O16_53 
ROOT
HETATM    1  C1  UNL     1      21.042   4.265  -6.275  1.00  0.00     0.104 C 
HETATM    2  C2  UNL     1      21.241   5.446  -5.375  1.00  0.00     0.182 C 
HETATM    3  O1  UNL     1      20.754   5.526  -4.250  1.00  0.00    -0.286 OA
ENDROOT
BRANCH   2   4
HETATM    4  S1  UNL     1      22.205   6.738  -6.076  1.00  0.00    -0.091 SA
BRANCH   4   5
HETATM    5  C3  UNL     1      21.829   8.090  -4.914  1.00  0.00     0.102 C 
BRANCH   5   6
HETATM    6  C4  UNL     1      21.519   9.399  -5.643  1.00  0.00     0.133 C 
BRANCH   6   7
HETATM    7  N1  UNL     1      20.651  10.272  -4.880  1.00  0.00    -0.360 N 
HETATM    8  C5  UNL     1      19.680  11.036  -5.485  1.00  0.00     0.219 C 
HETATM    9  O2  UNL     1      19.543  11.087  -6.702  1.00  0.00    -0.274 OA
HETATM   10  H8  UNL     1      20.761  10.312  -3.876  1.00  0.00     0.162 HD
BRANCH   8  11
HETATM   11  C6  UNL     1      18.847  11.833  -4.505  1.00  0.00     0.122 C 
BRANCH  11  12
HETATM   12  C7  UNL     1      18.090  12.970  -5.191  1.00  0.00     0.132 C 
BRANCH  12  13
HETATM   13  N2  UNL     1      16.854  12.538  -5.807  1.00  0.00    -0.358 N 
HETATM   14  C8  UNL     1      15.640  13.002  -5.333  1.00  0.00     0.247 C 
HETATM   15  O3  UNL     1      15.554  13.686  -4.321  1.00  0.00    -0.271 OA
HETATM   16  H13 UNL     1      16.912  12.317  -6.799  1.00  0.00     0.162 HD
BRANCH  14  17
HETATM   17  C9  UNL     1      14.423  12.608  -6.184  1.00  0.00     0.219 C 
BRANCH  17  18
HETATM   18  C10 UNL     1      13.837  13.762  -7.039  1.00  0.00     0.009 C 
HETATM   19  C11 UNL     1      12.321  13.620  -7.241  1.00  0.00     0.020 C 
HETATM   20  C12 UNL     1      14.103  15.137  -6.393  1.00  0.00     0.020 C 
BRANCH  18  21
HETATM   21  C13 UNL     1      14.556  13.682  -8.416  1.00  0.00     0.192 C 
BRANCH  21  22
HETATM   22  O4  UNL     1      15.928  14.012  -8.327  1.00  0.00    -0.296 OA
BRANCH  22  23
HETATM   23  P1  UNL     1      16.942  13.861  -9.559  1.00  0.00     0.401 P 
HETATM   24  O5  UNL     1      18.376  13.721  -9.158  1.00  0.00    -0.631 OA
BRANCH  23  25
HETATM   25  O6  UNL     1      16.662  15.101 -10.547  1.00  0.00    -0.307 OA
HETATM   26  H23 UNL     1      17.210  15.866 -10.332  1.00  0.00     0.222 HD
ENDBRANCH  23  25
BRANCH  23  27
HETATM   27  O7  UNL     1      16.370  12.648 -10.415  1.00  0.00    -0.195 OA
BRANCH  27  28
HETATM   28  P2  UNL     1      16.801  11.163 -10.031  1.00  0.00     0.401 P 
HETATM   29  O8  UNL     1      17.837  10.516 -10.890  1.00  0.00    -0.631 OA
BRANCH  28  30
HETATM   30  O9  UNL     1      17.213  11.288  -8.494  1.00  0.00    -0.307 OA
HETATM   31  H24 UNL     1      17.203  12.213  -8.147  1.00  0.00     0.222 HD
ENDBRANCH  28  30
BRANCH  28  32
HETATM   32  O10 UNL     1      15.415  10.381  -9.900  1.00  0.00    -0.294 OA
BRANCH  32  33
HETATM   33  C14 UNL     1      15.181   9.233 -10.673  1.00  0.00     0.215 C 
BRANCH  33  34
HETATM   34  C15 UNL     1      13.663   9.086 -10.772  1.00  0.00     0.180 C 
HETATM   35  C16 UNL     1      12.989  10.351 -10.257  1.00  0.00     0.197 C 
HETATM   36  C17 UNL     1      12.177   9.894  -9.060  1.00  0.00     0.199 C 
HETATM   37  C18 UNL     1      11.934   8.417  -9.380  1.00  0.00     0.262 C 
HETATM   38  O11 UNL     1      13.158   7.982 -10.012  1.00  0.00    -0.353 OA
BRANCH  35  39
HETATM   39  O13 UNL     1      12.166  10.867 -11.298  1.00  0.00    -0.286 OA
BRANCH  39  40
HETATM   40  P3  UNL     1      12.335  12.427 -11.601  1.00  0.00     0.391 P 
HETATM   41  O14 UNL     1      11.683  13.312 -10.588  1.00  0.00    -0.632 OA
BRANCH  40  42
HETATM   42  O15 UNL     1      11.797  12.500 -13.105  1.00  0.00    -0.307 OA
HETATM   43  H36 UNL     1      11.969  11.652 -13.579  1.00  0.00     0.222 HD
ENDBRANCH  40  42
BRANCH  40  44
HETATM   44  O16 UNL     1      13.912  12.545 -11.775  1.00  0.00    -0.307 OA
HETATM   45  H37 UNL     1      14.388  12.502 -10.930  1.00  0.00     0.222 HD
ENDBRANCH  40  44
ENDBRANCH  39  40
ENDBRANCH  35  39
BRANCH  36  46
HETATM   46  O12 UNL     1      11.028  10.728  -8.892  1.00  0.00    -0.388 OA
HETATM   47  H35 UNL     1      11.077  11.089  -7.975  1.00  0.00     0.210 HD
ENDBRANCH  36  46
BRANCH  37  48
HETATM   48  N3  UNL     1      11.714   7.619  -8.190  1.00  0.00    -0.297 N 
HETATM   49  C19 UNL     1      12.540   7.514  -7.095  1.00  0.00     0.188 A 
HETATM   50  N4  UNL     1      11.997   6.809  -6.127  1.00  0.00    -0.346 N 
HETATM   51  C20 UNL     1      10.756   6.442  -6.616  1.00  0.00     0.116 A 
HETATM   52  H4  UNL     1      12.401   6.583  -5.218  1.00  0.00     0.167 HD
HETATM   53  C21 UNL     1       9.686   5.723  -6.056  1.00  0.00     0.109 A 
HETATM   54  C23 UNL     1      10.584   6.904  -7.908  1.00  0.00     0.142 A 
HETATM   55  N5  UNL     1       8.579   5.514  -6.811  1.00  0.00    -0.341 N 
HETATM   56  C22 UNL     1       8.561   6.004  -8.066  1.00  0.00     0.183 A 
HETATM   57  H5  UNL     1       7.781   5.000  -6.437  1.00  0.00     0.167 HD
HETATM   58  N6  UNL     1       9.516   6.712  -8.703  1.00  0.00    -0.336 N 
HETATM   59  H6  UNL     1       9.440   7.055  -9.661  1.00  0.00     0.168 HD
BRANCH  53  60
HETATM   60  N7  UNL     1       9.705   5.204  -4.771  1.00  0.00    -0.287 NA
HETATM   61  H33 UNL     1      10.024   4.240  -4.714  1.00  0.00     0.125 HD
HETATM   62  H34 UNL     1       8.881   5.444  -4.236  1.00  0.00     0.125 HD
ENDBRANCH  53  60
ENDBRANCH  37  48
ENDBRANCH  33  34
ENDBRANCH  32  33
ENDBRANCH  28  32
ENDBRANCH  27  28
ENDBRANCH  23  27
ENDBRANCH  22  23
ENDBRANCH  21  22
ENDBRANCH  18  21
ENDBRANCH  17  18
BRANCH  17  63
HETATM   63  O17 UNL     1      14.761  11.524  -7.055  1.00  0.00    -0.385 OA
HETATM   64  H38 UNL     1      15.557  11.091  -6.704  1.00  0.00     0.210 HD
ENDBRANCH  17  63
ENDBRANCH  14  17
ENDBRANCH  12  13
ENDBRANCH  11  12
ENDBRANCH   8  11
ENDBRANCH   6   7
ENDBRANCH   5   6
ENDBRANCH   4   5
ENDBRANCH   2   4
TORSDOF 27
ENDMDL
MODEL 13
REMARK VINA RESULT:      -5.4      4.743      8.215
REMARK  27 active torsions:
REMARK  status: ('A' for Active; 'I' for Inactive)
REMARK    1  A    between atoms: C2_2  and  S1_4 
REMARK    2  A    between atoms: S1_4  and  C3_5 
REMARK    3  A    between atoms: C3_5  and  C4_6 
REMARK    4  A    between atoms: C4_6  and  N1_7 
REMARK       I    between atoms: N1_7  and  C5_8 
REMARK    5  A    between atoms: C5_8  and  C6_10 
REMARK    6  A    between atoms: C6_10  and  C7_11 
REMARK    7  A    between atoms: C7_11  and  N2_12 
REMARK       I    between atoms: N2_12  and  C8_13 
REMARK    8  A    between atoms: C8_13  and  C9_15 
REMARK    9  A    between atoms: C9_15  and  C10_16 
REMARK   10  A    between atoms: C9_15  and  O17_54 
REMARK   11  A    between atoms: C10_16  and  C13_19 
REMARK   12  A    between atoms: C13_19  and  O4_20 
REMARK   13  A    between atoms: O4_20  and  P1_21 
REMARK   14  A    between atoms: P1_21  and  O6_23 
REMARK   15  A    between atoms: P1_21  and  O7_24 
REMARK   16  A    between atoms: O7_24  and  P2_25 
REMARK   17  A    between atoms: P2_25  and  O9_27 
REMARK   18  A    between atoms: P2_25  and  O10_28 
REMARK   19  A    between atoms: O10_28  and  C14_29 
REMARK   20  A    between atoms: C14_29  and  C15_30 
REMARK   21  A    between atoms: C16_31  and  O13_49 
REMARK   22  A    between atoms: C17_32  and  O12_48 
REMARK   23  A    between atoms: C18_33  and  N3_35 
REMARK   24  A    between atoms: C21_40  and  N7_47 
REMARK   25  A    between atoms: O13_49  and  P3_50 
REMARK   26  A    between atoms: P3_50  and  O15_52 
REMARK   27  A    between atoms: P3_50  and  O16_53 
ROOT
HETATM    1  C1  UNL     1      15.598  16.382  -3.828  1.00  0.00     0.104 C 
HETATM    2  C2  UNL     1      15.244  15.557  -2.628  1.00  0.00     0.182 C 
HETATM    3  O1  UNL     1      14.172  14.970  -2.506  1.00  0.00    -0.286 OA
ENDROOT
BRANCH   2   4
HETATM    4  S1  UNL     1      16.480  15.529  -1.378  1.00  0.00    -0.091 SA
BRANCH   4   5
HETATM    5  C3  UNL     1      17.980  15.669  -2.402  1.00  0.00     0.102 C 
BRANCH   5   6
HETATM    6  C4  UNL     1      18.784  14.368  -2.418  1.00  0.00     0.133 C 
BRANCH   6   7
HETATM    7  N1  UNL     1      18.721  13.686  -3.695  1.00  0.00    -0.360 N 
HETATM    8  C5  UNL     1      19.254  12.431  -3.872  1.00  0.00     0.219 C 
HETATM    9  O2  UNL     1      19.880  11.849  -2.994  1.00  0.00    -0.274 OA
HETATM   10  H8  UNL     1      18.266  14.148  -4.470  1.00  0.00     0.162 HD
BRANCH   8  11
HETATM   11  C6  UNL     1      19.032  11.877  -5.263  1.00  0.00     0.122 C 
BRANCH  11  12
HETATM   12  C7  UNL     1      17.711  11.117  -5.371  1.00  0.00     0.132 C 
BRANCH  12  13
HETATM   13  N2  UNL     1      16.896  11.549  -6.487  1.00  0.00    -0.358 N 
HETATM   14  C8  UNL     1      16.088  12.665  -6.368  1.00  0.00     0.247 C 
HETATM   15  O3  UNL     1      15.938  13.251  -5.303  1.00  0.00    -0.271 OA
HETATM   16  H13 UNL     1      17.273  11.343  -7.410  1.00  0.00     0.162 HD
BRANCH  14  17
HETATM   17  C9  UNL     1      15.417  13.116  -7.674  1.00  0.00     0.219 C 
BRANCH  17  18
HETATM   18  C10 UNL     1      16.053  14.374  -8.322  1.00  0.00     0.009 C 
HETATM   19  C11 UNL     1      15.268  15.653  -7.994  1.00  0.00     0.020 C 
HETATM   20  C12 UNL     1      17.508  14.576  -7.855  1.00  0.00     0.020 C 
BRANCH  18  21
HETATM   21  C13 UNL     1      16.025  14.123  -9.857  1.00  0.00     0.192 C 
BRANCH  21  22
HETATM   22  O4  UNL     1      14.872  14.666 -10.470  1.00  0.00    -0.296 OA
BRANCH  22  23
HETATM   23  P1  UNL     1      13.786  13.766 -11.233  1.00  0.00     0.401 P 
HETATM   24  O5  UNL     1      14.372  12.801 -12.215  1.00  0.00    -0.631 OA
BRANCH  23  25
HETATM   25  O6  UNL     1      12.714  14.778 -11.878  1.00  0.00    -0.307 OA
HETATM   26  H23 UNL     1      12.114  14.329 -12.488  1.00  0.00     0.222 HD
ENDBRANCH  23  25
BRANCH  23  27
HETATM   27  O7  UNL     1      12.923  13.096 -10.077  1.00  0.00    -0.195 OA
BRANCH  27  28
HETATM   28  P2  UNL     1      11.517  12.443 -10.446  1.00  0.00     0.401 P 
HETATM   29  O8  UNL     1      10.323  13.340 -10.406  1.00  0.00    -0.631 OA
BRANCH  28  30
HETATM   30  O9  UNL     1      11.785  11.778 -11.873  1.00  0.00    -0.307 OA
HETATM   31  H24 UNL     1      11.881  12.430 -12.610  1.00  0.00     0.222 HD
ENDBRANCH  28  30
BRANCH  28  32
HETATM   32  O10 UNL     1      11.442  11.141  -9.524  1.00  0.00    -0.294 OA
BRANCH  32  33
HETATM   33  C14 UNL     1      11.991  11.162  -8.233  1.00  0.00     0.215 C 
BRANCH  33  34
HETATM   34  C15 UNL     1      12.790   9.868  -8.087  1.00  0.00     0.180 C 
HETATM   35  C16 UNL     1      13.072   9.279  -9.463  1.00  0.00     0.197 C 
HETATM   36  C17 UNL     1      12.370   7.934  -9.455  1.00  0.00     0.199 C 
HETATM   37  C18 UNL     1      12.329   7.599  -7.962  1.00  0.00     0.262 C 
HETATM   38  O11 UNL     1      12.106   8.873  -7.318  1.00  0.00    -0.353 OA
BRANCH  35  39
HETATM   39  O13 UNL     1      14.482   9.148  -9.607  1.00  0.00    -0.286 OA
BRANCH  39  40
HETATM   40  P3  UNL     1      15.035   9.254 -11.103  1.00  0.00     0.391 P 
HETATM   41  O14 UNL     1      15.699   8.007 -11.590  1.00  0.00    -0.632 OA
BRANCH  40  42
HETATM   42  O15 UNL     1      15.928  10.577 -10.999  1.00  0.00    -0.307 OA
HETATM   43  H36 UNL     1      16.723  10.417 -10.437  1.00  0.00     0.222 HD
ENDBRANCH  40  42
BRANCH  40  44
HETATM   44  O16 UNL     1      13.741   9.751 -11.882  1.00  0.00    -0.307 OA
HETATM   45  H37 UNL     1      13.243  10.425 -11.393  1.00  0.00     0.222 HD
ENDBRANCH  40  44
ENDBRANCH  39  40
ENDBRANCH  35  39
BRANCH  36  46
HETATM   46  O12 UNL     1      13.049   7.015 -10.316  1.00  0.00    -0.388 OA
HETATM   47  H35 UNL     1      12.681   7.157 -11.220  1.00  0.00     0.210 HD
ENDBRANCH  36  46
BRANCH  37  48
HETATM   48  N3  UNL     1      11.239   6.707  -7.621  1.00  0.00    -0.297 N 
HETATM   49  C19 UNL     1      11.332   5.472  -7.023  1.00  0.00     0.188 A 
HETATM   50  N4  UNL     1      10.152   4.969  -6.732  1.00  0.00    -0.346 N 
HETATM   51  C20 UNL     1       9.250   5.928  -7.159  1.00  0.00     0.116 A 
HETATM   52  H4  UNL     1       9.947   4.073  -6.290  1.00  0.00     0.167 HD
HETATM   53  C21 UNL     1       7.848   6.011  -7.096  1.00  0.00     0.109 A 
HETATM   54  C23 UNL     1       9.908   6.992  -7.747  1.00  0.00     0.142 A 
HETATM   55  N5  UNL     1       7.238   7.101  -7.624  1.00  0.00    -0.341 N 
HETATM   56  C22 UNL     1       8.009   8.051  -8.189  1.00  0.00     0.183 A 
HETATM   57  H5  UNL     1       6.224   7.198  -7.595  1.00  0.00     0.167 HD
HETATM   58  N6  UNL     1       9.353   8.085  -8.299  1.00  0.00    -0.336 N 
HETATM   59  H6  UNL     1       9.878   8.839  -8.742  1.00  0.00     0.168 HD
BRANCH  53  60
HETATM   60  N7  UNL     1       7.050   5.029  -6.530  1.00  0.00    -0.287 NA
HETATM   61  H33 UNL     1       6.698   4.342  -7.192  1.00  0.00     0.125 HD
HETATM   62  H34 UNL     1       6.388   5.397  -5.860  1.00  0.00     0.125 HD
ENDBRANCH  53  60
ENDBRANCH  37  48
ENDBRANCH  33  34
ENDBRANCH  32  33
ENDBRANCH  28  32
ENDBRANCH  27  28
ENDBRANCH  23  27
ENDBRANCH  22  23
ENDBRANCH  21  22
ENDBRANCH  18  21
ENDBRANCH  17  18
BRANCH  17  63
HETATM   63  O17 UNL     1      15.438  12.052  -8.632  1.00  0.00    -0.385 OA
HETATM   64  H38 UNL     1      14.868  12.306  -9.378  1.00  0.00     0.210 HD
ENDBRANCH  17  63
ENDBRANCH  14  17
ENDBRANCH  12  13
ENDBRANCH  11  12
ENDBRANCH   8  11
ENDBRANCH   6   7
ENDBRANCH   5   6
ENDBRANCH   4   5
ENDBRANCH   2   4
TORSDOF 27
ENDMDL
MODEL 14
REMARK VINA RESULT:      -5.3      7.382      9.945
REMARK  27 active torsions:
REMARK  status: ('A' for Active; 'I' for Inactive)
REMARK    1  A    between atoms: C2_2  and  S1_4 
REMARK    2  A    between atoms: S1_4  and  C3_5 
REMARK    3  A    between atoms: C3_5  and  C4_6 
REMARK    4  A    between atoms: C4_6  and  N1_7 
REMARK       I    between atoms: N1_7  and  C5_8 
REMARK    5  A    between atoms: C5_8  and  C6_10 
REMARK    6  A    between atoms: C6_10  and  C7_11 
REMARK    7  A    between atoms: C7_11  and  N2_12 
REMARK       I    between atoms: N2_12  and  C8_13 
REMARK    8  A    between atoms: C8_13  and  C9_15 
REMARK    9  A    between atoms: C9_15  and  C10_16 
REMARK   10  A    between atoms: C9_15  and  O17_54 
REMARK   11  A    between atoms: C10_16  and  C13_19 
REMARK   12  A    between atoms: C13_19  and  O4_20 
REMARK   13  A    between atoms: O4_20  and  P1_21 
REMARK   14  A    between atoms: P1_21  and  O6_23 
REMARK   15  A    between atoms: P1_21  and  O7_24 
REMARK   16  A    between atoms: O7_24  and  P2_25 
REMARK   17  A    between atoms: P2_25  and  O9_27 
REMARK   18  A    between atoms: P2_25  and  O10_28 
REMARK   19  A    between atoms: O10_28  and  C14_29 
REMARK   20  A    between atoms: C14_29  and  C15_30 
REMARK   21  A    between atoms: C16_31  and  O13_49 
REMARK   22  A    between atoms: C17_32  and  O12_48 
REMARK   23  A    between atoms: C18_33  and  N3_35 
REMARK   24  A    between atoms: C21_40  and  N7_47 
REMARK   25  A    between atoms: O13_49  and  P3_50 
REMARK   26  A    between atoms: P3_50  and  O15_52 
REMARK   27  A    between atoms: P3_50  and  O16_53 
ROOT
HETATM    1  C1  UNL     1      10.596   4.210  -3.630  1.00  0.00     0.104 C 
HETATM    2  C2  UNL     1      11.337   4.670  -4.848  1.00  0.00     0.182 C 
HETATM    3  O1  UNL     1      12.468   4.287  -5.134  1.00  0.00    -0.286 OA
ENDROOT
BRANCH   2   4
HETATM    4  S1  UNL     1      10.467   5.845  -5.825  1.00  0.00    -0.091 SA
BRANCH   4   5
HETATM    5  C3  UNL     1      11.435   5.765  -7.366  1.00  0.00     0.102 C 
BRANCH   5   6
HETATM    6  C4  UNL     1      10.733   6.486  -8.519  1.00  0.00     0.133 C 
BRANCH   6   7
HETATM    7  N1  UNL     1      11.076   7.892  -8.590  1.00  0.00    -0.360 N 
HETATM    8  C5  UNL     1      10.140   8.851  -8.898  1.00  0.00     0.219 C 
HETATM    9  O2  UNL     1       8.987   8.573  -9.209  1.00  0.00    -0.274 OA
HETATM   10  H8  UNL     1      12.030   8.170  -8.399  1.00  0.00     0.162 HD
BRANCH   8  11
HETATM   11  C6  UNL     1      10.692  10.260  -8.865  1.00  0.00     0.122 C 
BRANCH  11  12
HETATM   12  C7  UNL     1      12.126  10.299  -8.337  1.00  0.00     0.132 C 
BRANCH  12  13
HETATM   13  N2  UNL     1      13.105  10.554  -9.373  1.00  0.00    -0.358 N 
HETATM   14  C8  UNL     1      13.999   9.567  -9.744  1.00  0.00     0.247 C 
HETATM   15  O3  UNL     1      14.079   8.501  -9.146  1.00  0.00    -0.271 OA
HETATM   16  H13 UNL     1      12.821  11.219 -10.090  1.00  0.00     0.162 HD
BRANCH  14  17
HETATM   17  C9  UNL     1      14.860   9.906 -10.970  1.00  0.00     0.219 C 
BRANCH  17  18
HETATM   18  C10 UNL     1      15.997  10.925 -10.694  1.00  0.00     0.009 C 
HETATM   19  C11 UNL     1      15.614  12.349 -11.124  1.00  0.00     0.020 C 
HETATM   20  C12 UNL     1      16.370  10.965  -9.199  1.00  0.00     0.020 C 
BRANCH  18  21
HETATM   21  C13 UNL     1      17.218  10.439 -11.527  1.00  0.00     0.192 C 
BRANCH  21  22
HETATM   22  O4  UNL     1      18.111   9.653 -10.765  1.00  0.00    -0.296 OA
BRANCH  22  23
HETATM   23  P1  UNL     1      19.546   9.189 -11.310  1.00  0.00     0.401 P 
HETATM   24  O5  UNL     1      20.459   8.656 -10.252  1.00  0.00    -0.631 OA
BRANCH  23  25
HETATM   25  O6  UNL     1      20.157  10.433 -12.128  1.00  0.00    -0.307 OA
HETATM   26  H23 UNL     1      20.955  10.189 -12.615  1.00  0.00     0.222 HD
ENDBRANCH  23  25
BRANCH  23  27
HETATM   27  O7  UNL     1      19.227   8.170 -12.489  1.00  0.00    -0.195 OA
BRANCH  27  28
HETATM   28  P2  UNL     1      19.985   6.769 -12.522  1.00  0.00     0.401 P 
HETATM   29  O8  UNL     1      21.429   6.790 -12.904  1.00  0.00    -0.631 OA
BRANCH  28  30
HETATM   30  O9  UNL     1      19.705   6.167 -11.070  1.00  0.00    -0.307 OA
HETATM   31  H24 UNL     1      20.091   5.269 -10.924  1.00  0.00     0.222 HD
ENDBRANCH  28  30
BRANCH  28  32
HETATM   32  O10 UNL     1      19.041   5.840 -13.413  1.00  0.00    -0.294 OA
BRANCH  32  33
HETATM   33  C14 UNL     1      19.594   4.791 -14.165  1.00  0.00     0.215 C 
BRANCH  33  34
HETATM   34  C15 UNL     1      18.540   4.408 -15.202  1.00  0.00     0.180 C 
HETATM   35  C16 UNL     1      17.175   4.302 -14.535  1.00  0.00     0.197 C 
HETATM   36  C17 UNL     1      16.767   2.853 -14.722  1.00  0.00     0.199 C 
HETATM   37  C18 UNL     1      17.556   2.454 -15.972  1.00  0.00     0.262 C 
HETATM   38  O11 UNL     1      18.813   3.154 -15.838  1.00  0.00    -0.353 OA
BRANCH  35  39
HETATM   39  O13 UNL     1      16.290   5.199 -15.197  1.00  0.00    -0.286 OA
BRANCH  39  40
HETATM   40  P3  UNL     1      15.435   6.154 -14.242  1.00  0.00     0.391 P 
HETATM   41  O14 UNL     1      14.304   5.461 -13.552  1.00  0.00    -0.632 OA
BRANCH  40  42
HETATM   42  O15 UNL     1      15.071   7.340 -15.252  1.00  0.00    -0.307 OA
HETATM   43  H36 UNL     1      15.709   7.366 -16.004  1.00  0.00     0.222 HD
ENDBRANCH  40  42
BRANCH  40  44
HETATM   44  O16 UNL     1      16.573   6.790 -13.331  1.00  0.00    -0.307 OA
HETATM   45  H37 UNL     1      17.437   6.368 -13.460  1.00  0.00     0.222 HD
ENDBRANCH  40  44
ENDBRANCH  39  40
ENDBRANCH  35  39
BRANCH  36  46
HETATM   46  O12 UNL     1      15.342   2.743 -14.782  1.00  0.00    -0.388 OA
HETATM   47  H35 UNL     1      14.986   3.650 -14.627  1.00  0.00     0.210 HD
ENDBRANCH  36  46
BRANCH  37  48
HETATM   48  N3  UNL     1      17.819   1.031 -16.034  1.00  0.00    -0.297 N 
HETATM   49  C19 UNL     1      17.238   0.044 -15.271  1.00  0.00     0.188 A 
HETATM   50  N4  UNL     1      17.597  -1.161 -15.656  1.00  0.00    -0.346 N 
HETATM   51  C20 UNL     1      18.449  -0.945 -16.725  1.00  0.00     0.116 A 
HETATM   52  H4  UNL     1      17.312  -2.055 -15.257  1.00  0.00     0.167 HD
HETATM   53  C21 UNL     1      19.130  -1.818 -17.592  1.00  0.00     0.109 A 
HETATM   54  C23 UNL     1      18.626   0.409 -16.945  1.00  0.00     0.142 A 
HETATM   55  N5  UNL     1      19.917  -1.288 -18.560  1.00  0.00    -0.341 N 
HETATM   56  C22 UNL     1      20.013   0.054 -18.641  1.00  0.00     0.183 A 
HETATM   57  H5  UNL     1      20.424  -1.889 -19.210  1.00  0.00     0.167 HD
HETATM   58  N6  UNL     1      19.406   0.985 -17.877  1.00  0.00    -0.336 N 
HETATM   59  H6  UNL     1      19.522   1.992 -17.991  1.00  0.00     0.168 HD
BRANCH  53  60
HETATM   60  N7  UNL     1      19.046  -3.198 -17.504  1.00  0.00    -0.287 NA
HETATM   61  H33 UNL     1      19.265  -3.687 -18.369  1.00  0.00     0.125 HD
HETATM   62  H34 UNL     1      18.230  -3.513 -16.997  1.00  0.00     0.125 HD
ENDBRANCH  53  60
ENDBRANCH  37  48
ENDBRANCH  33  34
ENDBRANCH  32  33
ENDBRANCH  28  32
ENDBRANCH  27  28
ENDBRANCH  23  27
ENDBRANCH  22  23
ENDBRANCH  21  22
ENDBRANCH  18  21
ENDBRANCH  17  18
BRANCH  17  63
HETATM   63  O17 UNL     1      15.441   8.714 -11.510  1.00  0.00    -0.385 OA
HETATM   64  H38 UNL     1      15.129   7.960 -10.981  1.00  0.00     0.210 HD
ENDBRANCH  17  63
ENDBRANCH  14  17
ENDBRANCH  12  13
ENDBRANCH  11  12
ENDBRANCH   8  11
ENDBRANCH   6   7
ENDBRANCH   5   6
ENDBRANCH   4   5
ENDBRANCH   2   4
TORSDOF 27
ENDMDL
MODEL 15
REMARK VINA RESULT:      -5.3      5.032      8.821
REMARK  27 active torsions:
REMARK  status: ('A' for Active; 'I' for Inactive)
REMARK    1  A    between atoms: C2_2  and  S1_4 
REMARK    2  A    between atoms: S1_4  and  C3_5 
REMARK    3  A    between atoms: C3_5  and  C4_6 
REMARK    4  A    between atoms: C4_6  and  N1_7 
REMARK       I    between atoms: N1_7  and  C5_8 
REMARK    5  A    between atoms: C5_8  and  C6_10 
REMARK    6  A    between atoms: C6_10  and  C7_11 
REMARK    7  A    between atoms: C7_11  and  N2_12 
REMARK       I    between atoms: N2_12  and  C8_13 
REMARK    8  A    between atoms: C8_13  and  C9_15 
REMARK    9  A    between atoms: C9_15  and  C10_16 
REMARK   10  A    between atoms: C9_15  and  O17_54 
REMARK   11  A    between atoms: C10_16  and  C13_19 
REMARK   12  A    between atoms: C13_19  and  O4_20 
REMARK   13  A    between atoms: O4_20  and  P1_21 
REMARK   14  A    between atoms: P1_21  and  O6_23 
REMARK   15  A    between atoms: P1_21  and  O7_24 
REMARK   16  A    between atoms: O7_24  and  P2_25 
REMARK   17  A    between atoms: P2_25  and  O9_27 
REMARK   18  A    between atoms: P2_25  and  O10_28 
REMARK   19  A    between atoms: O10_28  and  C14_29 
REMARK   20  A    between atoms: C14_29  and  C15_30 
REMARK   21  A    between atoms: C16_31  and  O13_49 
REMARK   22  A    between atoms: C17_32  and  O12_48 
REMARK   23  A    between atoms: C18_33  and  N3_35 
REMARK   24  A    between atoms: C21_40  and  N7_47 
REMARK   25  A    between atoms: O13_49  and  P3_50 
REMARK   26  A    between atoms: P3_50  and  O15_52 
REMARK   27  A    between atoms: P3_50  and  O16_53 
ROOT
HETATM    1  C1  UNL     1      16.144   2.304 -14.843  1.00  0.00     0.104 C 
HETATM    2  C2  UNL     1      17.471   2.164 -15.523  1.00  0.00     0.182 C 
HETATM    3  O1  UNL     1      17.596   2.018 -16.737  1.00  0.00    -0.286 OA
ENDROOT
BRANCH   2   4
HETATM    4  S1  UNL     1      18.851   2.186 -14.433  1.00  0.00    -0.091 SA
BRANCH   4   5
HETATM    5  C3  UNL     1      18.675   3.856 -13.723  1.00  0.00     0.102 C 
BRANCH   5   6
HETATM    6  C4  UNL     1      18.608   4.932 -14.808  1.00  0.00     0.133 C 
BRANCH   6   7
HETATM    7  N1  UNL     1      18.823   6.266 -14.287  1.00  0.00    -0.360 N 
HETATM    8  C5  UNL     1      17.794   7.013 -13.762  1.00  0.00     0.219 C 
HETATM    9  O2  UNL     1      16.629   6.633 -13.775  1.00  0.00    -0.274 OA
HETATM   10  H8  UNL     1      19.758   6.651 -14.306  1.00  0.00     0.162 HD
BRANCH   8  11
HETATM   11  C6  UNL     1      18.242   8.354 -13.222  1.00  0.00     0.122 C 
BRANCH  11  12
HETATM   12  C7  UNL     1      18.941   8.221 -11.869  1.00  0.00     0.132 C 
BRANCH  12  13
HETATM   13  N2  UNL     1      18.490   9.196 -10.899  1.00  0.00    -0.358 N 
HETATM   14  C8  UNL     1      19.246  10.326 -10.644  1.00  0.00     0.247 C 
HETATM   15  O3  UNL     1      20.360  10.487 -11.126  1.00  0.00    -0.271 OA
HETATM   16  H13 UNL     1      17.480   9.279 -10.798  1.00  0.00     0.162 HD
BRANCH  14  17
HETATM   17  C9  UNL     1      18.571  11.360  -9.731  1.00  0.00     0.219 C 
BRANCH  17  18
HETATM   18  C10 UNL     1      18.235  12.707 -10.424  1.00  0.00     0.009 C 
HETATM   19  C11 UNL     1      19.426  13.676 -10.412  1.00  0.00     0.020 C 
HETATM   20  C12 UNL     1      17.807  12.497 -11.890  1.00  0.00     0.020 C 
BRANCH  18  21
HETATM   21  C13 UNL     1      17.055  13.319  -9.616  1.00  0.00     0.192 C 
BRANCH  21  22
HETATM   22  O4  UNL     1      15.805  13.101 -10.239  1.00  0.00    -0.296 OA
BRANCH  22  23
HETATM   23  P1  UNL     1      14.700  14.251 -10.401  1.00  0.00     0.401 P 
HETATM   24  O5  UNL     1      14.322  14.542 -11.819  1.00  0.00    -0.631 OA
BRANCH  23  25
HETATM   25  O6  UNL     1      15.244  15.535  -9.596  1.00  0.00    -0.307 OA
HETATM   26  H23 UNL     1      14.665  16.301  -9.703  1.00  0.00     0.222 HD
ENDBRANCH  23  25
BRANCH  23  27
HETATM   27  O7  UNL     1      13.492  13.793  -9.472  1.00  0.00    -0.195 OA
BRANCH  27  28
HETATM   28  P2  UNL     1      12.360  12.855 -10.086  1.00  0.00     0.401 P 
HETATM   29  O8  UNL     1      11.192  13.533 -10.725  1.00  0.00    -0.631 OA
BRANCH  28  30
HETATM   30  O9  UNL     1      13.174  11.896 -11.070  1.00  0.00    -0.307 OA
HETATM   31  H24 UNL     1      14.089  11.684 -10.762  1.00  0.00     0.222 HD
ENDBRANCH  28  30
BRANCH  28  32
HETATM   32  O10 UNL     1      12.016  11.839  -8.903  1.00  0.00    -0.294 OA
BRANCH  32  33
HETATM   33  C14 UNL     1      11.399  10.612  -9.189  1.00  0.00     0.215 C 
BRANCH  33  34
HETATM   34  C15 UNL     1      12.281   9.534  -8.562  1.00  0.00     0.180 C 
HETATM   35  C16 UNL     1      12.574   8.447  -9.587  1.00  0.00     0.197 C 
HETATM   36  C17 UNL     1      11.960   7.190  -9.001  1.00  0.00     0.199 C 
HETATM   37  C18 UNL     1      11.967   7.496  -7.501  1.00  0.00     0.262 C 
HETATM   38  O11 UNL     1      11.675   8.908  -7.424  1.00  0.00    -0.353 OA
BRANCH  35  39
HETATM   39  O13 UNL     1      13.987   8.340  -9.724  1.00  0.00    -0.286 OA
BRANCH  39  40
HETATM   40  P3  UNL     1      14.574   8.749 -11.154  1.00  0.00     0.391 P 
HETATM   41  O14 UNL     1      15.618   9.816 -11.094  1.00  0.00    -0.632 OA
BRANCH  40  42
HETATM   42  O15 UNL     1      13.224   9.077 -11.948  1.00  0.00    -0.307 OA
HETATM   43  H36 UNL     1      12.676   8.264 -12.056  1.00  0.00     0.222 HD
ENDBRANCH  40  42
BRANCH  40  44
HETATM   44  O16 UNL     1      15.001   7.332 -11.737  1.00  0.00    -0.307 OA
HETATM   45  H37 UNL     1      15.703   6.908 -11.219  1.00  0.00     0.222 HD
ENDBRANCH  40  44
ENDBRANCH  39  40
ENDBRANCH  35  39
BRANCH  36  46
HETATM   46  O12 UNL     1      12.681   6.035  -9.439  1.00  0.00    -0.388 OA
HETATM   47  H35 UNL     1      13.621   6.179  -9.178  1.00  0.00     0.210 HD
ENDBRANCH  36  46
BRANCH  37  48
HETATM   48  N3  UNL     1      10.943   6.768  -6.780  1.00  0.00    -0.297 N 
HETATM   49  C19 UNL     1      11.127   5.865  -5.759  1.00  0.00     0.188 A 
HETATM   50  N4  UNL     1       9.989   5.474  -5.227  1.00  0.00    -0.346 N 
HETATM   51  C20 UNL     1       9.019   6.160  -5.936  1.00  0.00     0.116 A 
HETATM   52  H4  UNL     1       9.852   4.812  -4.464  1.00  0.00     0.167 HD
HETATM   53  C21 UNL     1       7.619   6.213  -5.828  1.00  0.00     0.109 A 
HETATM   54  C23 UNL     1       9.594   6.936  -6.927  1.00  0.00     0.142 A 
HETATM   55  N5  UNL     1       6.929   6.992  -6.698  1.00  0.00    -0.341 N 
HETATM   56  C22 UNL     1       7.623   7.676  -7.629  1.00  0.00     0.183 A 
HETATM   57  H5  UNL     1       5.913   7.058  -6.648  1.00  0.00     0.167 HD
HETATM   58  N6  UNL     1       8.957   7.711  -7.823  1.00  0.00    -0.336 N 
HETATM   59  H6  UNL     1       9.422   8.252  -8.551  1.00  0.00     0.168 HD
BRANCH  53  60
HETATM   60  N7  UNL     1       6.900   5.500  -4.882  1.00  0.00    -0.287 NA
HETATM   61  H33 UNL     1       6.575   6.058  -4.095  1.00  0.00     0.125 HD
HETATM   62  H34 UNL     1       7.314   4.604  -4.664  1.00  0.00     0.125 HD
ENDBRANCH  53  60
ENDBRANCH  37  48
ENDBRANCH  33  34
ENDBRANCH  32  33
ENDBRANCH  28  32
ENDBRANCH  27  28
ENDBRANCH  23  27
ENDBRANCH  22  23
ENDBRANCH  21  22
ENDBRANCH  18  21
ENDBRANCH  17  18
BRANCH  17  63
HETATM   63  O17 UNL     1      17.365  10.819  -9.180  1.00  0.00    -0.385 OA
HETATM   64  H38 UNL     1      17.599  10.302  -8.391  1.00  0.00     0.210 HD
ENDBRANCH  17  63
ENDBRANCH  14  17
ENDBRANCH  12  13
ENDBRANCH  11  12
ENDBRANCH   8  11
ENDBRANCH   6   7
ENDBRANCH   5   6
ENDBRANCH   4   5
ENDBRANCH   2   4
TORSDOF 27
ENDMDL
MODEL 16
REMARK VINA RESULT:      -5.3      5.408      8.294
REMARK  27 active torsions:
REMARK  status: ('A' for Active; 'I' for Inactive)
REMARK    1  A    between atoms: C2_2  and  S1_4 
REMARK    2  A    between atoms: S1_4  and  C3_5 
REMARK    3  A    between atoms: C3_5  and  C4_6 
REMARK    4  A    between atoms: C4_6  and  N1_7 
REMARK       I    between atoms: N1_7  and  C5_8 
REMARK    5  A    between atoms: C5_8  and  C6_10 
REMARK    6  A    between atoms: C6_10  and  C7_11 
REMARK    7  A    between atoms: C7_11  and  N2_12 
REMARK       I    between atoms: N2_12  and  C8_13 
REMARK    8  A    between atoms: C8_13  and  C9_15 
REMARK    9  A    between atoms: C9_15  and  C10_16 
REMARK   10  A    between atoms: C9_15  and  O17_54 
REMARK   11  A    between atoms: C10_16  and  C13_19 
REMARK   12  A    between atoms: C13_19  and  O4_20 
REMARK   13  A    between atoms: O4_20  and  P1_21 
REMARK   14  A    between atoms: P1_21  and  O6_23 
REMARK   15  A    between atoms: P1_21  and  O7_24 
REMARK   16  A    between atoms: O7_24  and  P2_25 
REMARK   17  A    between atoms: P2_25  and  O9_27 
REMARK   18  A    between atoms: P2_25  and  O10_28 
REMARK   19  A    between atoms: O10_28  and  C14_29 
REMARK   20  A    between atoms: C14_29  and  C15_30 
REMARK   21  A    between atoms: C16_31  and  O13_49 
REMARK   22  A    between atoms: C17_32  and  O12_48 
REMARK   23  A    between atoms: C18_33  and  N3_35 
REMARK   24  A    between atoms: C21_40  and  N7_47 
REMARK   25  A    between atoms: O13_49  and  P3_50 
REMARK   26  A    between atoms: P3_50  and  O15_52 
REMARK   27  A    between atoms: P3_50  and  O16_53 
ROOT
HETATM    1  C1  UNL     1       8.314   7.091  -7.261  1.00  0.00     0.104 C 
HETATM    2  C2  UNL     1       8.949   6.128  -6.304  1.00  0.00     0.182 C 
HETATM    3  O1  UNL     1       8.308   5.456  -5.500  1.00  0.00    -0.286 OA
ENDROOT
BRANCH   2   4
HETATM    4  S1  UNL     1      10.703   6.065  -6.396  1.00  0.00    -0.091 SA
BRANCH   4   5
HETATM    5  C3  UNL     1      11.002   7.269  -7.730  1.00  0.00     0.102 C 
BRANCH   5   6
HETATM    6  C4  UNL     1      12.479   7.329  -8.124  1.00  0.00     0.133 C 
BRANCH   6   7
HETATM    7  N1  UNL     1      13.179   8.436  -7.506  1.00  0.00    -0.360 N 
HETATM    8  C5  UNL     1      14.079   8.243  -6.484  1.00  0.00     0.219 C 
HETATM    9  O2  UNL     1      14.283   7.143  -5.983  1.00  0.00    -0.274 OA
HETATM   10  H8  UNL     1      13.003   9.372  -7.843  1.00  0.00     0.162 HD
BRANCH   8  11
HETATM   11  C6  UNL     1      14.740   9.522  -6.018  1.00  0.00     0.122 C 
BRANCH  11  12
HETATM   12  C7  UNL     1      15.437  10.255  -7.163  1.00  0.00     0.132 C 
BRANCH  12  13
HETATM   13  N2  UNL     1      14.851  11.547  -7.450  1.00  0.00    -0.358 N 
HETATM   14  C8  UNL     1      15.378  12.693  -6.881  1.00  0.00     0.247 C 
HETATM   15  O3  UNL     1      16.265  12.653  -6.038  1.00  0.00    -0.271 OA
HETATM   16  H13 UNL     1      14.419  11.639  -8.367  1.00  0.00     0.162 HD
BRANCH  14  17
HETATM   17  C9  UNL     1      14.779  14.006  -7.405  1.00  0.00     0.219 C 
BRANCH  17  18
HETATM   18  C10 UNL     1      13.346  14.309  -6.893  1.00  0.00     0.009 C 
HETATM   19  C11 UNL     1      13.181  13.970  -5.404  1.00  0.00     0.020 C 
HETATM   20  C12 UNL     1      12.979  15.794  -7.085  1.00  0.00     0.020 C 
BRANCH  18  21
HETATM   21  C13 UNL     1      12.393  13.418  -7.740  1.00  0.00     0.192 C 
BRANCH  21  22
HETATM   22  O4  UNL     1      12.157  13.954  -9.027  1.00  0.00    -0.296 OA
BRANCH  22  23
HETATM   23  P1  UNL     1      12.490  13.156 -10.377  1.00  0.00     0.401 P 
HETATM   24  O5  UNL     1      13.156  13.985 -11.429  1.00  0.00    -0.631 OA
BRANCH  23  25
HETATM   25  O6  UNL     1      11.117  12.471 -10.863  1.00  0.00    -0.307 OA
HETATM   26  H23 UNL     1      10.776  12.877 -11.670  1.00  0.00     0.222 HD
ENDBRANCH  23  25
BRANCH  23  27
HETATM   27  O7  UNL     1      13.322  11.883  -9.908  1.00  0.00    -0.195 OA
BRANCH  27  28
HETATM   28  P2  UNL     1      13.216  10.539 -10.756  1.00  0.00     0.401 P 
HETATM   29  O8  UNL     1      12.086   9.619 -10.427  1.00  0.00    -0.631 OA
BRANCH  28  30
HETATM   30  O9  UNL     1      13.216  11.057 -12.266  1.00  0.00    -0.307 OA
HETATM   31  H24 UNL     1      12.807  11.949 -12.387  1.00  0.00     0.222 HD
ENDBRANCH  28  30
BRANCH  28  32
HETATM   32  O10 UNL     1      14.679   9.907 -10.662  1.00  0.00    -0.294 OA
BRANCH  32  33
HETATM   33  C14 UNL     1      15.066   8.896 -11.555  1.00  0.00     0.215 C 
BRANCH  33  34
HETATM   34  C15 UNL     1      16.547   8.632 -11.286  1.00  0.00     0.180 C 
HETATM   35  C16 UNL     1      17.349   9.904 -11.529  1.00  0.00     0.197 C 
HETATM   36  C17 UNL     1      18.291   9.553 -12.666  1.00  0.00     0.199 C 
HETATM   37  C18 UNL     1      18.412   8.033 -12.527  1.00  0.00     0.262 C 
HETATM   38  O11 UNL     1      17.093   7.605 -12.122  1.00  0.00    -0.353 OA
BRANCH  35  39
HETATM   39  O13 UNL     1      18.049  10.220 -10.330  1.00  0.00    -0.286 OA
BRANCH  39  40
HETATM   40  P3  UNL     1      17.967  11.747  -9.867  1.00  0.00     0.391 P 
HETATM   41  O14 UNL     1      18.938  12.642 -10.566  1.00  0.00    -0.632 OA
BRANCH  40  42
HETATM   42  O15 UNL     1      18.116  11.588  -8.282  1.00  0.00    -0.307 OA
HETATM   43  H36 UNL     1      19.067  11.572  -8.021  1.00  0.00     0.222 HD
ENDBRANCH  40  42
BRANCH  40  44
HETATM   44  O16 UNL     1      16.418  12.051 -10.056  1.00  0.00    -0.307 OA
HETATM   45  H37 UNL     1      16.084  12.711  -9.427  1.00  0.00     0.222 HD
ENDBRANCH  40  44
ENDBRANCH  39  40
ENDBRANCH  35  39
BRANCH  36  46
HETATM   46  O12 UNL     1      19.494  10.319 -12.568  1.00  0.00    -0.388 OA
HETATM   47  H35 UNL     1      19.257  11.242 -12.824  1.00  0.00     0.210 HD
ENDBRANCH  36  46
BRANCH  37  48
HETATM   48  N3  UNL     1      18.749   7.385 -13.778  1.00  0.00    -0.297 N 
HETATM   49  C19 UNL     1      18.993   7.991 -14.989  1.00  0.00     0.188 A 
HETATM   50  N4  UNL     1      19.397   7.135 -15.902  1.00  0.00    -0.346 N 
HETATM   51  C20 UNL     1      19.422   5.915 -15.250  1.00  0.00     0.116 A 
HETATM   52  H4  UNL     1      19.639   7.328 -16.874  1.00  0.00     0.167 HD
HETATM   53  C21 UNL     1      19.801   4.624 -15.658  1.00  0.00     0.109 A 
HETATM   54  C23 UNL     1      18.985   6.049 -13.945  1.00  0.00     0.142 A 
HETATM   55  N5  UNL     1      19.700   3.606 -14.768  1.00  0.00    -0.341 N 
HETATM   56  C22 UNL     1      19.234   3.882 -13.534  1.00  0.00     0.183 A 
HETATM   57  H5  UNL     1      19.969   2.657 -15.027  1.00  0.00     0.167 HD
HETATM   58  N6  UNL     1      18.850   5.073 -13.030  1.00  0.00    -0.336 N 
HETATM   59  H6  UNL     1      18.504   5.214 -12.080  1.00  0.00     0.168 HD
BRANCH  53  60
HETATM   60  N7  UNL     1      20.267   4.333 -16.930  1.00  0.00    -0.287 NA
HETATM   61  H33 UNL     1      20.863   5.053 -17.333  1.00  0.00     0.125 HD
HETATM   62  H34 UNL     1      19.554   3.943 -17.532  1.00  0.00     0.125 HD
ENDBRANCH  53  60
ENDBRANCH  37  48
ENDBRANCH  33  34
ENDBRANCH  32  33
ENDBRANCH  28  32
ENDBRANCH  27  28
ENDBRANCH  23  27
ENDBRANCH  22  23
ENDBRANCH  21  22
ENDBRANCH  18  21
ENDBRANCH  17  18
BRANCH  17  63
HETATM   63  O17 UNL     1      15.627  15.107  -7.060  1.00  0.00    -0.385 OA
HETATM   64  H38 UNL     1      15.071  15.899  -6.970  1.00  0.00     0.210 HD
ENDBRANCH  17  63
ENDBRANCH  14  17
ENDBRANCH  12  13
ENDBRANCH  11  12
ENDBRANCH   8  11
ENDBRANCH   6   7
ENDBRANCH   5   6
ENDBRANCH   4   5
ENDBRANCH   2   4
TORSDOF 27
ENDMDL
MODEL 17
REMARK VINA RESULT:      -5.2      4.593      7.890
REMARK  27 active torsions:
REMARK  status: ('A' for Active; 'I' for Inactive)
REMARK    1  A    between atoms: C2_2  and  S1_4 
REMARK    2  A    between atoms: S1_4  and  C3_5 
REMARK    3  A    between atoms: C3_5  and  C4_6 
REMARK    4  A    between atoms: C4_6  and  N1_7 
REMARK       I    between atoms: N1_7  and  C5_8 
REMARK    5  A    between atoms: C5_8  and  C6_10 
REMARK    6  A    between atoms: C6_10  and  C7_11 
REMARK    7  A    between atoms: C7_11  and  N2_12 
REMARK       I    between atoms: N2_12  and  C8_13 
REMARK    8  A    between atoms: C8_13  and  C9_15 
REMARK    9  A    between atoms: C9_15  and  C10_16 
REMARK   10  A    between atoms: C9_15  and  O17_54 
REMARK   11  A    between atoms: C10_16  and  C13_19 
REMARK   12  A    between atoms: C13_19  and  O4_20 
REMARK   13  A    between atoms: O4_20  and  P1_21 
REMARK   14  A    between atoms: P1_21  and  O6_23 
REMARK   15  A    between atoms: P1_21  and  O7_24 
REMARK   16  A    between atoms: O7_24  and  P2_25 
REMARK   17  A    between atoms: P2_25  and  O9_27 
REMARK   18  A    between atoms: P2_25  and  O10_28 
REMARK   19  A    between atoms: O10_28  and  C14_29 
REMARK   20  A    between atoms: C14_29  and  C15_30 
REMARK   21  A    between atoms: C16_31  and  O13_49 
REMARK   22  A    between atoms: C17_32  and  O12_48 
REMARK   23  A    between atoms: C18_33  and  N3_35 
REMARK   24  A    between atoms: C21_40  and  N7_47 
REMARK   25  A    between atoms: O13_49  and  P3_50 
REMARK   26  A    between atoms: P3_50  and  O15_52 
REMARK   27  A    between atoms: P3_50  and  O16_53 
ROOT
HETATM    1  C1  UNL     1       8.561   6.691  -7.096  1.00  0.00     0.104 C 
HETATM    2  C2  UNL     1       9.812   6.013  -6.628  1.00  0.00     0.182 C 
HETATM    3  O1  UNL     1       9.924   5.493  -5.520  1.00  0.00    -0.286 OA
ENDROOT
BRANCH   2   4
HETATM    4  S1  UNL     1      11.136   6.054  -7.785  1.00  0.00    -0.091 SA
BRANCH   4   5
HETATM    5  C3  UNL     1      11.494   7.841  -7.802  1.00  0.00     0.102 C 
BRANCH   5   6
HETATM    6  C4  UNL     1      12.939   8.128  -8.217  1.00  0.00     0.133 C 
BRANCH   6   7
HETATM    7  N1  UNL     1      13.578   9.115  -7.371  1.00  0.00    -0.360 N 
HETATM    8  C5  UNL     1      14.378   8.751  -6.312  1.00  0.00     0.219 C 
HETATM    9  O2  UNL     1      14.533   7.584  -5.972  1.00  0.00    -0.274 OA
HETATM   10  H8  UNL     1      13.435  10.095  -7.574  1.00  0.00     0.162 HD
BRANCH   8  11
HETATM   11  C6  UNL     1      14.993   9.933  -5.593  1.00  0.00     0.122 C 
BRANCH  11  12
HETATM   12  C7  UNL     1      15.203  11.123  -6.528  1.00  0.00     0.132 C 
BRANCH  12  13
HETATM   13  N2  UNL     1      14.015  11.934  -6.691  1.00  0.00    -0.358 N 
HETATM   14  C8  UNL     1      14.088  13.309  -6.568  1.00  0.00     0.247 C 
HETATM   15  O3  UNL     1      15.109  13.878  -6.205  1.00  0.00    -0.271 OA
HETATM   16  H13 UNL     1      13.314  11.560  -7.327  1.00  0.00     0.162 HD
BRANCH  14  17
HETATM   17  C9  UNL     1      12.799  14.058  -6.939  1.00  0.00     0.219 C 
BRANCH  17  18
HETATM   18  C10 UNL     1      12.019  14.635  -5.728  1.00  0.00     0.009 C 
HETATM   19  C11 UNL     1      12.390  13.933  -4.414  1.00  0.00     0.020 C 
HETATM   20  C12 UNL     1      12.286  16.144  -5.552  1.00  0.00     0.020 C 
BRANCH  18  21
HETATM   21  C13 UNL     1      10.513  14.401  -6.039  1.00  0.00     0.192 C 
BRANCH  21  22
HETATM   22  O4  UNL     1       9.897  15.541  -6.604  1.00  0.00    -0.296 OA
BRANCH  22  23
HETATM   23  P1  UNL     1       9.442  15.614  -8.140  1.00  0.00     0.401 P 
HETATM   24  O5  UNL     1       9.712  16.931  -8.796  1.00  0.00    -0.631 OA
BRANCH  23  25
HETATM   25  O6  UNL     1       7.895  15.169  -8.189  1.00  0.00    -0.307 OA
HETATM   26  H23 UNL     1       7.763  14.378  -8.726  1.00  0.00     0.222 HD
ENDBRANCH  23  25
BRANCH  23  27
HETATM   27  O7  UNL     1      10.144  14.367  -8.836  1.00  0.00    -0.195 OA
BRANCH  27  28
HETATM   28  P2  UNL     1       9.435  13.684 -10.088  1.00  0.00     0.401 P 
HETATM   29  O8  UNL     1       8.248  12.822  -9.807  1.00  0.00    -0.631 OA
BRANCH  28  30
HETATM   30  O9  UNL     1       9.128  14.918 -11.054  1.00  0.00    -0.307 OA
HETATM   31  H24 UNL     1       8.382  14.763 -11.683  1.00  0.00     0.222 HD
ENDBRANCH  28  30
BRANCH  28  32
HETATM   32  O10 UNL     1      10.634  12.985 -10.877  1.00  0.00    -0.294 OA
BRANCH  32  33
HETATM   33  C14 UNL     1      11.293  11.880 -10.316  1.00  0.00     0.215 C 
BRANCH  33  34
HETATM   34  C15 UNL     1      12.709  12.350  -9.986  1.00  0.00     0.180 C 
HETATM   35  C16 UNL     1      13.282  13.126 -11.164  1.00  0.00     0.197 C 
HETATM   36  C17 UNL     1      14.488  12.318 -11.606  1.00  0.00     0.199 C 
HETATM   37  C18 UNL     1      14.870  11.579 -10.321  1.00  0.00     0.262 C 
HETATM   38  O11 UNL     1      13.604  11.269  -9.698  1.00  0.00    -0.353 OA
BRANCH  35  39
HETATM   39  O13 UNL     1      13.645  14.423 -10.704  1.00  0.00    -0.286 OA
BRANCH  39  40
HETATM   40  P3  UNL     1      13.001  15.645 -11.509  1.00  0.00     0.391 P 
HETATM   41  O14 UNL     1      14.011  16.568 -12.111  1.00  0.00    -0.632 OA
BRANCH  40  42
HETATM   42  O15 UNL     1      12.015  16.246 -10.403  1.00  0.00    -0.307 OA
HETATM   43  H36 UNL     1      11.232  16.672 -10.827  1.00  0.00     0.222 HD
ENDBRANCH  40  42
BRANCH  40  44
HETATM   44  O16 UNL     1      12.015  14.886 -12.499  1.00  0.00    -0.307 OA
HETATM   45  H37 UNL     1      12.478  14.464 -13.240  1.00  0.00     0.222 HD
ENDBRANCH  40  44
ENDBRANCH  39  40
ENDBRANCH  35  39
BRANCH  36  46
HETATM   46  O12 UNL     1      15.474  13.175 -12.188  1.00  0.00    -0.388 OA
HETATM   47  H35 UNL     1      15.139  14.097 -12.078  1.00  0.00     0.210 HD
ENDBRANCH  36  46
BRANCH  37  48
HETATM   48  N3  UNL     1      15.577  10.341 -10.580  1.00  0.00    -0.297 N 
HETATM   49  C19 UNL     1      15.027   9.118 -10.887  1.00  0.00     0.188 A 
HETATM   50  N4  UNL     1      15.941   8.223 -11.191  1.00  0.00    -0.346 N 
HETATM   51  C20 UNL     1      17.143   8.899 -11.080  1.00  0.00     0.116 A 
HETATM   52  H4  UNL     1      15.797   7.247 -11.451  1.00  0.00     0.167 HD
HETATM   53  C21 UNL     1      18.476   8.518 -11.311  1.00  0.00     0.109 A 
HETATM   54  C23 UNL     1      16.934  10.202 -10.664  1.00  0.00     0.142 A 
HETATM   55  N5  UNL     1      19.458   9.428 -11.097  1.00  0.00    -0.341 N 
HETATM   56  C22 UNL     1      19.107  10.656 -10.668  1.00  0.00     0.183 A 
HETATM   57  H5  UNL     1      20.436   9.189 -11.257  1.00  0.00     0.167 HD
HETATM   58  N6  UNL     1      17.871  11.136 -10.422  1.00  0.00    -0.336 N 
HETATM   59  H6  UNL     1      17.672  12.082 -10.096  1.00  0.00     0.168 HD
BRANCH  53  60
HETATM   60  N7  UNL     1      18.844   7.252 -11.738  1.00  0.00    -0.287 NA
HETATM   61  H33 UNL     1      19.039   6.596 -10.985  1.00  0.00     0.125 HD
HETATM   62  H34 UNL     1      19.499   7.270 -12.508  1.00  0.00     0.125 HD
ENDBRANCH  53  60
ENDBRANCH  37  48
ENDBRANCH  33  34
ENDBRANCH  32  33
ENDBRANCH  28  32
ENDBRANCH  27  28
ENDBRANCH  23  27
ENDBRANCH  22  23
ENDBRANCH  21  22
ENDBRANCH  18  21
ENDBRANCH  17  18
BRANCH  17  63
HETATM   63  O17 UNL     1      13.094  15.129  -7.842  1.00  0.00    -0.385 OA
HETATM   64  H38 UNL     1      12.254  15.461  -8.202  1.00  0.00     0.210 HD
ENDBRANCH  17  63
ENDBRANCH  14  17
ENDBRANCH  12  13
ENDBRANCH  11  12
ENDBRANCH   8  11
ENDBRANCH   6   7
ENDBRANCH   5   6
ENDBRANCH   4   5
ENDBRANCH   2   4
TORSDOF 27
ENDMDL
MODEL 18
REMARK VINA RESULT:      -5.1      5.119      8.880
REMARK  27 active torsions:
REMARK  status: ('A' for Active; 'I' for Inactive)
REMARK    1  A    between atoms: C2_2  and  S1_4 
REMARK    2  A    between atoms: S1_4  and  C3_5 
REMARK    3  A    between atoms: C3_5  and  C4_6 
REMARK    4  A    between atoms: C4_6  and  N1_7 
REMARK       I    between atoms: N1_7  and  C5_8 
REMARK    5  A    between atoms: C5_8  and  C6_10 
REMARK    6  A    between atoms: C6_10  and  C7_11 
REMARK    7  A    between atoms: C7_11  and  N2_12 
REMARK       I    between atoms: N2_12  and  C8_13 
REMARK    8  A    between atoms: C8_13  and  C9_15 
REMARK    9  A    between atoms: C9_15  and  C10_16 
REMARK   10  A    between atoms: C9_15  and  O17_54 
REMARK   11  A    between atoms: C10_16  and  C13_19 
REMARK   12  A    between atoms: C13_19  and  O4_20 
REMARK   13  A    between atoms: O4_20  and  P1_21 
REMARK   14  A    between atoms: P1_21  and  O6_23 
REMARK   15  A    between atoms: P1_21  and  O7_24 
REMARK   16  A    between atoms: O7_24  and  P2_25 
REMARK   17  A    between atoms: P2_25  and  O9_27 
REMARK   18  A    between atoms: P2_25  and  O10_28 
REMARK   19  A    between atoms: O10_28  and  C14_29 
REMARK   20  A    between atoms: C14_29  and  C15_30 
REMARK   21  A    between atoms: C16_31  and  O13_49 
REMARK   22  A    between atoms: C17_32  and  O12_48 
REMARK   23  A    between atoms: C18_33  and  N3_35 
REMARK   24  A    between atoms: C21_40  and  N7_47 
REMARK   25  A    between atoms: O13_49  and  P3_50 
REMARK   26  A    between atoms: P3_50  and  O15_52 
REMARK   27  A    between atoms: P3_50  and  O16_53 
ROOT
HETATM    1  C1  UNL     1      18.686  15.920  -5.042  1.00  0.00     0.104 C 
HETATM    2  C2  UNL     1      18.141  15.142  -3.883  1.00  0.00     0.182 C 
HETATM    3  O1  UNL     1      17.171  14.394  -3.971  1.00  0.00    -0.286 OA
ENDROOT
BRANCH   2   4
HETATM    4  S1  UNL     1      18.983  15.417  -2.364  1.00  0.00    -0.091 SA
BRANCH   4   5
HETATM    5  C3  UNL     1      20.703  15.502  -2.959  1.00  0.00     0.102 C 
BRANCH   5   6
HETATM    6  C4  UNL     1      21.408  14.147  -2.861  1.00  0.00     0.133 C 
BRANCH   6   7
HETATM    7  N1  UNL     1      21.017  13.236  -3.917  1.00  0.00    -0.360 N 
HETATM    8  C5  UNL     1      20.278  12.105  -3.660  1.00  0.00     0.219 C 
HETATM    9  O2  UNL     1      19.976  11.757  -2.524  1.00  0.00    -0.274 OA
HETATM   10  H8  UNL     1      21.291  13.446  -4.868  1.00  0.00     0.162 HD
BRANCH   8  11
HETATM   11  C6  UNL     1      19.929  11.321  -4.907  1.00  0.00     0.122 C 
BRANCH  11  12
HETATM   12  C7  UNL     1      18.434  11.382  -5.220  1.00  0.00     0.132 C 
BRANCH  12  13
HETATM   13  N2  UNL     1      18.150  11.375  -6.640  1.00  0.00    -0.358 N 
HETATM   14  C8  UNL     1      16.943  11.857  -7.112  1.00  0.00     0.247 C 
HETATM   15  O3  UNL     1      16.036  12.191  -6.360  1.00  0.00    -0.271 OA
HETATM   16  H13 UNL     1      18.960  11.471  -7.249  1.00  0.00     0.162 HD
BRANCH  14  17
HETATM   17  C9  UNL     1      16.843  11.956  -8.641  1.00  0.00     0.219 C 
BRANCH  17  18
HETATM   18  C10 UNL     1      17.164  13.361  -9.217  1.00  0.00     0.009 C 
HETATM   19  C11 UNL     1      16.750  14.487  -8.258  1.00  0.00     0.020 C 
HETATM   20  C12 UNL     1      18.668  13.520  -9.515  1.00  0.00     0.020 C 
BRANCH  18  21
HETATM   21  C13 UNL     1      16.352  13.476 -10.539  1.00  0.00     0.192 C 
BRANCH  21  22
HETATM   22  O4  UNL     1      15.086  14.073 -10.343  1.00  0.00    -0.296 OA
BRANCH  22  23
HETATM   23  P1  UNL     1      13.711  13.257 -10.461  1.00  0.00     0.401 P 
HETATM   24  O5  UNL     1      13.557  12.500 -11.743  1.00  0.00    -0.631 OA
BRANCH  23  25
HETATM   25  O6  UNL     1      12.522  14.306 -10.179  1.00  0.00    -0.307 OA
HETATM   26  H23 UNL     1      11.786  13.899  -9.705  1.00  0.00     0.222 HD
ENDBRANCH  23  25
BRANCH  23  27
HETATM   27  O7  UNL     1      13.650  12.361  -9.148  1.00  0.00    -0.195 OA
BRANCH  27  28
HETATM   28  P2  UNL     1      12.228  12.000  -8.527  1.00  0.00     0.401 P 
HETATM   29  O8  UNL     1      11.549  13.064  -7.728  1.00  0.00    -0.631 OA
BRANCH  28  30
HETATM   30  O9  UNL     1      11.391  11.502  -9.792  1.00  0.00    -0.307 OA
HETATM   31  H24 UNL     1      11.557  10.559 -10.040  1.00  0.00     0.222 HD
ENDBRANCH  28  30
BRANCH  28  32
HETATM   32  O10 UNL     1      12.476  10.614  -7.774  1.00  0.00    -0.294 OA
BRANCH  32  33
HETATM   33  C14 UNL     1      13.771  10.078  -7.698  1.00  0.00     0.215 C 
BRANCH  33  34
HETATM   34  C15 UNL     1      13.663   8.630  -8.174  1.00  0.00     0.180 C 
HETATM   35  C16 UNL     1      13.485   8.597  -9.686  1.00  0.00     0.197 C 
HETATM   36  C17 UNL     1      12.128   7.953  -9.900  1.00  0.00     0.199 C 
HETATM   37  C18 UNL     1      11.962   7.120  -8.627  1.00  0.00     0.262 C 
HETATM   38  O11 UNL     1      12.558   7.931  -7.590  1.00  0.00    -0.353 OA
BRANCH  35  39
HETATM   39  O13 UNL     1      14.542   7.818 -10.237  1.00  0.00    -0.286 OA
BRANCH  39  40
HETATM   40  P3  UNL     1      15.482   8.576 -11.285  1.00  0.00     0.391 P 
HETATM   41  O14 UNL     1      15.317   8.103 -12.694  1.00  0.00    -0.632 OA
BRANCH  40  42
HETATM   42  O15 UNL     1      16.914   8.377 -10.600  1.00  0.00    -0.307 OA
HETATM   43  H36 UNL     1      17.055   7.433 -10.353  1.00  0.00     0.222 HD
ENDBRANCH  40  42
BRANCH  40  44
HETATM   44  O16 UNL     1      15.140  10.097 -10.974  1.00  0.00    -0.307 OA
HETATM   45  H37 UNL     1      15.700  10.717 -11.466  1.00  0.00     0.222 HD
ENDBRANCH  40  44
ENDBRANCH  39  40
ENDBRANCH  35  39
BRANCH  36  46
HETATM   46  O12 UNL     1      12.101   7.257 -11.149  1.00  0.00    -0.388 OA
HETATM   47  H35 UNL     1      12.829   6.592 -11.112  1.00  0.00     0.210 HD
ENDBRANCH  36  46
BRANCH  37  48
HETATM   48  N3  UNL     1      10.572   6.885  -8.294  1.00  0.00    -0.297 N 
HETATM   49  C19 UNL     1       9.474   7.134  -9.084  1.00  0.00     0.188 A 
HETATM   50  N4  UNL     1       8.359   6.692  -8.543  1.00  0.00    -0.346 N 
HETATM   51  C20 UNL     1       8.755   6.124  -7.345  1.00  0.00     0.116 A 
HETATM   52  H4  UNL     1       7.415   6.754  -8.922  1.00  0.00     0.167 HD
HETATM   53  C21 UNL     1       8.051   5.448  -6.333  1.00  0.00     0.109 A 
HETATM   54  C23 UNL     1      10.117   6.271  -7.160  1.00  0.00     0.142 A 
HETATM   55  N5  UNL     1       8.736   5.007  -5.249  1.00  0.00    -0.341 N 
HETATM   56  C22 UNL     1      10.062   5.243  -5.193  1.00  0.00     0.183 A 
HETATM   57  H5  UNL     1       8.261   4.509  -4.497  1.00  0.00     0.167 HD
HETATM   58  N6  UNL     1      10.841   5.868  -6.100  1.00  0.00    -0.336 N 
HETATM   59  H6  UNL     1      11.845   6.016  -5.996  1.00  0.00     0.168 HD
BRANCH  53  60
HETATM   60  N7  UNL     1       6.686   5.215  -6.379  1.00  0.00    -0.287 NA
HETATM   61  H33 UNL     1       6.125   6.045  -6.557  1.00  0.00     0.125 HD
HETATM   62  H34 UNL     1       6.366   4.598  -5.644  1.00  0.00     0.125 HD
ENDBRANCH  53  60
ENDBRANCH  37  48
ENDBRANCH  33  34
ENDBRANCH  32  33
ENDBRANCH  28  32
ENDBRANCH  27  28
ENDBRANCH  23  27
ENDBRANCH  22  23
ENDBRANCH  21  22
ENDBRANCH  18  21
ENDBRANCH  17  18
BRANCH  17  63
HETATM   63  O17 UNL     1      17.718  11.003  -9.255  1.00  0.00    -0.385 OA
HETATM   64  H38 UNL     1      17.705  11.157 -10.215  1.00  0.00     0.210 HD
ENDBRANCH  17  63
ENDBRANCH  14  17
ENDBRANCH  12  13
ENDBRANCH  11  12
ENDBRANCH   8  11
ENDBRANCH   6   7
ENDBRANCH   5   6
ENDBRANCH   4   5
ENDBRANCH   2   4
TORSDOF 27
ENDMDL
MODEL 19
REMARK VINA RESULT:      -5.0      3.644      8.023
REMARK  27 active torsions:
REMARK  status: ('A' for Active; 'I' for Inactive)
REMARK    1  A    between atoms: C2_2  and  S1_4 
REMARK    2  A    between atoms: S1_4  and  C3_5 
REMARK    3  A    between atoms: C3_5  and  C4_6 
REMARK    4  A    between atoms: C4_6  and  N1_7 
REMARK       I    between atoms: N1_7  and  C5_8 
REMARK    5  A    between atoms: C5_8  and  C6_10 
REMARK    6  A    between atoms: C6_10  and  C7_11 
REMARK    7  A    between atoms: C7_11  and  N2_12 
REMARK       I    between atoms: N2_12  and  C8_13 
REMARK    8  A    between atoms: C8_13  and  C9_15 
REMARK    9  A    between atoms: C9_15  and  C10_16 
REMARK   10  A    between atoms: C9_15  and  O17_54 
REMARK   11  A    between atoms: C10_16  and  C13_19 
REMARK   12  A    between atoms: C13_19  and  O4_20 
REMARK   13  A    between atoms: O4_20  and  P1_21 
REMARK   14  A    between atoms: P1_21  and  O6_23 
REMARK   15  A    between atoms: P1_21  and  O7_24 
REMARK   16  A    between atoms: O7_24  and  P2_25 
REMARK   17  A    between atoms: P2_25  and  O9_27 
REMARK   18  A    between atoms: P2_25  and  O10_28 
REMARK   19  A    between atoms: O10_28  and  C14_29 
REMARK   20  A    between atoms: C14_29  and  C15_30 
REMARK   21  A    between atoms: C16_31  and  O13_49 
REMARK   22  A    between atoms: C17_32  and  O12_48 
REMARK   23  A    between atoms: C18_33  and  N3_35 
REMARK   24  A    between atoms: C21_40  and  N7_47 
REMARK   25  A    between atoms: O13_49  and  P3_50 
REMARK   26  A    between atoms: P3_50  and  O15_52 
REMARK   27  A    between atoms: P3_50  and  O16_53 
ROOT
HETATM    1  C1  UNL     1      10.374   4.271  -4.068  1.00  0.00     0.104 C 
HETATM    2  C2  UNL     1       9.724   5.004  -5.202  1.00  0.00     0.182 C 
HETATM    3  O1  UNL     1      10.327   5.353  -6.214  1.00  0.00    -0.286 OA
ENDROOT
BRANCH   2   4
HETATM    4  S1  UNL     1       8.021   5.364  -4.951  1.00  0.00    -0.091 SA
BRANCH   4   5
HETATM    5  C3  UNL     1       7.460   5.494  -6.680  1.00  0.00     0.102 C 
BRANCH   5   6
HETATM    6  C4  UNL     1       7.417   6.947  -7.157  1.00  0.00     0.133 C 
BRANCH   6   7
HETATM    7  N1  UNL     1       8.668   7.379  -7.745  1.00  0.00    -0.360 N 
HETATM    8  C5  UNL     1       8.766   8.551  -8.460  1.00  0.00     0.219 C 
HETATM    9  O2  UNL     1       7.794   9.254  -8.710  1.00  0.00    -0.274 OA
HETATM   10  H8  UNL     1       9.490   6.804  -7.617  1.00  0.00     0.162 HD
BRANCH   8  11
HETATM   11  C6  UNL     1      10.171   8.844  -8.940  1.00  0.00     0.122 C 
BRANCH  11  12
HETATM   12  C7  UNL     1      11.169   7.790  -8.464  1.00  0.00     0.132 C 
BRANCH  12  13
HETATM   13  N2  UNL     1      12.548   8.212  -8.595  1.00  0.00    -0.358 N 
HETATM   14  C8  UNL     1      13.226   8.017  -9.784  1.00  0.00     0.247 C 
HETATM   15  O3  UNL     1      12.742   7.386 -10.714  1.00  0.00    -0.271 OA
HETATM   16  H13 UNL     1      12.813   9.019  -8.034  1.00  0.00     0.162 HD
BRANCH  14  17
HETATM   17  C9  UNL     1      14.616   8.669  -9.847  1.00  0.00     0.219 C 
BRANCH  17  18
HETATM   18  C10 UNL     1      14.607  10.161 -10.270  1.00  0.00     0.009 C 
HETATM   19  C11 UNL     1      16.016  10.677 -10.599  1.00  0.00     0.020 C 
HETATM   20  C12 UNL     1      13.715  10.393 -11.506  1.00  0.00     0.020 C 
BRANCH  18  21
HETATM   21  C13 UNL     1      14.035  10.946  -9.055  1.00  0.00     0.192 C 
BRANCH  21  22
HETATM   22  O4  UNL     1      15.050  11.417  -8.192  1.00  0.00    -0.296 OA
BRANCH  22  23
HETATM   23  P1  UNL     1      14.981  11.258  -6.598  1.00  0.00     0.401 P 
HETATM   24  O5  UNL     1      16.310  11.341  -5.916  1.00  0.00    -0.631 OA
BRANCH  23  25
HETATM   25  O6  UNL     1      14.183   9.891  -6.301  1.00  0.00    -0.307 OA
HETATM   26  H23 UNL     1      14.674   9.306  -5.710  1.00  0.00     0.222 HD
ENDBRANCH  23  25
BRANCH  23  27
HETATM   27  O7  UNL     1      13.921  12.344  -6.122  1.00  0.00    -0.195 OA
BRANCH  27  28
HETATM   28  P2  UNL     1      14.295  13.888  -6.237  1.00  0.00     0.401 P 
HETATM   29  O8  UNL     1      14.070  14.732  -5.025  1.00  0.00    -0.631 OA
BRANCH  28  30
HETATM   30  O9  UNL     1      15.811  13.861  -6.739  1.00  0.00    -0.307 OA
HETATM   31  H24 UNL     1      15.962  13.297  -7.537  1.00  0.00     0.222 HD
ENDBRANCH  28  30
BRANCH  28  32
HETATM   32  O10 UNL     1      13.554  14.367  -7.568  1.00  0.00    -0.294 OA
BRANCH  32  33
HETATM   33  C14 UNL     1      12.395  15.155  -7.481  1.00  0.00     0.215 C 
BRANCH  33  34
HETATM   34  C15 UNL     1      11.869  15.298  -8.909  1.00  0.00     0.180 C 
HETATM   35  C16 UNL     1      11.116  14.037  -9.309  1.00  0.00     0.197 C 
HETATM   36  C17 UNL     1      11.899  13.477 -10.482  1.00  0.00     0.199 C 
HETATM   37  C18 UNL     1      12.581  14.728 -11.041  1.00  0.00     0.262 C 
HETATM   38  O11 UNL     1      12.910  15.508  -9.870  1.00  0.00    -0.353 OA
BRANCH  35  39
HETATM   39  O13 UNL     1       9.793  14.411  -9.677  1.00  0.00    -0.286 OA
BRANCH  39  40
HETATM   40  P3  UNL     1       8.621  13.699  -8.855  1.00  0.00     0.391 P 
HETATM   41  O14 UNL     1       7.257  14.222  -9.174  1.00  0.00    -0.632 OA
BRANCH  40  42
HETATM   42  O15 UNL     1       9.153  13.882  -7.357  1.00  0.00    -0.307 OA
HETATM   43  H36 UNL     1       9.425  14.816  -7.195  1.00  0.00     0.222 HD
ENDBRANCH  40  42
BRANCH  40  44
HETATM   44  O16 UNL     1       8.910  12.165  -9.158  1.00  0.00    -0.307 OA
HETATM   45  H37 UNL     1       9.685  12.034  -9.726  1.00  0.00     0.222 HD
ENDBRANCH  40  44
ENDBRANCH  39  40
ENDBRANCH  35  39
BRANCH  36  46
HETATM   46  O12 UNL     1      11.031  12.755 -11.359  1.00  0.00    -0.388 OA
HETATM   47  H35 UNL     1      10.137  12.773 -10.941  1.00  0.00     0.210 HD
ENDBRANCH  36  46
BRANCH  37  48
HETATM   48  N3  UNL     1      13.804  14.423 -11.756  1.00  0.00    -0.297 N 
HETATM   49  C19 UNL     1      13.973  14.344 -13.118  1.00  0.00     0.188 A 
HETATM   50  N4  UNL     1      15.232  14.174 -13.456  1.00  0.00    -0.346 N 
HETATM   51  C20 UNL     1      15.915  14.145 -12.253  1.00  0.00     0.116 A 
HETATM   52  H4  UNL     1      15.620  14.083 -14.395  1.00  0.00     0.167 HD
HETATM   53  C21 UNL     1      17.280  14.034 -11.934  1.00  0.00     0.109 A 
HETATM   54  C23 UNL     1      15.038  14.259 -11.190  1.00  0.00     0.142 A 
HETATM   55  N5  UNL     1      17.643  14.026 -10.628  1.00  0.00    -0.341 N 
HETATM   56  C22 UNL     1      16.673  14.121  -9.696  1.00  0.00     0.183 A 
HETATM   57  H5  UNL     1      18.623  13.950 -10.358  1.00  0.00     0.167 HD
HETATM   58  N6  UNL     1      15.343  14.241  -9.880  1.00  0.00    -0.336 N 
HETATM   59  H6  UNL     1      14.658  14.308  -9.127  1.00  0.00     0.168 HD
BRANCH  53  60
HETATM   60  N7  UNL     1      18.279  13.921 -12.888  1.00  0.00    -0.287 NA
HETATM   61  H33 UNL     1      19.140  14.408 -12.651  1.00  0.00     0.125 HD
HETATM   62  H34 UNL     1      17.936  14.033 -13.833  1.00  0.00     0.125 HD
ENDBRANCH  53  60
ENDBRANCH  37  48
ENDBRANCH  33  34
ENDBRANCH  32  33
ENDBRANCH  28  32
ENDBRANCH  27  28
ENDBRANCH  23  27
ENDBRANCH  22  23
ENDBRANCH  21  22
ENDBRANCH  18  21
ENDBRANCH  17  18
BRANCH  17  63
HETATM   63  O17 UNL     1      15.269   8.560  -8.577  1.00  0.00    -0.385 OA
HETATM   64  H38 UNL     1      15.116   7.663  -8.235  1.00  0.00     0.210 HD
ENDBRANCH  17  63
ENDBRANCH  14  17
ENDBRANCH  12  13
ENDBRANCH  11  12
ENDBRANCH   8  11
ENDBRANCH   6   7
ENDBRANCH   5   6
ENDBRANCH   4   5
ENDBRANCH   2   4
TORSDOF 27
ENDMDL
MODEL 20
REMARK VINA RESULT:      -5.0      5.891      9.884
REMARK  27 active torsions:
REMARK  status: ('A' for Active; 'I' for Inactive)
REMARK    1  A    between atoms: C2_2  and  S1_4 
REMARK    2  A    between atoms: S1_4  and  C3_5 
REMARK    3  A    between atoms: C3_5  and  C4_6 
REMARK    4  A    between atoms: C4_6  and  N1_7 
REMARK       I    between atoms: N1_7  and  C5_8 
REMARK    5  A    between atoms: C5_8  and  C6_10 
REMARK    6  A    between atoms: C6_10  and  C7_11 
REMARK    7  A    between atoms: C7_11  and  N2_12 
REMARK       I    between atoms: N2_12  and  C8_13 
REMARK    8  A    between atoms: C8_13  and  C9_15 
REMARK    9  A    between atoms: C9_15  and  C10_16 
REMARK   10  A    between atoms: C9_15  and  O17_54 
REMARK   11  A    between atoms: C10_16  and  C13_19 
REMARK   12  A    between atoms: C13_19  and  O4_20 
REMARK   13  A    between atoms: O4_20  and  P1_21 
REMARK   14  A    between atoms: P1_21  and  O6_23 
REMARK   15  A    between atoms: P1_21  and  O7_24 
REMARK   16  A    between atoms: O7_24  and  P2_25 
REMARK   17  A    between atoms: P2_25  and  O9_27 
REMARK   18  A    between atoms: P2_25  and  O10_28 
REMARK   19  A    between atoms: O10_28  and  C14_29 
REMARK   20  A    between atoms: C14_29  and  C15_30 
REMARK   21  A    between atoms: C16_31  and  O13_49 
REMARK   22  A    between atoms: C17_32  and  O12_48 
REMARK   23  A    between atoms: C18_33  and  N3_35 
REMARK   24  A    between atoms: C21_40  and  N7_47 
REMARK   25  A    between atoms: O13_49  and  P3_50 
REMARK   26  A    between atoms: P3_50  and  O15_52 
REMARK   27  A    between atoms: P3_50  and  O16_53 
ROOT
HETATM    1  C1  UNL     1      16.156   2.295 -14.522  1.00  0.00     0.104 C 
HETATM    2  C2  UNL     1      17.403   2.086 -15.325  1.00  0.00     0.182 C 
HETATM    3  O1  UNL     1      17.410   1.999 -16.551  1.00  0.00    -0.286 OA
ENDROOT
BRANCH   2   4
HETATM    4  S1  UNL     1      18.867   1.935 -14.364  1.00  0.00    -0.091 SA
BRANCH   4   5
HETATM    5  C3  UNL     1      19.166   3.685 -13.952  1.00  0.00     0.102 C 
BRANCH   5   6
HETATM    6  C4  UNL     1      19.050   4.588 -15.182  1.00  0.00     0.133 C 
BRANCH   6   7
HETATM    7  N1  UNL     1      18.922   5.989 -14.837  1.00  0.00    -0.360 N 
HETATM    8  C5  UNL     1      17.746   6.510 -14.349  1.00  0.00     0.219 C 
HETATM    9  O2  UNL     1      16.720   5.847 -14.252  1.00  0.00    -0.274 OA
HETATM   10  H8  UNL     1      19.724   6.593 -14.954  1.00  0.00     0.162 HD
BRANCH   8  11
HETATM   11  C6  UNL     1      17.842   7.980 -14.000  1.00  0.00     0.122 C 
BRANCH  11  12
HETATM   12  C7  UNL     1      18.358   8.196 -12.578  1.00  0.00     0.132 C 
BRANCH  12  13
HETATM   13  N2  UNL     1      17.424   8.918 -11.739  1.00  0.00    -0.358 N 
HETATM   14  C8  UNL     1      17.811  10.090 -11.115  1.00  0.00     0.247 C 
HETATM   15  O3  UNL     1      18.966  10.495 -11.146  1.00  0.00    -0.271 OA
HETATM   16  H13 UNL     1      16.444   8.831 -11.999  1.00  0.00     0.162 HD
BRANCH  14  17
HETATM   17  C9  UNL     1      16.678  10.845 -10.404  1.00  0.00     0.219 C 
BRANCH  17  18
HETATM   18  C10 UNL     1      16.735  12.387 -10.562  1.00  0.00     0.009 C 
HETATM   19  C11 UNL     1      17.869  13.012  -9.736  1.00  0.00     0.020 C 
HETATM   20  C12 UNL     1      16.939  12.798 -12.035  1.00  0.00     0.020 C 
BRANCH  18  21
HETATM   21  C13 UNL     1      15.364  12.920 -10.054  1.00  0.00     0.192 C 
BRANCH  21  22
HETATM   22  O4  UNL     1      14.364  12.868 -11.050  1.00  0.00    -0.296 OA
BRANCH  22  23
HETATM   23  P1  UNL     1      13.218  13.981 -11.193  1.00  0.00     0.401 P 
HETATM   24  O5  UNL     1      12.627  14.078 -12.564  1.00  0.00    -0.631 OA
BRANCH  23  25
HETATM   25  O6  UNL     1      13.844  15.363 -10.656  1.00  0.00    -0.307 OA
HETATM   26  H23 UNL     1      14.792  15.290 -10.488  1.00  0.00     0.222 HD
ENDBRANCH  23  25
BRANCH  23  27
HETATM   27  O7  UNL     1      12.174  13.646 -10.041  1.00  0.00    -0.195 OA
BRANCH  27  28
HETATM   28  P2  UNL     1      11.201  12.397 -10.222  1.00  0.00     0.401 P 
HETATM   29  O8  UNL     1       9.741  12.688 -10.337  1.00  0.00    -0.631 OA
BRANCH  28  30
HETATM   30  O9  UNL     1      11.815  11.635 -11.484  1.00  0.00    -0.307 OA
HETATM   31  H24 UNL     1      12.715  11.258 -11.330  1.00  0.00     0.222 HD
ENDBRANCH  28  30
BRANCH  28  32
HETATM   32  O10 UNL     1      11.624  11.404  -9.046  1.00  0.00    -0.294 OA
BRANCH  32  33
HETATM   33  C14 UNL     1      11.381  10.027  -9.167  1.00  0.00     0.215 C 
BRANCH  33  34
HETATM   34  C15 UNL     1      12.689   9.328  -8.803  1.00  0.00     0.180 C 
HETATM   35  C16 UNL     1      12.528   8.586  -7.483  1.00  0.00     0.197 C 
HETATM   36  C17 UNL     1      13.522   9.246  -6.546  1.00  0.00     0.199 C 
HETATM   37  C18 UNL     1      14.562   9.804  -7.520  1.00  0.00     0.262 C 
HETATM   38  O11 UNL     1      13.787  10.237  -8.660  1.00  0.00    -0.353 OA
BRANCH  35  39
HETATM   39  O13 UNL     1      12.832   7.214  -7.708  1.00  0.00    -0.286 OA
BRANCH  39  40
HETATM   40  P3  UNL     1      11.721   6.172  -7.223  1.00  0.00     0.391 P 
HETATM   41  O14 UNL     1      11.952   4.776  -7.703  1.00  0.00    -0.632 OA
BRANCH  40  42
HETATM   42  O15 UNL     1      10.387   6.910  -7.707  1.00  0.00    -0.307 OA
HETATM   43  H36 UNL     1      10.419   7.871  -7.483  1.00  0.00     0.222 HD
ENDBRANCH  40  42
BRANCH  40  44
HETATM   44  O16 UNL     1      11.722   6.420  -5.652  1.00  0.00    -0.307 OA
HETATM   45  H37 UNL     1      12.401   7.054  -5.371  1.00  0.00     0.222 HD
ENDBRANCH  40  44
ENDBRANCH  39  40
ENDBRANCH  35  39
BRANCH  36  46
HETATM   46  O12 UNL     1      13.976   8.310  -5.565  1.00  0.00    -0.388 OA
HETATM   47  H35 UNL     1      14.717   7.809  -5.981  1.00  0.00     0.210 HD
ENDBRANCH  36  46
BRANCH  37  48
HETATM   48  N3  UNL     1      15.275  10.944  -6.981  1.00  0.00    -0.297 N 
HETATM   49  C19 UNL     1      16.626  11.043  -6.744  1.00  0.00     0.188 A 
HETATM   50  N4  UNL     1      16.979  12.254  -6.370  1.00  0.00    -0.346 N 
HETATM   51  C20 UNL     1      15.799  12.976  -6.369  1.00  0.00     0.116 A 
HETATM   52  H4  UNL     1      17.914  12.586  -6.134  1.00  0.00     0.167 HD
HETATM   53  C21 UNL     1      15.509  14.326  -6.104  1.00  0.00     0.109 A 
HETATM   54  C23 UNL     1      14.730  12.167  -6.707  1.00  0.00     0.142 A 
HETATM   55  N5  UNL     1      14.220  14.739  -6.177  1.00  0.00    -0.341 N 
HETATM   56  C22 UNL     1      13.276  13.831  -6.496  1.00  0.00     0.183 A 
HETATM   57  H5  UNL     1      13.971  15.711  -5.995  1.00  0.00     0.167 HD
HETATM   58  N6  UNL     1      13.435  12.522  -6.778  1.00  0.00    -0.336 N 
HETATM   59  H6  UNL     1      12.674  11.884  -7.014  1.00  0.00     0.168 HD
BRANCH  53  60
HETATM   60  N7  UNL     1      16.473  15.260  -5.761  1.00  0.00    -0.287 NA
HETATM   61  H33 UNL     1      16.319  16.186  -6.154  1.00  0.00     0.125 HD
HETATM   62  H34 UNL     1      17.414  14.894  -5.814  1.00  0.00     0.125 HD
ENDBRANCH  53  60
ENDBRANCH  37  48
ENDBRANCH  33  34
ENDBRANCH  32  33
ENDBRANCH  28  32
ENDBRANCH  27  28
ENDBRANCH  23  27
ENDBRANCH  22  23
ENDBRANCH  21  22
ENDBRANCH  18  21
ENDBRANCH  17  18
BRANCH  17  63
HETATM   63  O17 UNL     1      15.407  10.387 -10.878  1.00  0.00    -0.385 OA
HETATM   64  H38 UNL     1      14.724  10.994 -10.547  1.00  0.00     0.210 HD
ENDBRANCH  17  63
ENDBRANCH  14  17
ENDBRANCH  12  13
ENDBRANCH  11  12
ENDBRANCH   8  11
ENDBRANCH   6   7
ENDBRANCH   5   6
ENDBRANCH   4   5
ENDBRANCH   2   4
TORSDOF 27
ENDMDL
