MODEL 1
REMARK VINA RESULT:       0.9      0.000      0.000
REMARK  2 active torsions:
REMARK  status: ('A' for Active; 'I' for Inactive)
REMARK    1  A    between atoms: C3_3  and  O1_8 
REMARK    2  A    between atoms: C6_6  and  N1_7 
ROOT
HETATM    1  C1  UNL     1       8.648   0.955  -2.652  1.00  0.00     0.026 A 
HETATM    2  C2  UNL     1       8.264   0.955  -3.995  1.00  0.00     0.038 A 
HETATM    3  C3  UNL     1       6.974   0.577  -4.341  1.00  0.00     0.065 A 
HETATM    4  C4  UNL     1       6.056   0.215  -3.362  1.00  0.00     0.038 A 
HETATM    5  C5  UNL     1       6.448   0.216  -2.020  1.00  0.00     0.026 A 
HETATM    6  C6  UNL     1       7.760   0.537  -1.656  1.00  0.00     0.005 A 
ENDROOT
BRANCH   6   7
HETATM    7  N1  UNL     1       8.109   0.651  -0.306  1.00  0.00    -0.303 NA
HETATM    8  H5  UNL     1       7.726   1.475   0.146  1.00  0.00     0.124 HD
HETATM    9  H6  UNL     1       9.102   0.539  -0.128  1.00  0.00     0.124 HD
ENDBRANCH   6   7
BRANCH   3  10
HETATM   10  O1  UNL     1       6.637   0.593  -5.661  1.00  0.00    -0.361 OA
HETATM   11  H7  UNL     1       6.005   1.315  -5.811  1.00  0.00     0.217 HD
ENDBRANCH   3  10
TORSDOF 2
ENDMDL
MODEL 2
REMARK VINA RESULT:       1.1      0.095      1.706
REMARK  2 active torsions:
REMARK  status: ('A' for Active; 'I' for Inactive)
REMARK    1  A    between atoms: C3_3  and  O1_8 
REMARK    2  A    between atoms: C6_6  and  N1_7 
ROOT
HETATM    1  C1  UNL     1       6.409   0.204  -2.025  1.00  0.00     0.026 A 
HETATM    2  C2  UNL     1       6.069   0.210  -3.379  1.00  0.00     0.038 A 
HETATM    3  C3  UNL     1       7.020   0.561  -4.326  1.00  0.00     0.065 A 
HETATM    4  C4  UNL     1       8.314   0.892  -3.941  1.00  0.00     0.038 A 
HETATM    5  C5  UNL     1       8.648   0.885  -2.583  1.00  0.00     0.026 A 
HETATM    6  C6  UNL     1       7.687   0.591  -1.610  1.00  0.00     0.005 A 
ENDROOT
BRANCH   6   7
HETATM    7  N1  UNL     1       8.060   0.471  -0.266  1.00  0.00    -0.303 NA
HETATM    8  H5  UNL     1       7.851  -0.438   0.135  1.00  0.00     0.124 HD
HETATM    9  H6  UNL     1       7.737   1.234   0.319  1.00  0.00     0.124 HD
ENDBRANCH   6   7
BRANCH   3  10
HETATM   10  O1  UNL     1       6.649   0.552  -5.638  1.00  0.00    -0.361 OA
HETATM   11  H7  UNL     1       6.015  -0.169  -5.775  1.00  0.00     0.217 HD
ENDBRANCH   3  10
TORSDOF 2
ENDMDL
MODEL 3
REMARK VINA RESULT:       1.2      2.778      3.679
REMARK  2 active torsions:
REMARK  status: ('A' for Active; 'I' for Inactive)
REMARK    1  A    between atoms: C3_3  and  O1_8 
REMARK    2  A    between atoms: C6_6  and  N1_7 
ROOT
HETATM    1  C1  UNL     1       6.110   0.209  -3.386  1.00  0.00     0.026 A 
HETATM    2  C2  UNL     1       6.398   0.228  -2.019  1.00  0.00     0.038 A 
HETATM    3  C3  UNL     1       7.666   0.591  -1.589  1.00  0.00     0.065 A 
HETATM    4  C4  UNL     1       8.648   0.953  -2.505  1.00  0.00     0.038 A 
HETATM    5  C5  UNL     1       8.352   0.931  -3.871  1.00  0.00     0.026 A 
HETATM    6  C6  UNL     1       7.098   0.511  -4.327  1.00  0.00     0.005 A 
ENDROOT
BRANCH   6   7
HETATM    7  N1  UNL     1       6.774   0.606  -5.685  1.00  0.00    -0.303 NA
HETATM    8  H5  UNL     1       6.763   1.558  -6.036  1.00  0.00     0.124 HD
HETATM    9  H6  UNL     1       5.940   0.089  -5.945  1.00  0.00     0.124 HD
ENDBRANCH   6   7
BRANCH   3  10
HETATM   10  O1  UNL     1       7.908   0.600  -0.248  1.00  0.00    -0.361 OA
HETATM   11  H7  UNL     1       7.058   0.572   0.220  1.00  0.00     0.217 HD
ENDBRANCH   3  10
TORSDOF 2
ENDMDL
MODEL 4
REMARK VINA RESULT:       1.2      2.779      3.262
REMARK  2 active torsions:
REMARK  status: ('A' for Active; 'I' for Inactive)
REMARK    1  A    between atoms: C3_3  and  O1_8 
REMARK    2  A    between atoms: C6_6  and  N1_7 
ROOT
HETATM    1  C1  UNL     1       8.395   0.978  -3.799  1.00  0.00     0.026 A 
HETATM    2  C2  UNL     1       8.648   0.947  -2.426  1.00  0.00     0.038 A 
HETATM    3  C3  UNL     1       7.638   0.577  -1.548  1.00  0.00     0.065 A 
HETATM    4  C4  UNL     1       6.381   0.222  -2.025  1.00  0.00     0.038 A 
HETATM    5  C5  UNL     1       6.135   0.257  -3.400  1.00  0.00     0.026 A 
HETATM    6  C6  UNL     1       7.121   0.683  -4.295  1.00  0.00     0.005 A 
ENDROOT
BRANCH   6   7
HETATM    7  N1  UNL     1       6.904   0.601  -5.676  1.00  0.00    -0.303 NA
HETATM    8  H5  UNL     1       6.791  -0.350  -6.015  1.00  0.00     0.124 HD
HETATM    9  H6  UNL     1       7.569   1.131  -6.228  1.00  0.00     0.124 HD
ENDBRANCH   6   7
BRANCH   3  10
HETATM   10  O1  UNL     1       7.926   0.557  -0.216  1.00  0.00    -0.361 OA
HETATM   11  H7  UNL     1       8.767   0.090  -0.088  1.00  0.00     0.217 HD
ENDBRANCH   3  10
TORSDOF 2
ENDMDL
MODEL 5
REMARK VINA RESULT:       3.0      3.232      3.722
REMARK  2 active torsions:
REMARK  status: ('A' for Active; 'I' for Inactive)
REMARK    1  A    between atoms: C3_3  and  O1_8 
REMARK    2  A    between atoms: C6_6  and  N1_7 
ROOT
HETATM    1  C1  UNL     1       8.578   1.857  -2.890  1.00  0.00     0.026 A 
HETATM    2  C2  UNL     1       8.599   1.999  -1.501  1.00  0.00     0.038 A 
HETATM    3  C3  UNL     1       8.625   0.870  -0.695  1.00  0.00     0.065 A 
HETATM    4  C4  UNL     1       8.648  -0.401  -1.258  1.00  0.00     0.038 A 
HETATM    5  C5  UNL     1       8.625  -0.535  -2.649  1.00  0.00     0.026 A 
HETATM    6  C6  UNL     1       8.539   0.589  -3.477  1.00  0.00     0.005 A 
ENDROOT
BRANCH   6   7
HETATM    7  N1  UNL     1       8.637   0.451  -4.866  1.00  0.00    -0.303 NA
HETATM    8  H5  UNL     1       9.088   1.237  -5.323  1.00  0.00     0.124 HD
HETATM    9  H6  UNL     1       7.766   0.190  -5.315  1.00  0.00     0.124 HD
ENDBRANCH   6   7
BRANCH   3  10
HETATM   10  O1  UNL     1       8.648   1.050   0.656  1.00  0.00    -0.361 OA
HETATM   11  H7  UNL     1       9.410   1.607   0.881  1.00  0.00     0.217 HD
ENDBRANCH   3  10
TORSDOF 2
ENDMDL
MODEL 6
REMARK VINA RESULT:       3.8      1.918      2.231
REMARK  2 active torsions:
REMARK  status: ('A' for Active; 'I' for Inactive)
REMARK    1  A    between atoms: C3_3  and  O1_8 
REMARK    2  A    between atoms: C6_6  and  N1_7 
ROOT
HETATM    1  C1  UNL     1       8.648   2.055  -1.054  1.00  0.00     0.026 A 
HETATM    2  C2  UNL     1       8.642   1.762  -2.420  1.00  0.00     0.038 A 
HETATM    3  C3  UNL     1       8.576   0.441  -2.840  1.00  0.00     0.065 A 
HETATM    4  C4  UNL     1       8.499  -0.593  -1.913  1.00  0.00     0.038 A 
HETATM    5  C5  UNL     1       8.507  -0.293  -0.548  1.00  0.00     0.026 A 
HETATM    6  C6  UNL     1       8.632   1.028  -0.105  1.00  0.00     0.005 A 
ENDROOT
BRANCH   6   7
HETATM    7  N1  UNL     1       8.519   1.328   1.257  1.00  0.00    -0.303 NA
HETATM    8  H5  UNL     1       8.419   0.508   1.848  1.00  0.00     0.124 HD
HETATM    9  H6  UNL     1       7.827   2.040   1.465  1.00  0.00     0.124 HD
ENDBRANCH   6   7
BRANCH   3  10
HETATM   10  O1  UNL     1       8.569   0.197  -4.180  1.00  0.00    -0.361 OA
HETATM   11  H7  UNL     1       7.772  -0.312  -4.399  1.00  0.00     0.217 HD
ENDBRANCH   3  10
TORSDOF 2
ENDMDL
MODEL 7
REMARK VINA RESULT:       5.2     12.417     12.905
REMARK  2 active torsions:
REMARK  status: ('A' for Active; 'I' for Inactive)
REMARK    1  A    between atoms: C3_3  and  O1_8 
REMARK    2  A    between atoms: C6_6  and  N1_7 
ROOT
HETATM    1  C1  UNL     1       3.144  -3.661   7.723  1.00  0.00     0.026 A 
HETATM    2  C2  UNL     1       2.265  -4.747   7.726  1.00  0.00     0.038 A 
HETATM    3  C3  UNL     1       0.896  -4.523   7.688  1.00  0.00     0.065 A 
HETATM    4  C4  UNL     1       0.391  -3.229   7.631  1.00  0.00     0.038 A 
HETATM    5  C5  UNL     1       1.277  -2.147   7.629  1.00  0.00     0.026 A 
HETATM    6  C6  UNL     1       2.657  -2.350   7.726  1.00  0.00     0.005 A 
ENDROOT
BRANCH   6   7
HETATM    7  N1  UNL     1       3.539  -1.270   7.604  1.00  0.00    -0.303 NA
HETATM    8  H5  UNL     1       3.101  -0.424   7.253  1.00  0.00     0.124 HD
HETATM    9  H6  UNL     1       4.397  -1.495   7.111  1.00  0.00     0.124 HD
ENDBRANCH   6   7
BRANCH   3  10
HETATM   10  O1  UNL     1       0.071  -5.608   7.690  1.00  0.00    -0.361 OA
HETATM   11  H7  UNL     1       0.596  -6.396   7.478  1.00  0.00     0.217 HD
ENDBRANCH   3  10
TORSDOF 2
ENDMDL
MODEL 8
REMARK VINA RESULT:       5.3     12.330     12.815
REMARK  2 active torsions:
REMARK  status: ('A' for Active; 'I' for Inactive)
REMARK    1  A    between atoms: C3_3  and  O1_8 
REMARK    2  A    between atoms: C6_6  and  N1_7 
ROOT
HETATM    1  C1  UNL     1       2.629  -4.554   7.690  1.00  0.00     0.026 A 
HETATM    2  C2  UNL     1       3.462  -3.433   7.708  1.00  0.00     0.038 A 
HETATM    3  C3  UNL     1       2.905  -2.162   7.706  1.00  0.00     0.065 A 
HETATM    4  C4  UNL     1       1.525  -1.994   7.703  1.00  0.00     0.038 A 
HETATM    5  C5  UNL     1       0.697  -3.121   7.683  1.00  0.00     0.026 A 
HETATM    6  C6  UNL     1       1.240  -4.408   7.626  1.00  0.00     0.005 A 
ENDROOT
BRANCH   6   7
HETATM    7  N1  UNL     1       0.408  -5.529   7.727  1.00  0.00    -0.303 NA
HETATM    8  H5  UNL     1      -0.560  -5.301   7.933  1.00  0.00     0.124 HD
HETATM    9  H6  UNL     1       0.771  -6.256   8.333  1.00  0.00     0.124 HD
ENDBRANCH   6   7
BRANCH   3  10
HETATM   10  O1  UNL     1       3.751  -1.094   7.727  1.00  0.00    -0.361 OA
HETATM   11  H7  UNL     1       3.778  -0.703   6.839  1.00  0.00     0.217 HD
ENDBRANCH   3  10
TORSDOF 2
ENDMDL
MODEL 9
REMARK VINA RESULT:       5.7      1.404      2.397
REMARK  2 active torsions:
REMARK  status: ('A' for Active; 'I' for Inactive)
REMARK    1  A    between atoms: C3_3  and  O1_8 
REMARK    2  A    between atoms: C6_6  and  N1_7 
ROOT
HETATM    1  C1  UNL     1       6.632   0.734  -0.213  1.00  0.00     0.026 A 
HETATM    2  C2  UNL     1       5.973   0.308  -1.369  1.00  0.00     0.038 A 
HETATM    3  C3  UNL     1       6.653   0.282  -2.578  1.00  0.00     0.065 A 
HETATM    4  C4  UNL     1       7.989   0.661  -2.647  1.00  0.00     0.038 A 
HETATM    5  C5  UNL     1       8.642   1.087  -1.486  1.00  0.00     0.026 A 
HETATM    6  C6  UNL     1       7.957   1.176  -0.270  1.00  0.00     0.005 A 
ENDROOT
BRANCH   6   7
HETATM    7  N1  UNL     1       8.648   1.488   0.906  1.00  0.00    -0.303 NA
HETATM    8  H5  UNL     1       9.219   2.325   0.834  1.00  0.00     0.124 HD
HETATM    9  H6  UNL     1       9.157   0.706   1.304  1.00  0.00     0.124 HD
ENDBRANCH   6   7
BRANCH   3  10
HETATM   10  O1  UNL     1       5.977  -0.142  -3.682  1.00  0.00    -0.361 OA
HETATM   11  H7  UNL     1       5.901  -1.109  -3.647  1.00  0.00     0.217 HD
ENDBRANCH   3  10
TORSDOF 2
ENDMDL
