MODEL 1
REMARK VINA RESULT:      -5.0      0.000      0.000
REMARK  2 active torsions:
REMARK  status: ('A' for Active; 'I' for Inactive)
REMARK    1  A    between atoms: C3_3  and  O1_8 
REMARK    2  A    between atoms: C6_6  and  N1_7 
ROOT
HETATM    1  C1  UNL     1       1.529   0.049  -1.012  1.00  0.00     0.026 A 
HETATM    2  C2  UNL     1       0.144   0.225  -0.998  1.00  0.00     0.038 A 
HETATM    3  C3  UNL     1      -0.688  -0.881  -0.900  1.00  0.00     0.065 A 
HETATM    4  C4  UNL     1      -0.155  -2.162  -0.800  1.00  0.00     0.038 A 
HETATM    5  C5  UNL     1       1.233  -2.330  -0.817  1.00  0.00     0.026 A 
HETATM    6  C6  UNL     1       2.086  -1.233  -0.974  1.00  0.00     0.005 A 
ENDROOT
BRANCH   6   7
HETATM    7  N1  UNL     1       3.472  -1.397  -0.869  1.00  0.00    -0.303 NA
HETATM    8  H5  UNL     1       3.753  -2.016  -0.115  1.00  0.00     0.124 HD
HETATM    9  H6  UNL     1       3.990  -0.525  -0.868  1.00  0.00     0.124 HD
ENDBRANCH   6   7
BRANCH   3  10
HETATM   10  O1  UNL     1      -2.034  -0.668  -0.886  1.00  0.00    -0.361 OA
HETATM   11  H7  UNL     1      -2.197   0.288  -0.909  1.00  0.00     0.217 HD
ENDBRANCH   3  10
TORSDOF 2
ENDMDL
MODEL 2
REMARK VINA RESULT:      -5.0      0.215      1.716
REMARK  2 active torsions:
REMARK  status: ('A' for Active; 'I' for Inactive)
REMARK    1  A    between atoms: C3_3  and  O1_8 
REMARK    2  A    between atoms: C6_6  and  N1_7 
ROOT
HETATM    1  C1  UNL     1       1.024  -2.287  -0.933  1.00  0.00     0.026 A 
HETATM    2  C2  UNL     1      -0.356  -2.080  -0.884  1.00  0.00     0.038 A 
HETATM    3  C3  UNL     1      -0.858  -0.787  -0.903  1.00  0.00     0.065 A 
HETATM    4  C4  UNL     1      -0.001   0.305  -0.985  1.00  0.00     0.038 A 
HETATM    5  C5  UNL     1       1.380   0.090  -1.033  1.00  0.00     0.026 A 
HETATM    6  C6  UNL     1       1.907  -1.204  -0.956  1.00  0.00     0.005 A 
ENDROOT
BRANCH   6   7
HETATM    7  N1  UNL     1       3.281  -1.416  -1.124  1.00  0.00    -0.303 NA
HETATM    8  H5  UNL     1       3.580  -2.357  -0.888  1.00  0.00     0.124 HD
HETATM    9  H6  UNL     1       3.861  -0.706  -0.690  1.00  0.00     0.124 HD
ENDBRANCH   6   7
BRANCH   3  10
HETATM   10  O1  UNL     1      -2.211  -0.626  -0.856  1.00  0.00    -0.361 OA
HETATM   11  H7  UNL     1      -2.410   0.324  -0.859  1.00  0.00     0.217 HD
ENDBRANCH   3  10
TORSDOF 2
ENDMDL
MODEL 3
REMARK VINA RESULT:      -4.9      2.779      3.264
REMARK  2 active torsions:
REMARK  status: ('A' for Active; 'I' for Inactive)
REMARK    1  A    between atoms: C3_3  and  O1_8 
REMARK    2  A    between atoms: C6_6  and  N1_7 
ROOT
HETATM    1  C1  UNL     1       0.285   0.202  -1.008  1.00  0.00     0.026 A 
HETATM    2  C2  UNL     1       1.664  -0.011  -1.046  1.00  0.00     0.038 A 
HETATM    3  C3  UNL     1       2.164  -1.303  -0.954  1.00  0.00     0.065 A 
HETATM    4  C4  UNL     1       1.302  -2.388  -0.841  1.00  0.00     0.038 A 
HETATM    5  C5  UNL     1      -0.078  -2.167  -0.802  1.00  0.00     0.026 A 
HETATM    6  C6  UNL     1      -0.597  -0.869  -0.834  1.00  0.00     0.005 A 
ENDROOT
BRANCH   6   7
HETATM    7  N1  UNL     1      -1.980  -0.664  -0.915  1.00  0.00    -0.303 NA
HETATM    8  H5  UNL     1      -2.405  -0.402  -0.032  1.00  0.00     0.124 HD
HETATM    9  H6  UNL     1      -2.479  -1.417  -1.377  1.00  0.00     0.124 HD
ENDBRANCH   6   7
BRANCH   3  10
HETATM   10  O1  UNL     1       3.515  -1.469  -0.998  1.00  0.00    -0.361 OA
HETATM   11  H7  UNL     1       3.928  -0.803  -0.425  1.00  0.00     0.217 HD
ENDBRANCH   3  10
TORSDOF 2
ENDMDL
MODEL 4
REMARK VINA RESULT:      -4.9      2.777      3.680
REMARK  2 active torsions:
REMARK  status: ('A' for Active; 'I' for Inactive)
REMARK    1  A    between atoms: C3_3  and  O1_8 
REMARK    2  A    between atoms: C6_6  and  N1_7 
ROOT
HETATM    1  C1  UNL     1      -0.121  -2.141  -0.810  1.00  0.00     0.026 A 
HETATM    2  C2  UNL     1       1.260  -2.344  -0.848  1.00  0.00     0.038 A 
HETATM    3  C3  UNL     1       2.112  -1.256  -0.971  1.00  0.00     0.065 A 
HETATM    4  C4  UNL     1       1.604   0.037  -1.042  1.00  0.00     0.038 A 
HETATM    5  C5  UNL     1       0.220   0.232  -1.005  1.00  0.00     0.026 A 
HETATM    6  C6  UNL     1      -0.657  -0.856  -0.940  1.00  0.00     0.005 A 
ENDROOT
BRANCH   6   7
HETATM    7  N1  UNL     1      -2.031  -0.645  -0.784  1.00  0.00    -0.303 NA
HETATM    8  H5  UNL     1      -2.280   0.327  -0.631  1.00  0.00     0.124 HD
HETATM    9  H6  UNL     1      -2.468  -1.266  -0.111  1.00  0.00     0.124 HD
ENDBRANCH   6   7
BRANCH   3  10
HETATM   10  O1  UNL     1       3.453  -1.495  -1.001  1.00  0.00    -0.361 OA
HETATM   11  H7  UNL     1       3.906  -0.684  -1.284  1.00  0.00     0.217 HD
ENDBRANCH   3  10
TORSDOF 2
ENDMDL
MODEL 5
REMARK VINA RESULT:      -4.8      5.063      5.843
REMARK  2 active torsions:
REMARK  status: ('A' for Active; 'I' for Inactive)
REMARK    1  A    between atoms: C3_3  and  O1_8 
REMARK    2  A    between atoms: C6_6  and  N1_7 
ROOT
HETATM    1  C1  UNL     1       6.971  -0.264   1.266  1.00  0.00     0.026 A 
HETATM    2  C2  UNL     1       6.671   0.116  -0.044  1.00  0.00     0.038 A 
HETATM    3  C3  UNL     1       5.638  -0.515  -0.723  1.00  0.00     0.065 A 
HETATM    4  C4  UNL     1       4.889  -1.511  -0.106  1.00  0.00     0.038 A 
HETATM    5  C5  UNL     1       5.196  -1.887   1.205  1.00  0.00     0.026 A 
HETATM    6  C6  UNL     1       6.270  -1.304   1.885  1.00  0.00     0.005 A 
ENDROOT
BRANCH   6   7
HETATM    7  N1  UNL     1       6.494  -1.600   3.235  1.00  0.00    -0.303 NA
HETATM    8  H5  UNL     1       6.365  -0.805   3.854  1.00  0.00     0.124 HD
HETATM    9  H6  UNL     1       7.367  -2.087   3.408  1.00  0.00     0.124 HD
ENDBRANCH   6   7
BRANCH   3  10
HETATM   10  O1  UNL     1       5.375  -0.115  -1.999  1.00  0.00    -0.361 OA
HETATM   11  H7  UNL     1       4.527  -0.498  -2.275  1.00  0.00     0.217 HD
ENDBRANCH   3  10
TORSDOF 2
ENDMDL
MODEL 6
REMARK VINA RESULT:      -4.7      5.093      6.048
REMARK  2 active torsions:
REMARK  status: ('A' for Active; 'I' for Inactive)
REMARK    1  A    between atoms: C3_3  and  O1_8 
REMARK    2  A    between atoms: C6_6  and  N1_7 
ROOT
HETATM    1  C1  UNL     1       5.188  -1.856   1.147  1.00  0.00     0.026 A 
HETATM    2  C2  UNL     1       4.941  -1.465  -0.171  1.00  0.00     0.038 A 
HETATM    3  C3  UNL     1       5.710  -0.465  -0.748  1.00  0.00     0.065 A 
HETATM    4  C4  UNL     1       6.736   0.141  -0.031  1.00  0.00     0.038 A 
HETATM    5  C5  UNL     1       6.977  -0.254   1.288  1.00  0.00     0.026 A 
HETATM    6  C6  UNL     1       6.174  -1.219   1.906  1.00  0.00     0.005 A 
ENDROOT
BRANCH   6   7
HETATM    7  N1  UNL     1       6.497  -1.692   3.183  1.00  0.00    -0.303 NA
HETATM    8  H5  UNL     1       7.448  -1.480   3.468  1.00  0.00     0.124 HD
HETATM    9  H6  UNL     1       6.257  -2.666   3.332  1.00  0.00     0.124 HD
ENDBRANCH   6   7
BRANCH   3  10
HETATM   10  O1  UNL     1       5.440  -0.114  -2.037  1.00  0.00    -0.361 OA
HETATM   11  H7  UNL     1       6.185  -0.388  -2.595  1.00  0.00     0.217 HD
ENDBRANCH   3  10
TORSDOF 2
ENDMDL
MODEL 7
REMARK VINA RESULT:      -4.7      5.324      6.107
REMARK  2 active torsions:
REMARK  status: ('A' for Active; 'I' for Inactive)
REMARK    1  A    between atoms: C3_3  and  O1_8 
REMARK    2  A    between atoms: C6_6  and  N1_7 
ROOT
HETATM    1  C1  UNL     1       6.709   0.143   0.054  1.00  0.00     0.026 A 
HETATM    2  C2  UNL     1       6.990  -0.235   1.369  1.00  0.00     0.038 A 
HETATM    3  C3  UNL     1       6.259  -1.254   1.963  1.00  0.00     0.065 A 
HETATM    4  C4  UNL     1       5.261  -1.915   1.255  1.00  0.00     0.038 A 
HETATM    5  C5  UNL     1       4.985  -1.531  -0.061  1.00  0.00     0.026 A 
HETATM    6  C6  UNL     1       5.670  -0.467  -0.656  1.00  0.00     0.005 A 
ENDROOT
BRANCH   6   7
HETATM    7  N1  UNL     1       5.470  -0.169  -2.009  1.00  0.00    -0.303 NA
HETATM    8  H5  UNL     1       4.580   0.281  -2.200  1.00  0.00     0.124 HD
HETATM    9  H6  UNL     1       5.651  -0.949  -2.632  1.00  0.00     0.124 HD
ENDBRANCH   6   7
BRANCH   3  10
HETATM   10  O1  UNL     1       6.565  -1.595   3.246  1.00  0.00    -0.361 OA
HETATM   11  H7  UNL     1       6.495  -2.559   3.336  1.00  0.00     0.217 HD
ENDBRANCH   3  10
TORSDOF 2
ENDMDL
MODEL 8
REMARK VINA RESULT:      -4.4      6.548      7.124
REMARK  2 active torsions:
REMARK  status: ('A' for Active; 'I' for Inactive)
REMARK    1  A    between atoms: C3_3  and  O1_8 
REMARK    2  A    between atoms: C6_6  and  N1_7 
ROOT
HETATM    1  C1  UNL     1       6.375  -0.816   2.302  1.00  0.00     0.026 A 
HETATM    2  C2  UNL     1       6.695  -1.906   3.114  1.00  0.00     0.038 A 
HETATM    3  C3  UNL     1       6.931  -3.147   2.540  1.00  0.00     0.065 A 
HETATM    4  C4  UNL     1       6.866  -3.312   1.160  1.00  0.00     0.038 A 
HETATM    5  C5  UNL     1       6.544  -2.217   0.353  1.00  0.00     0.026 A 
HETATM    6  C6  UNL     1       6.246  -0.973   0.918  1.00  0.00     0.005 A 
ENDROOT
BRANCH   6   7
HETATM    7  N1  UNL     1       6.042   0.143   0.098  1.00  0.00    -0.303 NA
HETATM    8  H5  UNL     1       5.183   0.645   0.300  1.00  0.00     0.124 HD
HETATM    9  H6  UNL     1       6.154  -0.049  -0.891  1.00  0.00     0.124 HD
ENDBRANCH   6   7
BRANCH   3  10
HETATM   10  O1  UNL     1       7.243  -4.185   3.366  1.00  0.00    -0.361 OA
HETATM   11  H7  UNL     1       7.074  -5.017   2.896  1.00  0.00     0.217 HD
ENDBRANCH   3  10
TORSDOF 2
ENDMDL
MODEL 9
REMARK VINA RESULT:      -4.3      2.445      2.969
REMARK  2 active torsions:
REMARK  status: ('A' for Active; 'I' for Inactive)
REMARK    1  A    between atoms: C3_3  and  O1_8 
REMARK    2  A    between atoms: C6_6  and  N1_7 
ROOT
HETATM    1  C1  UNL     1       1.052   0.179  -1.103  1.00  0.00     0.026 A 
HETATM    2  C2  UNL     1       1.524  -1.078  -0.719  1.00  0.00     0.038 A 
HETATM    3  C3  UNL     1       0.638  -2.139  -0.602  1.00  0.00     0.065 A 
HETATM    4  C4  UNL     1      -0.714  -1.967  -0.879  1.00  0.00     0.038 A 
HETATM    5  C5  UNL     1      -1.180  -0.705  -1.261  1.00  0.00     0.026 A 
HETATM    6  C6  UNL     1      -0.312   0.390  -1.328  1.00  0.00     0.005 A 
ENDROOT
BRANCH   6   7
HETATM    7  N1  UNL     1      -0.763   1.617  -1.826  1.00  0.00    -0.303 NA
HETATM    8  H5  UNL     1      -1.438   1.529  -2.580  1.00  0.00     0.124 HD
HETATM    9  H6  UNL     1      -0.018   2.269  -2.050  1.00  0.00     0.124 HD
ENDBRANCH   6   7
BRANCH   3  10
HETATM   10  O1  UNL     1       1.138  -3.350  -0.227  1.00  0.00    -0.361 OA
HETATM   11  H7  UNL     1       1.258  -3.351   0.736  1.00  0.00     0.217 HD
ENDBRANCH   3  10
TORSDOF 2
ENDMDL
MODEL 10
REMARK VINA RESULT:      -4.3      6.349      6.940
REMARK  2 active torsions:
REMARK  status: ('A' for Active; 'I' for Inactive)
REMARK    1  A    between atoms: C3_3  and  O1_8 
REMARK    2  A    between atoms: C6_6  and  N1_7 
ROOT
HETATM    1  C1  UNL     1       6.794  -3.190   1.098  1.00  0.00     0.026 A 
HETATM    2  C2  UNL     1       6.493  -2.090   0.293  1.00  0.00     0.038 A 
HETATM    3  C3  UNL     1       6.294  -0.846   0.875  1.00  0.00     0.065 A 
HETATM    4  C4  UNL     1       6.409  -0.681   2.251  1.00  0.00     0.038 A 
HETATM    5  C5  UNL     1       6.710  -1.788   3.050  1.00  0.00     0.026 A 
HETATM    6  C6  UNL     1       6.856  -3.060   2.489  1.00  0.00     0.005 A 
ENDROOT
BRANCH   6   7
HETATM    7  N1  UNL     1       7.274  -4.136   3.280  1.00  0.00    -0.303 NA
HETATM    8  H5  UNL     1       7.429  -4.992   2.756  1.00  0.00     0.124 HD
HETATM    9  H6  UNL     1       6.701  -4.287   4.104  1.00  0.00     0.124 HD
ENDBRANCH   6   7
BRANCH   3  10
HETATM   10  O1  UNL     1       6.004   0.203   0.055  1.00  0.00    -0.361 OA
HETATM   11  H7  UNL     1       5.432   0.823   0.535  1.00  0.00     0.217 HD
ENDBRANCH   3  10
TORSDOF 2
ENDMDL
MODEL 11
REMARK VINA RESULT:      -4.2      3.336      4.057
REMARK  2 active torsions:
REMARK  status: ('A' for Active; 'I' for Inactive)
REMARK    1  A    between atoms: C3_3  and  O1_8 
REMARK    2  A    between atoms: C6_6  and  N1_7 
ROOT
HETATM    1  C1  UNL     1       2.952   0.635  -1.186  1.00  0.00     0.026 A 
HETATM    2  C2  UNL     1       4.233   0.123  -0.975  1.00  0.00     0.038 A 
HETATM    3  C3  UNL     1       4.390  -1.200  -0.586  1.00  0.00     0.065 A 
HETATM    4  C4  UNL     1       3.282  -2.025  -0.421  1.00  0.00     0.038 A 
HETATM    5  C5  UNL     1       2.002  -1.504  -0.633  1.00  0.00     0.026 A 
HETATM    6  C6  UNL     1       1.822  -0.158  -0.968  1.00  0.00     0.005 A 
ENDROOT
BRANCH   6   7
HETATM    7  N1  UNL     1       0.548   0.322  -1.295  1.00  0.00    -0.303 NA
HETATM    8  H5  UNL     1       0.435   0.541  -2.280  1.00  0.00     0.124 HD
HETATM    9  H6  UNL     1       0.226   1.072  -0.693  1.00  0.00     0.124 HD
ENDBRANCH   6   7
BRANCH   3  10
HETATM   10  O1  UNL     1       5.656  -1.663  -0.392  1.00  0.00    -0.361 OA
HETATM   11  H7  UNL     1       6.269  -1.114  -0.907  1.00  0.00     0.217 HD
ENDBRANCH   3  10
TORSDOF 2
ENDMDL
MODEL 12
REMARK VINA RESULT:      -4.1      2.649      3.132
REMARK  2 active torsions:
REMARK  status: ('A' for Active; 'I' for Inactive)
REMARK    1  A    between atoms: C3_3  and  O1_8 
REMARK    2  A    between atoms: C6_6  and  N1_7 
ROOT
HETATM    1  C1  UNL     1      -0.236  -0.333  -1.041  1.00  0.00     0.026 A 
HETATM    2  C2  UNL     1       0.919   0.445  -1.150  1.00  0.00     0.038 A 
HETATM    3  C3  UNL     1       2.158  -0.173  -1.238  1.00  0.00     0.065 A 
HETATM    4  C4  UNL     1       2.260  -1.560  -1.235  1.00  0.00     0.038 A 
HETATM    5  C5  UNL     1       1.099  -2.332  -1.124  1.00  0.00     0.026 A 
HETATM    6  C6  UNL     1      -0.153  -1.727  -0.976  1.00  0.00     0.005 A 
ENDROOT
BRANCH   6   7
HETATM    7  N1  UNL     1      -1.317  -2.504  -0.986  1.00  0.00    -0.303 NA
HETATM    8  H5  UNL     1      -1.463  -3.030  -0.130  1.00  0.00     0.124 HD
HETATM    9  H6  UNL     1      -1.419  -3.080  -1.815  1.00  0.00     0.124 HD
ENDBRANCH   6   7
BRANCH   3  10
HETATM   10  O1  UNL     1       3.261   0.620  -1.345  1.00  0.00    -0.361 OA
HETATM   11  H7  UNL     1       2.976   1.547  -1.354  1.00  0.00     0.217 HD
ENDBRANCH   3  10
TORSDOF 2
ENDMDL
MODEL 13
REMARK VINA RESULT:      -4.0      4.577      5.677
REMARK  2 active torsions:
REMARK  status: ('A' for Active; 'I' for Inactive)
REMARK    1  A    between atoms: C3_3  and  O1_8 
REMARK    2  A    between atoms: C6_6  and  N1_7 
ROOT
HETATM    1  C1  UNL     1       3.870  -1.433  -0.276  1.00  0.00     0.026 A 
HETATM    2  C2  UNL     1       4.677  -2.280   0.488  1.00  0.00     0.038 A 
HETATM    3  C3  UNL     1       6.018  -1.974   0.667  1.00  0.00     0.065 A 
HETATM    4  C4  UNL     1       6.563  -0.824   0.107  1.00  0.00     0.038 A 
HETATM    5  C5  UNL     1       5.750   0.018  -0.657  1.00  0.00     0.026 A 
HETATM    6  C6  UNL     1       4.410  -0.304  -0.897  1.00  0.00     0.005 A 
ENDROOT
BRANCH   6   7
HETATM    7  N1  UNL     1       3.576   0.603  -1.561  1.00  0.00    -0.303 NA
HETATM    8  H5  UNL     1       3.751   0.663  -2.560  1.00  0.00     0.124 HD
HETATM    9  H6  UNL     1       3.530   1.516  -1.122  1.00  0.00     0.124 HD
ENDBRANCH   6   7
BRANCH   3  10
HETATM   10  O1  UNL     1       6.772  -2.824   1.421  1.00  0.00    -0.361 OA
HETATM   11  H7  UNL     1       6.351  -2.923   2.290  1.00  0.00     0.217 HD
ENDBRANCH   3  10
TORSDOF 2
ENDMDL
MODEL 14
REMARK VINA RESULT:      -4.0      1.910      2.937
REMARK  2 active torsions:
REMARK  status: ('A' for Active; 'I' for Inactive)
REMARK    1  A    between atoms: C3_3  and  O1_8 
REMARK    2  A    between atoms: C6_6  and  N1_7 
ROOT
HETATM    1  C1  UNL     1       3.952  -1.567  -0.338  1.00  0.00     0.026 A 
HETATM    2  C2  UNL     1       2.631  -2.004  -0.458  1.00  0.00     0.038 A 
HETATM    3  C3  UNL     1       1.650  -1.118  -0.881  1.00  0.00     0.065 A 
HETATM    4  C4  UNL     1       1.973   0.195  -1.203  1.00  0.00     0.038 A 
HETATM    5  C5  UNL     1       3.297   0.625  -1.079  1.00  0.00     0.026 A 
HETATM    6  C6  UNL     1       4.289  -0.235  -0.598  1.00  0.00     0.005 A 
ENDROOT
BRANCH   6   7
HETATM    7  N1  UNL     1       5.629   0.168  -0.591  1.00  0.00    -0.303 NA
HETATM    8  H5  UNL     1       5.795   1.022  -0.068  1.00  0.00     0.124 HD
HETATM    9  H6  UNL     1       6.056   0.188  -1.511  1.00  0.00     0.124 HD
ENDBRANCH   6   7
BRANCH   3  10
HETATM   10  O1  UNL     1       0.373  -1.583  -0.988  1.00  0.00    -0.361 OA
HETATM   11  H7  UNL     1       0.173  -1.726  -1.927  1.00  0.00     0.217 HD
ENDBRANCH   3  10
TORSDOF 2
ENDMDL
MODEL 15
REMARK VINA RESULT:      -3.7      4.933      5.962
REMARK  2 active torsions:
REMARK  status: ('A' for Active; 'I' for Inactive)
REMARK    1  A    between atoms: C3_3  and  O1_8 
REMARK    2  A    between atoms: C6_6  and  N1_7 
ROOT
HETATM    1  C1  UNL     1       5.101  -1.772   1.057  1.00  0.00     0.026 A 
HETATM    2  C2  UNL     1       6.331  -1.115   1.136  1.00  0.00     0.038 A 
HETATM    3  C3  UNL     1       6.688  -0.203   0.153  1.00  0.00     0.065 A 
HETATM    4  C4  UNL     1       5.825   0.076  -0.901  1.00  0.00     0.038 A 
HETATM    5  C5  UNL     1       4.596  -0.587  -0.974  1.00  0.00     0.026 A 
HETATM    6  C6  UNL     1       4.244  -1.552  -0.026  1.00  0.00     0.005 A 
ENDROOT
BRANCH   6   7
HETATM    7  N1  UNL     1       2.966  -2.121  -0.041  1.00  0.00    -0.303 NA
HETATM    8  H5  UNL     1       2.916  -2.999  -0.547  1.00  0.00     0.124 HD
HETATM    9  H6  UNL     1       2.232  -1.476  -0.313  1.00  0.00     0.124 HD
ENDBRANCH   6   7
BRANCH   3  10
HETATM   10  O1  UNL     1       7.895   0.419   0.267  1.00  0.00    -0.361 OA
HETATM   11  H7  UNL     1       8.562  -0.242   0.513  1.00  0.00     0.217 HD
ENDBRANCH   3  10
TORSDOF 2
ENDMDL
MODEL 16
REMARK VINA RESULT:      -3.7      3.222      3.941
REMARK  2 active torsions:
REMARK  status: ('A' for Active; 'I' for Inactive)
REMARK    1  A    between atoms: C3_3  and  O1_8 
REMARK    2  A    between atoms: C6_6  and  N1_7 
ROOT
HETATM    1  C1  UNL     1       5.645  -0.307  -0.339  1.00  0.00     0.026 A 
HETATM    2  C2  UNL     1       4.550   0.196  -1.044  1.00  0.00     0.038 A 
HETATM    3  C3  UNL     1       3.342  -0.487  -1.018  1.00  0.00     0.065 A 
HETATM    4  C4  UNL     1       3.208  -1.659  -0.283  1.00  0.00     0.038 A 
HETATM    5  C5  UNL     1       4.309  -2.158   0.419  1.00  0.00     0.026 A 
HETATM    6  C6  UNL     1       5.550  -1.515   0.358  1.00  0.00     0.005 A 
ENDROOT
BRANCH   6   7
HETATM    7  N1  UNL     1       6.611  -1.954   1.157  1.00  0.00    -0.303 NA
HETATM    8  H5  UNL     1       6.898  -1.280   1.860  1.00  0.00     0.124 HD
HETATM    9  H6  UNL     1       7.397  -2.322   0.631  1.00  0.00     0.124 HD
ENDBRANCH   6   7
BRANCH   3  10
HETATM   10  O1  UNL     1       2.296   0.038  -1.716  1.00  0.00    -0.361 OA
HETATM   11  H7  UNL     1       1.752  -0.691  -2.054  1.00  0.00     0.217 HD
ENDBRANCH   3  10
TORSDOF 2
ENDMDL
MODEL 17
REMARK VINA RESULT:      -1.8     13.895     14.818
REMARK  2 active torsions:
REMARK  status: ('A' for Active; 'I' for Inactive)
REMARK    1  A    between atoms: C3_3  and  O1_8 
REMARK    2  A    between atoms: C6_6  and  N1_7 
ROOT
HETATM    1  C1  UNL     1      -1.229  12.480  -8.687  1.00  0.00     0.026 A 
HETATM    2  C2  UNL     1       0.160  12.363  -8.598  1.00  0.00     0.038 A 
HETATM    3  C3  UNL     1       0.718  11.442  -7.723  1.00  0.00     0.065 A 
HETATM    4  C4  UNL     1      -0.093  10.623  -6.944  1.00  0.00     0.038 A 
HETATM    5  C5  UNL     1      -1.483  10.747  -7.038  1.00  0.00     0.026 A 
HETATM    6  C6  UNL     1      -2.062  11.710  -7.871  1.00  0.00     0.005 A 
ENDROOT
BRANCH   6   7
HETATM    7  N1  UNL     1      -3.450  11.745  -8.046  1.00  0.00    -0.303 NA
HETATM    8  H5  UNL     1      -3.871  10.828  -8.160  1.00  0.00     0.124 HD
HETATM    9  H6  UNL     1      -3.757  12.402  -8.756  1.00  0.00     0.124 HD
ENDBRANCH   6   7
BRANCH   3  10
HETATM   10  O1  UNL     1       2.077  11.356  -7.667  1.00  0.00    -0.361 OA
HETATM   11  H7  UNL     1       2.344  10.475  -7.975  1.00  0.00     0.217 HD
ENDBRANCH   3  10
TORSDOF 2
ENDMDL
