MODEL 1
REMARK VINA RESULT:      -5.6      0.000      0.000
REMARK  27 active torsions:
REMARK  status: ('A' for Active; 'I' for Inactive)
REMARK    1  A    between atoms: C2_2  and  S1_4 
REMARK    2  A    between atoms: S1_4  and  C3_5 
REMARK    3  A    between atoms: C3_5  and  C4_6 
REMARK    4  A    between atoms: C4_6  and  N1_7 
REMARK       I    between atoms: N1_7  and  C5_8 
REMARK    5  A    between atoms: C5_8  and  C6_10 
REMARK    6  A    between atoms: C6_10  and  C7_11 
REMARK    7  A    between atoms: C7_11  and  N2_12 
REMARK       I    between atoms: N2_12  and  C8_13 
REMARK    8  A    between atoms: C8_13  and  C9_15 
REMARK    9  A    between atoms: C9_15  and  C10_16 
REMARK   10  A    between atoms: C9_15  and  O17_54 
REMARK   11  A    between atoms: C10_16  and  C13_19 
REMARK   12  A    between atoms: C13_19  and  O4_20 
REMARK   13  A    between atoms: O4_20  and  P1_21 
REMARK   14  A    between atoms: P1_21  and  O6_23 
REMARK   15  A    between atoms: P1_21  and  O7_24 
REMARK   16  A    between atoms: O7_24  and  P2_25 
REMARK   17  A    between atoms: P2_25  and  O9_27 
REMARK   18  A    between atoms: P2_25  and  O10_28 
REMARK   19  A    between atoms: O10_28  and  C14_29 
REMARK   20  A    between atoms: C14_29  and  C15_30 
REMARK   21  A    between atoms: C16_31  and  O13_49 
REMARK   22  A    between atoms: C17_32  and  O12_48 
REMARK   23  A    between atoms: C18_33  and  N3_35 
REMARK   24  A    between atoms: C21_40  and  N7_47 
REMARK   25  A    between atoms: O13_49  and  P3_50 
REMARK   26  A    between atoms: P3_50  and  O15_52 
REMARK   27  A    between atoms: P3_50  and  O16_53 
ROOT
HETATM    1  C1  UNL     1       6.501  -5.343   5.645  1.00  0.00     0.104 C 
HETATM    2  C2  UNL     1       6.131  -4.528   6.846  1.00  0.00     0.182 C 
HETATM    3  O1  UNL     1       6.410  -3.337   6.965  1.00  0.00    -0.286 OA
ENDROOT
BRANCH   2   4
HETATM    4  S1  UNL     1       5.292  -5.427   8.103  1.00  0.00    -0.091 SA
BRANCH   4   5
HETATM    5  C3  UNL     1       6.534  -6.709   8.468  1.00  0.00     0.102 C 
BRANCH   5   6
HETATM    6  C4  UNL     1       5.929  -8.114   8.436  1.00  0.00     0.133 C 
BRANCH   6   7
HETATM    7  N1  UNL     1       4.595  -8.162   8.997  1.00  0.00    -0.360 N 
HETATM    8  C5  UNL     1       3.935  -9.352   9.196  1.00  0.00     0.219 C 
HETATM    9  O2  UNL     1       4.397 -10.430   8.839  1.00  0.00    -0.274 OA
HETATM   10  H8  UNL     1       4.144  -7.294   9.255  1.00  0.00     0.162 HD
BRANCH   8  11
HETATM   11  C6  UNL     1       2.577  -9.184   9.843  1.00  0.00     0.122 C 
BRANCH  11  12
HETATM   12  C7  UNL     1       2.103 -10.471  10.516  1.00  0.00     0.132 C 
BRANCH  12  13
HETATM   13  N2  UNL     1       0.864 -10.306  11.247  1.00  0.00    -0.358 N 
HETATM   14  C8  UNL     1       0.763 -10.744  12.555  1.00  0.00     0.247 C 
HETATM   15  O3  UNL     1       1.655 -11.384  13.099  1.00  0.00    -0.271 OA
HETATM   16  H13 UNL     1       0.303  -9.499  10.982  1.00  0.00     0.162 HD
BRANCH  14  17
HETATM   17  C9  UNL     1      -0.539 -10.350  13.268  1.00  0.00     0.219 C 
BRANCH  17  18
HETATM   18  C10 UNL     1      -0.380  -9.217  14.316  1.00  0.00     0.009 C 
HETATM   19  C11 UNL     1      -0.091  -9.767  15.721  1.00  0.00     0.020 C 
HETATM   20  C12 UNL     1       0.764  -8.254  13.939  1.00  0.00     0.020 C 
BRANCH  18  21
HETATM   21  C13 UNL     1      -1.732  -8.449  14.324  1.00  0.00     0.192 C 
BRANCH  21  22
HETATM   22  O4  UNL     1      -2.773  -9.197  14.920  1.00  0.00    -0.296 OA
BRANCH  22  23
HETATM   23  P1  UNL     1      -4.253  -9.272  14.308  1.00  0.00     0.401 P 
HETATM   24  O5  UNL     1      -5.342  -9.049  15.309  1.00  0.00    -0.631 OA
BRANCH  23  25
HETATM   25  O6  UNL     1      -4.363 -10.676  13.529  1.00  0.00    -0.307 OA
HETATM   26  H23 UNL     1      -5.237 -11.075  13.626  1.00  0.00     0.222 HD
ENDBRANCH  23  25
BRANCH  23  27
HETATM   27  O7  UNL     1      -4.247  -8.244  13.093  1.00  0.00    -0.195 OA
BRANCH  27  28
HETATM   28  P2  UNL     1      -5.587  -8.033  12.257  1.00  0.00     0.401 P 
HETATM   29  O8  UNL     1      -6.119  -9.218  11.521  1.00  0.00    -0.631 OA
BRANCH  28  30
HETATM   30  O9  UNL     1      -6.598  -7.426  13.334  1.00  0.00    -0.307 OA
HETATM   31  H24 UNL     1      -6.327  -6.545  13.690  1.00  0.00     0.222 HD
ENDBRANCH  28  30
BRANCH  28  32
HETATM   32  O10 UNL     1      -5.289  -6.737  11.372  1.00  0.00    -0.294 OA
BRANCH  32  33
HETATM   33  C14 UNL     1      -5.239  -6.839   9.973  1.00  0.00     0.215 C 
BRANCH  33  34
HETATM   34  C15 UNL     1      -3.821  -6.445   9.566  1.00  0.00     0.180 C 
HETATM   35  C16 UNL     1      -2.861  -7.588   9.869  1.00  0.00     0.197 C 
HETATM   36  C17 UNL     1      -1.894  -7.018  10.890  1.00  0.00     0.199 C 
HETATM   37  C18 UNL     1      -1.961  -5.517  10.595  1.00  0.00     0.262 C 
HETATM   38  O11 UNL     1      -3.345  -5.282  10.254  1.00  0.00    -0.353 OA
BRANCH  35  39
HETATM   39  O13 UNL     1      -2.209  -7.950   8.656  1.00  0.00    -0.286 OA
BRANCH  39  40
HETATM   40  P3  UNL     1      -2.276  -9.501   8.275  1.00  0.00     0.391 P 
HETATM   41  O14 UNL     1      -2.280  -9.760   6.803  1.00  0.00    -0.632 OA
BRANCH  40  42
HETATM   42  O15 UNL     1      -3.560  -9.960   9.112  1.00  0.00    -0.307 OA
HETATM   43  H36 UNL     1      -3.904  -9.215   9.659  1.00  0.00     0.222 HD
ENDBRANCH  40  42
BRANCH  40  44
HETATM   44  O16 UNL     1      -1.064 -10.086   9.121  1.00  0.00    -0.307 OA
HETATM   45  H37 UNL     1      -0.464  -9.397   9.447  1.00  0.00     0.222 HD
ENDBRANCH  40  44
ENDBRANCH  39  40
ENDBRANCH  35  39
BRANCH  36  46
HETATM   46  O12 UNL     1      -0.619  -7.654  10.775  1.00  0.00    -0.388 OA
HETATM   47  H35 UNL     1      -0.796  -8.623  10.719  1.00  0.00     0.210 HD
ENDBRANCH  36  46
BRANCH  37  48
HETATM   48  N3  UNL     1      -1.621  -4.708  11.747  1.00  0.00    -0.297 N 
HETATM   49  C19 UNL     1      -0.587  -3.807  11.855  1.00  0.00     0.188 A 
HETATM   50  N4  UNL     1      -0.623  -3.139  12.987  1.00  0.00    -0.346 N 
HETATM   51  C20 UNL     1      -1.738  -3.627  13.645  1.00  0.00     0.116 A 
HETATM   52  H4  UNL     1       0.026  -2.421  13.309  1.00  0.00     0.167 HD
HETATM   53  C21 UNL     1      -2.342  -3.298  14.870  1.00  0.00     0.109 A 
HETATM   54  C23 UNL     1      -2.343  -4.627  12.905  1.00  0.00     0.142 A 
HETATM   55  N5  UNL     1      -3.448  -3.981  15.254  1.00  0.00    -0.341 N 
HETATM   56  C22 UNL     1      -3.914  -4.949  14.440  1.00  0.00     0.183 A 
HETATM   57  H5  UNL     1      -3.916  -3.767  16.135  1.00  0.00     0.167 HD
HETATM   58  N6  UNL     1      -3.428  -5.345  13.246  1.00  0.00    -0.336 N 
HETATM   59  H6  UNL     1      -3.830  -6.090  12.676  1.00  0.00     0.168 HD
BRANCH  53  60
HETATM   60  N7  UNL     1      -1.858  -2.313  15.718  1.00  0.00    -0.287 NA
HETATM   61  H33 UNL     1      -2.523  -1.569  15.917  1.00  0.00     0.125 HD
HETATM   62  H34 UNL     1      -0.912  -2.032  15.497  1.00  0.00     0.125 HD
ENDBRANCH  53  60
ENDBRANCH  37  48
ENDBRANCH  33  34
ENDBRANCH  32  33
ENDBRANCH  28  32
ENDBRANCH  27  28
ENDBRANCH  23  27
ENDBRANCH  22  23
ENDBRANCH  21  22
ENDBRANCH  18  21
ENDBRANCH  17  18
BRANCH  17  63
HETATM   63  O17 UNL     1      -1.523  -9.946  12.309  1.00  0.00    -0.385 OA
HETATM   64  H38 UNL     1      -2.051 -10.727  12.073  1.00  0.00     0.210 HD
ENDBRANCH  17  63
ENDBRANCH  14  17
ENDBRANCH  12  13
ENDBRANCH  11  12
ENDBRANCH   8  11
ENDBRANCH   6   7
ENDBRANCH   5   6
ENDBRANCH   4   5
ENDBRANCH   2   4
TORSDOF 27
ENDMDL
MODEL 2
REMARK VINA RESULT:      -5.3      3.451      6.150
REMARK  27 active torsions:
REMARK  status: ('A' for Active; 'I' for Inactive)
REMARK    1  A    between atoms: C2_2  and  S1_4 
REMARK    2  A    between atoms: S1_4  and  C3_5 
REMARK    3  A    between atoms: C3_5  and  C4_6 
REMARK    4  A    between atoms: C4_6  and  N1_7 
REMARK       I    between atoms: N1_7  and  C5_8 
REMARK    5  A    between atoms: C5_8  and  C6_10 
REMARK    6  A    between atoms: C6_10  and  C7_11 
REMARK    7  A    between atoms: C7_11  and  N2_12 
REMARK       I    between atoms: N2_12  and  C8_13 
REMARK    8  A    between atoms: C8_13  and  C9_15 
REMARK    9  A    between atoms: C9_15  and  C10_16 
REMARK   10  A    between atoms: C9_15  and  O17_54 
REMARK   11  A    between atoms: C10_16  and  C13_19 
REMARK   12  A    between atoms: C13_19  and  O4_20 
REMARK   13  A    between atoms: O4_20  and  P1_21 
REMARK   14  A    between atoms: P1_21  and  O6_23 
REMARK   15  A    between atoms: P1_21  and  O7_24 
REMARK   16  A    between atoms: O7_24  and  P2_25 
REMARK   17  A    between atoms: P2_25  and  O9_27 
REMARK   18  A    between atoms: P2_25  and  O10_28 
REMARK   19  A    between atoms: O10_28  and  C14_29 
REMARK   20  A    between atoms: C14_29  and  C15_30 
REMARK   21  A    between atoms: C16_31  and  O13_49 
REMARK   22  A    between atoms: C17_32  and  O12_48 
REMARK   23  A    between atoms: C18_33  and  N3_35 
REMARK   24  A    between atoms: C21_40  and  N7_47 
REMARK   25  A    between atoms: O13_49  and  P3_50 
REMARK   26  A    between atoms: P3_50  and  O15_52 
REMARK   27  A    between atoms: P3_50  and  O16_53 
ROOT
HETATM    1  C1  UNL     1       6.601  -2.896   0.857  1.00  0.00     0.104 C 
HETATM    2  C2  UNL     1       6.548  -2.193   2.180  1.00  0.00     0.182 C 
HETATM    3  O1  UNL     1       6.385  -0.981   2.293  1.00  0.00    -0.286 OA
ENDROOT
BRANCH   2   4
HETATM    4  S1  UNL     1       6.781  -3.245   3.570  1.00  0.00    -0.091 SA
BRANCH   4   5
HETATM    5  C3  UNL     1       6.587  -2.040   4.923  1.00  0.00     0.102 C 
BRANCH   5   6
HETATM    6  C4  UNL     1       6.046  -2.695   6.195  1.00  0.00     0.133 C 
BRANCH   6   7
HETATM    7  N1  UNL     1       6.378  -4.102   6.285  1.00  0.00    -0.360 N 
HETATM    8  C5  UNL     1       6.054  -4.853   7.391  1.00  0.00     0.219 C 
HETATM    9  O2  UNL     1       5.542  -4.366   8.393  1.00  0.00    -0.274 OA
HETATM   10  H8  UNL     1       6.854  -4.540   5.509  1.00  0.00     0.162 HD
BRANCH   8  11
HETATM   11  C6  UNL     1       6.440  -6.310   7.260  1.00  0.00     0.122 C 
BRANCH  11  12
HETATM   12  C7  UNL     1       6.345  -7.048   8.595  1.00  0.00     0.132 C 
BRANCH  12  13
HETATM   13  N2  UNL     1       4.994  -7.450   8.927  1.00  0.00    -0.358 N 
HETATM   14  C8  UNL     1       4.652  -8.790   8.948  1.00  0.00     0.247 C 
HETATM   15  O3  UNL     1       5.423  -9.666   8.580  1.00  0.00    -0.271 OA
HETATM   16  H13 UNL     1       4.498  -6.832   9.565  1.00  0.00     0.162 HD
BRANCH  14  17
HETATM   17  C9  UNL     1       3.243  -9.086   9.486  1.00  0.00     0.219 C 
BRANCH  17  18
HETATM   18  C10 UNL     1       3.218  -9.833  10.845  1.00  0.00     0.009 C 
HETATM   19  C11 UNL     1       3.026 -11.346  10.669  1.00  0.00     0.020 C 
HETATM   20  C12 UNL     1       4.522  -9.608  11.638  1.00  0.00     0.020 C 
BRANCH  18  21
HETATM   21  C13 UNL     1       2.015  -9.242  11.635  1.00  0.00     0.192 C 
BRANCH  21  22
HETATM   22  O4  UNL     1       0.799  -9.892  11.328  1.00  0.00    -0.296 OA
BRANCH  22  23
HETATM   23  P1  UNL     1      -0.471  -9.123  10.723  1.00  0.00     0.401 P 
HETATM   24  O5  UNL     1      -1.789  -9.712  11.119  1.00  0.00    -0.631 OA
BRANCH  23  25
HETATM   25  O6  UNL     1      -0.249  -9.040   9.131  1.00  0.00    -0.307 OA
HETATM   26  H23 UNL     1      -0.616  -8.228   8.757  1.00  0.00     0.222 HD
ENDBRANCH  23  25
BRANCH  23  27
HETATM   27  O7  UNL     1      -0.270  -7.602  11.143  1.00  0.00    -0.195 OA
BRANCH  27  28
HETATM   28  P2  UNL     1      -0.821  -6.458  10.182  1.00  0.00     0.401 P 
HETATM   29  O8  UNL     1       0.106  -5.962   9.120  1.00  0.00    -0.631 OA
BRANCH  28  30
HETATM   30  O9  UNL     1      -2.182  -7.075   9.621  1.00  0.00    -0.307 OA
HETATM   31  H24 UNL     1      -2.654  -6.493   8.976  1.00  0.00     0.222 HD
ENDBRANCH  28  30
BRANCH  28  32
HETATM   32  O10 UNL     1      -1.390  -5.352  11.184  1.00  0.00    -0.294 OA
BRANCH  32  33
HETATM   33  C14 UNL     1      -2.659  -4.793  10.965  1.00  0.00     0.215 C 
BRANCH  33  34
HETATM   34  C15 UNL     1      -3.375  -4.821  12.314  1.00  0.00     0.180 C 
HETATM   35  C16 UNL     1      -2.381  -5.157  13.419  1.00  0.00     0.197 C 
HETATM   36  C17 UNL     1      -2.882  -6.464  14.002  1.00  0.00     0.199 C 
HETATM   37  C18 UNL     1      -4.375  -6.416  13.668  1.00  0.00     0.262 C 
HETATM   38  O11 UNL     1      -4.430  -5.788  12.368  1.00  0.00    -0.353 OA
BRANCH  35  39
HETATM   39  O13 UNL     1      -2.407  -4.099  14.372  1.00  0.00    -0.286 OA
BRANCH  39  40
HETATM   40  P3  UNL     1      -1.053  -3.261  14.508  1.00  0.00     0.391 P 
HETATM   41  O14 UNL     1      -0.677  -2.517  13.268  1.00  0.00    -0.632 OA
BRANCH  40  42
HETATM   42  O15 UNL     1      -0.049  -4.395  15.024  1.00  0.00    -0.307 OA
HETATM   43  H36 UNL     1       0.853  -4.023  15.170  1.00  0.00     0.222 HD
ENDBRANCH  40  42
BRANCH  40  44
HETATM   44  O16 UNL     1      -1.340  -2.409  15.820  1.00  0.00    -0.307 OA
HETATM   45  H37 UNL     1      -0.543  -1.985  16.175  1.00  0.00     0.222 HD
ENDBRANCH  40  44
ENDBRANCH  39  40
ENDBRANCH  35  39
BRANCH  36  46
HETATM   46  O12 UNL     1      -2.521  -6.563  15.382  1.00  0.00    -0.388 OA
HETATM   47  H35 UNL     1      -1.706  -7.119  15.417  1.00  0.00     0.210 HD
ENDBRANCH  36  46
BRANCH  37  48
HETATM   48  N3  UNL     1      -4.967  -7.735  13.574  1.00  0.00    -0.297 N 
HETATM   49  C19 UNL     1      -5.606  -8.433  14.572  1.00  0.00     0.188 A 
HETATM   50  N4  UNL     1      -6.145  -9.550  14.134  1.00  0.00    -0.346 N 
HETATM   51  C20 UNL     1      -5.844  -9.576  12.784  1.00  0.00     0.116 A 
HETATM   52  H4  UNL     1      -6.667 -10.243  14.670  1.00  0.00     0.167 HD
HETATM   53  C21 UNL     1      -6.168 -10.474  11.752  1.00  0.00     0.109 A 
HETATM   54  C23 UNL     1      -5.082  -8.477  12.431  1.00  0.00     0.142 A 
HETATM   55  N5  UNL     1      -5.705 -10.223  10.503  1.00  0.00    -0.341 N 
HETATM   56  C22 UNL     1      -4.951  -9.123  10.312  1.00  0.00     0.183 A 
HETATM   57  H5  UNL     1      -5.922 -10.851   9.729  1.00  0.00     0.167 HD
HETATM   58  N6  UNL     1      -4.585  -8.190  11.215  1.00  0.00    -0.336 N 
HETATM   59  H6  UNL     1      -4.009  -7.375  11.004  1.00  0.00     0.168 HD
BRANCH  53  60
HETATM   60  N7  UNL     1      -6.931 -11.615  11.947  1.00  0.00    -0.287 NA
HETATM   61  H33 UNL     1      -6.418 -12.486  11.832  1.00  0.00     0.125 HD
HETATM   62  H34 UNL     1      -7.841 -11.561  11.510  1.00  0.00     0.125 HD
ENDBRANCH  53  60
ENDBRANCH  37  48
ENDBRANCH  33  34
ENDBRANCH  32  33
ENDBRANCH  28  32
ENDBRANCH  27  28
ENDBRANCH  23  27
ENDBRANCH  22  23
ENDBRANCH  21  22
ENDBRANCH  18  21
ENDBRANCH  17  18
BRANCH  17  63
HETATM   63  O17 UNL     1       2.502  -7.868   9.622  1.00  0.00    -0.385 OA
HETATM   64  H38 UNL     1       2.864  -7.222   8.993  1.00  0.00     0.210 HD
ENDBRANCH  17  63
ENDBRANCH  14  17
ENDBRANCH  12  13
ENDBRANCH  11  12
ENDBRANCH   8  11
ENDBRANCH   6   7
ENDBRANCH   5   6
ENDBRANCH   4   5
ENDBRANCH   2   4
TORSDOF 27
ENDMDL
MODEL 3
REMARK VINA RESULT:      -5.1      3.627      6.601
REMARK  27 active torsions:
REMARK  status: ('A' for Active; 'I' for Inactive)
REMARK    1  A    between atoms: C2_2  and  S1_4 
REMARK    2  A    between atoms: S1_4  and  C3_5 
REMARK    3  A    between atoms: C3_5  and  C4_6 
REMARK    4  A    between atoms: C4_6  and  N1_7 
REMARK       I    between atoms: N1_7  and  C5_8 
REMARK    5  A    between atoms: C5_8  and  C6_10 
REMARK    6  A    between atoms: C6_10  and  C7_11 
REMARK    7  A    between atoms: C7_11  and  N2_12 
REMARK       I    between atoms: N2_12  and  C8_13 
REMARK    8  A    between atoms: C8_13  and  C9_15 
REMARK    9  A    between atoms: C9_15  and  C10_16 
REMARK   10  A    between atoms: C9_15  and  O17_54 
REMARK   11  A    between atoms: C10_16  and  C13_19 
REMARK   12  A    between atoms: C13_19  and  O4_20 
REMARK   13  A    between atoms: O4_20  and  P1_21 
REMARK   14  A    between atoms: P1_21  and  O6_23 
REMARK   15  A    between atoms: P1_21  and  O7_24 
REMARK   16  A    between atoms: O7_24  and  P2_25 
REMARK   17  A    between atoms: P2_25  and  O9_27 
REMARK   18  A    between atoms: P2_25  and  O10_28 
REMARK   19  A    between atoms: O10_28  and  C14_29 
REMARK   20  A    between atoms: C14_29  and  C15_30 
REMARK   21  A    between atoms: C16_31  and  O13_49 
REMARK   22  A    between atoms: C17_32  and  O12_48 
REMARK   23  A    between atoms: C18_33  and  N3_35 
REMARK   24  A    between atoms: C21_40  and  N7_47 
REMARK   25  A    between atoms: O13_49  and  P3_50 
REMARK   26  A    between atoms: P3_50  and  O15_52 
REMARK   27  A    between atoms: P3_50  and  O16_53 
ROOT
HETATM    1  C1  UNL     1       6.006  -1.518  -0.032  1.00  0.00     0.104 C 
HETATM    2  C2  UNL     1       6.389  -1.179   1.376  1.00  0.00     0.182 C 
HETATM    3  O1  UNL     1       6.739  -0.054   1.727  1.00  0.00    -0.286 OA
ENDROOT
BRANCH   2   4
HETATM    4  S1  UNL     1       6.337  -2.538   2.490  1.00  0.00    -0.091 SA
BRANCH   4   5
HETATM    5  C3  UNL     1       6.984  -1.746   3.998  1.00  0.00     0.102 C 
BRANCH   5   6
HETATM    6  C4  UNL     1       6.351  -2.328   5.263  1.00  0.00     0.133 C 
BRANCH   6   7
HETATM    7  N1  UNL     1       6.737  -3.704   5.500  1.00  0.00    -0.360 N 
HETATM    8  C5  UNL     1       6.257  -4.415   6.575  1.00  0.00     0.219 C 
HETATM    9  O2  UNL     1       5.545  -3.911   7.436  1.00  0.00    -0.274 OA
HETATM   10  H8  UNL     1       7.370  -4.150   4.850  1.00  0.00     0.162 HD
BRANCH   8  11
HETATM   11  C6  UNL     1       6.738  -5.850   6.607  1.00  0.00     0.122 C 
BRANCH  11  12
HETATM   12  C7  UNL     1       6.931  -6.356   8.036  1.00  0.00     0.132 C 
BRANCH  12  13
HETATM   13  N2  UNL     1       5.803  -7.121   8.524  1.00  0.00    -0.358 N 
HETATM   14  C8  UNL     1       5.937  -8.473   8.780  1.00  0.00     0.247 C 
HETATM   15  O3  UNL     1       6.956  -9.092   8.499  1.00  0.00    -0.271 OA
HETATM   16  H13 UNL     1       5.135  -6.604   9.092  1.00  0.00     0.162 HD
BRANCH  14  17
HETATM   17  C9  UNL     1       4.722  -9.124   9.459  1.00  0.00     0.219 C 
BRANCH  17  18
HETATM   18  C10 UNL     1       5.019  -9.746  10.849  1.00  0.00     0.009 C 
HETATM   19  C11 UNL     1       5.406 -11.229  10.748  1.00  0.00     0.020 C 
HETATM   20  C12 UNL     1       6.164  -9.004  11.567  1.00  0.00     0.020 C 
BRANCH  18  21
HETATM   21  C13 UNL     1       3.705  -9.604  11.669  1.00  0.00     0.192 C 
BRANCH  21  22
HETATM   22  O4  UNL     1       2.681 -10.456  11.197  1.00  0.00    -0.296 OA
BRANCH  22  23
HETATM   23  P1  UNL     1       1.123 -10.104  11.335  1.00  0.00     0.401 P 
HETATM   24  O5  UNL     1       0.578 -10.270  12.719  1.00  0.00    -0.631 OA
BRANCH  23  25
HETATM   25  O6  UNL     1       0.349 -10.974  10.224  1.00  0.00    -0.307 OA
HETATM   26  H23 UNL     1       0.950 -11.547   9.730  1.00  0.00     0.222 HD
ENDBRANCH  23  25
BRANCH  23  27
HETATM   27  O7  UNL     1       0.978  -8.638  10.735  1.00  0.00    -0.195 OA
BRANCH  27  28
HETATM   28  P2  UNL     1      -0.432  -8.179  10.153  1.00  0.00     0.401 P 
HETATM   29  O8  UNL     1      -0.745  -8.577   8.747  1.00  0.00    -0.631 OA
BRANCH  28  30
HETATM   30  O9  UNL     1      -1.471  -8.730  11.233  1.00  0.00    -0.307 OA
HETATM   31  H24 UNL     1      -2.339  -9.011  10.851  1.00  0.00     0.222 HD
ENDBRANCH  28  30
BRANCH  28  32
HETATM   32  O10 UNL     1      -0.488  -6.614  10.463  1.00  0.00    -0.294 OA
BRANCH  32  33
HETATM   33  C14 UNL     1      -0.752  -6.166  11.767  1.00  0.00     0.215 C 
BRANCH  33  34
HETATM   34  C15 UNL     1      -2.149  -5.549  11.731  1.00  0.00     0.180 C 
HETATM   35  C16 UNL     1      -2.752  -5.557  13.130  1.00  0.00     0.197 C 
HETATM   36  C17 UNL     1      -3.982  -6.437  13.013  1.00  0.00     0.199 C 
HETATM   37  C18 UNL     1      -4.330  -6.310  11.528  1.00  0.00     0.262 C 
HETATM   38  O11 UNL     1      -3.048  -6.251  10.865  1.00  0.00    -0.353 OA
BRANCH  35  39
HETATM   39  O13 UNL     1      -3.082  -4.216  13.476  1.00  0.00    -0.286 OA
BRANCH  39  40
HETATM   40  P3  UNL     1      -2.803  -3.808  14.997  1.00  0.00     0.391 P 
HETATM   41  O14 UNL     1      -1.866  -2.654  15.149  1.00  0.00    -0.632 OA
BRANCH  40  42
HETATM   42  O15 UNL     1      -2.348  -5.216  15.606  1.00  0.00    -0.307 OA
HETATM   43  H36 UNL     1      -2.526  -5.250  16.576  1.00  0.00     0.222 HD
ENDBRANCH  40  42
BRANCH  40  44
HETATM   44  O16 UNL     1      -4.283  -3.635  15.553  1.00  0.00    -0.307 OA
HETATM   45  H37 UNL     1      -4.371  -3.908  16.480  1.00  0.00     0.222 HD
ENDBRANCH  40  44
ENDBRANCH  39  40
ENDBRANCH  35  39
BRANCH  36  46
HETATM   46  O12 UNL     1      -4.975  -6.029  13.958  1.00  0.00    -0.388 OA
HETATM   47  H35 UNL     1      -4.795  -6.535  14.786  1.00  0.00     0.210 HD
ENDBRANCH  36  46
BRANCH  37  48
HETATM   48  N3  UNL     1      -5.062  -7.456  11.028  1.00  0.00    -0.297 N 
HETATM   49  C19 UNL     1      -4.622  -8.392  10.121  1.00  0.00     0.188 A 
HETATM   50  N4  UNL     1      -5.476  -9.380   9.970  1.00  0.00    -0.346 N 
HETATM   51  C20 UNL     1      -6.520  -9.073  10.825  1.00  0.00     0.116 A 
HETATM   52  H4  UNL     1      -5.389 -10.193   9.359  1.00  0.00     0.167 HD
HETATM   53  C21 UNL     1      -7.710  -9.744  11.155  1.00  0.00     0.109 A 
HETATM   54  C23 UNL     1      -6.294  -7.864  11.457  1.00  0.00     0.142 A 
HETATM   55  N5  UNL     1      -8.556  -9.166  12.043  1.00  0.00    -0.341 N 
HETATM   56  C22 UNL     1      -8.216  -7.970  12.563  1.00  0.00     0.183 A 
HETATM   57  H5  UNL     1      -9.427  -9.624  12.309  1.00  0.00     0.167 HD
HETATM   58  N6  UNL     1      -7.105  -7.241  12.330  1.00  0.00    -0.336 N 
HETATM   59  H6  UNL     1      -6.907  -6.336  12.759  1.00  0.00     0.168 HD
BRANCH  53  60
HETATM   60  N7  UNL     1      -8.072 -10.967  10.612  1.00  0.00    -0.287 NA
HETATM   61  H33 UNL     1      -7.994 -11.014   9.599  1.00  0.00     0.125 HD
HETATM   62  H34 UNL     1      -8.913 -11.347  11.023  1.00  0.00     0.125 HD
ENDBRANCH  53  60
ENDBRANCH  37  48
ENDBRANCH  33  34
ENDBRANCH  32  33
ENDBRANCH  28  32
ENDBRANCH  27  28
ENDBRANCH  23  27
ENDBRANCH  22  23
ENDBRANCH  21  22
ENDBRANCH  18  21
ENDBRANCH  17  18
BRANCH  17  63
HETATM   63  O17 UNL     1       3.668  -8.167   9.605  1.00  0.00    -0.385 OA
HETATM   64  H38 UNL     1       2.899  -8.486   9.105  1.00  0.00     0.210 HD
ENDBRANCH  17  63
ENDBRANCH  14  17
ENDBRANCH  12  13
ENDBRANCH  11  12
ENDBRANCH   8  11
ENDBRANCH   6   7
ENDBRANCH   5   6
ENDBRANCH   4   5
ENDBRANCH   2   4
TORSDOF 27
ENDMDL
MODEL 4
REMARK VINA RESULT:      -5.0      9.858     14.855
REMARK  27 active torsions:
REMARK  status: ('A' for Active; 'I' for Inactive)
REMARK    1  A    between atoms: C2_2  and  S1_4 
REMARK    2  A    between atoms: S1_4  and  C3_5 
REMARK    3  A    between atoms: C3_5  and  C4_6 
REMARK    4  A    between atoms: C4_6  and  N1_7 
REMARK       I    between atoms: N1_7  and  C5_8 
REMARK    5  A    between atoms: C5_8  and  C6_10 
REMARK    6  A    between atoms: C6_10  and  C7_11 
REMARK    7  A    between atoms: C7_11  and  N2_12 
REMARK       I    between atoms: N2_12  and  C8_13 
REMARK    8  A    between atoms: C8_13  and  C9_15 
REMARK    9  A    between atoms: C9_15  and  C10_16 
REMARK   10  A    between atoms: C9_15  and  O17_54 
REMARK   11  A    between atoms: C10_16  and  C13_19 
REMARK   12  A    between atoms: C13_19  and  O4_20 
REMARK   13  A    between atoms: O4_20  and  P1_21 
REMARK   14  A    between atoms: P1_21  and  O6_23 
REMARK   15  A    between atoms: P1_21  and  O7_24 
REMARK   16  A    between atoms: O7_24  and  P2_25 
REMARK   17  A    between atoms: P2_25  and  O9_27 
REMARK   18  A    between atoms: P2_25  and  O10_28 
REMARK   19  A    between atoms: O10_28  and  C14_29 
REMARK   20  A    between atoms: C14_29  and  C15_30 
REMARK   21  A    between atoms: C16_31  and  O13_49 
REMARK   22  A    between atoms: C17_32  and  O12_48 
REMARK   23  A    between atoms: C18_33  and  N3_35 
REMARK   24  A    between atoms: C21_40  and  N7_47 
REMARK   25  A    between atoms: O13_49  and  P3_50 
REMARK   26  A    between atoms: P3_50  and  O15_52 
REMARK   27  A    between atoms: P3_50  and  O16_53 
ROOT
HETATM    1  C1  UNL     1      11.742  -4.392  -0.169  1.00  0.00     0.104 C 
HETATM    2  C2  UNL     1      12.742  -3.340  -0.542  1.00  0.00     0.182 C 
HETATM    3  O1  UNL     1      13.954  -3.539  -0.561  1.00  0.00    -0.286 OA
ENDROOT
BRANCH   2   4
HETATM    4  S1  UNL     1      12.039  -1.773  -0.915  1.00  0.00    -0.091 SA
BRANCH   4   5
HETATM    5  C3  UNL     1      10.441  -2.294  -1.619  1.00  0.00     0.102 C 
BRANCH   5   6
HETATM    6  C4  UNL     1       9.324  -1.300  -1.294  1.00  0.00     0.133 C 
BRANCH   6   7
HETATM    7  N1  UNL     1       8.260  -1.891  -0.508  1.00  0.00    -0.360 N 
HETATM    8  C5  UNL     1       7.301  -1.121   0.107  1.00  0.00     0.219 C 
HETATM    9  O2  UNL     1       7.331   0.104   0.097  1.00  0.00    -0.274 OA
HETATM   10  H8  UNL     1       8.223  -2.898  -0.419  1.00  0.00     0.162 HD
BRANCH   8  11
HETATM   11  C6  UNL     1       6.250  -1.937   0.830  1.00  0.00     0.122 C 
BRANCH  11  12
HETATM   12  C7  UNL     1       6.866  -2.848   1.891  1.00  0.00     0.132 C 
BRANCH  12  13
HETATM   13  N2  UNL     1       6.186  -2.773   3.167  1.00  0.00    -0.358 N 
HETATM   14  C8  UNL     1       6.747  -3.352   4.290  1.00  0.00     0.247 C 
HETATM   15  O3  UNL     1       7.759  -4.040   4.233  1.00  0.00    -0.271 OA
HETATM   16  H13 UNL     1       5.610  -1.946   3.308  1.00  0.00     0.162 HD
BRANCH  14  17
HETATM   17  C9  UNL     1       6.016  -3.048   5.606  1.00  0.00     0.219 C 
BRANCH  17  18
HETATM   18  C10 UNL     1       5.760  -4.288   6.502  1.00  0.00     0.009 C 
HETATM   19  C11 UNL     1       4.485  -4.140   7.344  1.00  0.00     0.020 C 
HETATM   20  C12 UNL     1       5.628  -5.574   5.662  1.00  0.00     0.020 C 
BRANCH  18  21
HETATM   21  C13 UNL     1       6.996  -4.399   7.440  1.00  0.00     0.192 C 
BRANCH  21  22
HETATM   22  O4  UNL     1       6.633  -4.670   8.779  1.00  0.00    -0.296 OA
BRANCH  22  23
HETATM   23  P1  UNL     1       7.115  -5.983   9.562  1.00  0.00     0.401 P 
HETATM   24  O5  UNL     1       6.946  -7.253   8.789  1.00  0.00    -0.631 OA
BRANCH  23  25
HETATM   25  O6  UNL     1       6.356  -5.982  10.982  1.00  0.00    -0.307 OA
HETATM   26  H23 UNL     1       5.925  -6.827  11.163  1.00  0.00     0.222 HD
ENDBRANCH  23  25
BRANCH  23  27
HETATM   27  O7  UNL     1       8.609  -5.670  10.009  1.00  0.00    -0.195 OA
BRANCH  27  28
HETATM   28  P2  UNL     1       9.381  -6.732  10.912  1.00  0.00     0.401 P 
HETATM   29  O8  UNL     1       9.852  -6.267  12.251  1.00  0.00    -0.631 OA
BRANCH  28  30
HETATM   30  O9  UNL     1       8.370  -7.967  10.971  1.00  0.00    -0.307 OA
HETATM   31  H24 UNL     1       8.299  -8.388  11.862  1.00  0.00     0.222 HD
ENDBRANCH  28  30
BRANCH  28  32
HETATM   32  O10 UNL     1      10.505  -7.319   9.942  1.00  0.00    -0.294 OA
BRANCH  32  33
HETATM   33  C14 UNL     1      10.352  -8.597   9.382  1.00  0.00     0.215 C 
BRANCH  33  34
HETATM   34  C15 UNL     1      11.741  -9.025   8.909  1.00  0.00     0.180 C 
HETATM   35  C16 UNL     1      12.751  -7.928   9.218  1.00  0.00     0.197 C 
HETATM   36  C17 UNL     1      13.274  -7.494   7.861  1.00  0.00     0.199 C 
HETATM   37  C18 UNL     1      13.044  -8.746   7.011  1.00  0.00     0.262 C 
HETATM   38  O11 UNL     1      11.797  -9.286   7.502  1.00  0.00    -0.353 OA
BRANCH  35  39
HETATM   39  O13 UNL     1      13.775  -8.487  10.034  1.00  0.00    -0.286 OA
BRANCH  39  40
HETATM   40  P3  UNL     1      14.060  -7.718  11.406  1.00  0.00     0.391 P 
HETATM   41  O14 UNL     1      14.593  -8.597  12.490  1.00  0.00    -0.632 OA
BRANCH  40  42
HETATM   42  O15 UNL     1      12.646  -7.011  11.652  1.00  0.00    -0.307 OA
HETATM   43  H36 UNL     1      11.907  -7.613  11.398  1.00  0.00     0.222 HD
ENDBRANCH  40  42
BRANCH  40  44
HETATM   44  O16 UNL     1      14.981  -6.520  10.910  1.00  0.00    -0.307 OA
HETATM   45  H37 UNL     1      14.496  -5.865  10.383  1.00  0.00     0.222 HD
ENDBRANCH  40  44
ENDBRANCH  39  40
ENDBRANCH  35  39
BRANCH  36  46
HETATM   46  O12 UNL     1      14.617  -7.017   7.977  1.00  0.00    -0.388 OA
HETATM   47  H35 UNL     1      15.108  -7.377   7.201  1.00  0.00     0.210 HD
ENDBRANCH  36  46
BRANCH  37  48
HETATM   48  N3  UNL     1      12.898  -8.443   5.602  1.00  0.00    -0.297 N 
HETATM   49  C19 UNL     1      13.206  -7.260   4.970  1.00  0.00     0.188 A 
HETATM   50  N4  UNL     1      13.079  -7.346   3.664  1.00  0.00    -0.346 N 
HETATM   51  C20 UNL     1      12.673  -8.649   3.437  1.00  0.00     0.116 A 
HETATM   52  H4  UNL     1      13.243  -6.615   2.972  1.00  0.00     0.167 HD
HETATM   53  C21 UNL     1      12.409  -9.374   2.262  1.00  0.00     0.109 A 
HETATM   54  C23 UNL     1      12.519  -9.328   4.632  1.00  0.00     0.142 A 
HETATM   55  N5  UNL     1      12.009 -10.665   2.372  1.00  0.00    -0.341 N 
HETATM   56  C22 UNL     1      11.879 -11.189   3.606  1.00  0.00     0.183 A 
HETATM   57  H5  UNL     1      11.812 -11.223   1.541  1.00  0.00     0.167 HD
HETATM   58  N6  UNL     1      12.111 -10.599   4.796  1.00  0.00    -0.336 N 
HETATM   59  H6  UNL     1      11.992 -11.055   5.701  1.00  0.00     0.168 HD
BRANCH  53  60
HETATM   60  N7  UNL     1      12.527  -8.835   0.991  1.00  0.00    -0.287 NA
HETATM   61  H33 UNL     1      13.483  -8.620   0.714  1.00  0.00     0.125 HD
HETATM   62  H34 UNL     1      11.827  -8.133   0.794  1.00  0.00     0.125 HD
ENDBRANCH  53  60
ENDBRANCH  37  48
ENDBRANCH  33  34
ENDBRANCH  32  33
ENDBRANCH  28  32
ENDBRANCH  27  28
ENDBRANCH  23  27
ENDBRANCH  22  23
ENDBRANCH  21  22
ENDBRANCH  18  21
ENDBRANCH  17  18
BRANCH  17  63
HETATM   63  O17 UNL     1       6.750  -2.081   6.366  1.00  0.00    -0.385 OA
HETATM   64  H38 UNL     1       7.403  -2.556   6.907  1.00  0.00     0.210 HD
ENDBRANCH  17  63
ENDBRANCH  14  17
ENDBRANCH  12  13
ENDBRANCH  11  12
ENDBRANCH   8  11
ENDBRANCH   6   7
ENDBRANCH   5   6
ENDBRANCH   4   5
ENDBRANCH   2   4
TORSDOF 27
ENDMDL
MODEL 5
REMARK VINA RESULT:      -4.9      4.138      7.651
REMARK  27 active torsions:
REMARK  status: ('A' for Active; 'I' for Inactive)
REMARK    1  A    between atoms: C2_2  and  S1_4 
REMARK    2  A    between atoms: S1_4  and  C3_5 
REMARK    3  A    between atoms: C3_5  and  C4_6 
REMARK    4  A    between atoms: C4_6  and  N1_7 
REMARK       I    between atoms: N1_7  and  C5_8 
REMARK    5  A    between atoms: C5_8  and  C6_10 
REMARK    6  A    between atoms: C6_10  and  C7_11 
REMARK    7  A    between atoms: C7_11  and  N2_12 
REMARK       I    between atoms: N2_12  and  C8_13 
REMARK    8  A    between atoms: C8_13  and  C9_15 
REMARK    9  A    between atoms: C9_15  and  C10_16 
REMARK   10  A    between atoms: C9_15  and  O17_54 
REMARK   11  A    between atoms: C10_16  and  C13_19 
REMARK   12  A    between atoms: C13_19  and  O4_20 
REMARK   13  A    between atoms: O4_20  and  P1_21 
REMARK   14  A    between atoms: P1_21  and  O6_23 
REMARK   15  A    between atoms: P1_21  and  O7_24 
REMARK   16  A    between atoms: O7_24  and  P2_25 
REMARK   17  A    between atoms: P2_25  and  O9_27 
REMARK   18  A    between atoms: P2_25  and  O10_28 
REMARK   19  A    between atoms: O10_28  and  C14_29 
REMARK   20  A    between atoms: C14_29  and  C15_30 
REMARK   21  A    between atoms: C16_31  and  O13_49 
REMARK   22  A    between atoms: C17_32  and  O12_48 
REMARK   23  A    between atoms: C18_33  and  N3_35 
REMARK   24  A    between atoms: C21_40  and  N7_47 
REMARK   25  A    between atoms: O13_49  and  P3_50 
REMARK   26  A    between atoms: P3_50  and  O15_52 
REMARK   27  A    between atoms: P3_50  and  O16_53 
ROOT
HETATM    1  C1  UNL     1       3.235  -0.958  -0.918  1.00  0.00     0.104 C 
HETATM    2  C2  UNL     1       4.633  -0.700  -0.443  1.00  0.00     0.182 C 
HETATM    3  O1  UNL     1       5.183   0.395  -0.530  1.00  0.00    -0.286 OA
ENDROOT
BRANCH   2   4
HETATM    4  S1  UNL     1       5.446  -2.112   0.218  1.00  0.00    -0.091 SA
BRANCH   4   5
HETATM    5  C3  UNL     1       6.744  -1.303   1.209  1.00  0.00     0.102 C 
BRANCH   5   6
HETATM    6  C4  UNL     1       6.416  -1.321   2.703  1.00  0.00     0.133 C 
BRANCH   6   7
HETATM    7  N1  UNL     1       6.641  -2.617   3.309  1.00  0.00    -0.360 N 
HETATM    8  C5  UNL     1       6.526  -2.812   4.666  1.00  0.00     0.219 C 
HETATM    9  O2  UNL     1       6.308  -1.894   5.448  1.00  0.00    -0.274 OA
HETATM   10  H8  UNL     1       6.882  -3.398   2.713  1.00  0.00     0.162 HD
BRANCH   8  11
HETATM   11  C6  UNL     1       6.747  -4.249   5.086  1.00  0.00     0.122 C 
BRANCH  11  12
HETATM   12  C7  UNL     1       6.767  -4.403   6.607  1.00  0.00     0.132 C 
BRANCH  12  13
HETATM   13  N2  UNL     1       5.915  -5.474   7.080  1.00  0.00    -0.358 N 
HETATM   14  C8  UNL     1       6.469  -6.594   7.673  1.00  0.00     0.247 C 
HETATM   15  O3  UNL     1       7.679  -6.779   7.713  1.00  0.00    -0.271 OA
HETATM   16  H13 UNL     1       4.989  -5.191   7.393  1.00  0.00     0.162 HD
BRANCH  14  17
HETATM   17  C9  UNL     1       5.452  -7.567   8.287  1.00  0.00     0.219 C 
BRANCH  17  18
HETATM   18  C10 UNL     1       6.031  -8.489   9.392  1.00  0.00     0.009 C 
HETATM   19  C11 UNL     1       6.718  -9.732   8.807  1.00  0.00     0.020 C 
HETATM   20  C12 UNL     1       7.060  -7.745  10.267  1.00  0.00     0.020 C 
BRANCH  18  21
HETATM   21  C13 UNL     1       4.818  -8.925  10.263  1.00  0.00     0.192 C 
BRANCH  21  22
HETATM   22  O4  UNL     1       3.723  -9.358   9.483  1.00  0.00    -0.296 OA
BRANCH  22  23
HETATM   23  P1  UNL     1       2.231  -9.470  10.062  1.00  0.00     0.401 P 
HETATM   24  O5  UNL     1       2.144 -10.124  11.404  1.00  0.00    -0.631 OA
BRANCH  23  25
HETATM   25  O6  UNL     1       1.345 -10.192   8.928  1.00  0.00    -0.307 OA
HETATM   26  H23 UNL     1       0.416  -9.932   8.975  1.00  0.00     0.222 HD
ENDBRANCH  23  25
BRANCH  23  27
HETATM   27  O7  UNL     1       1.656  -7.988  10.006  1.00  0.00    -0.195 OA
BRANCH  27  28
HETATM   28  P2  UNL     1       0.086  -7.765  10.156  1.00  0.00     0.401 P 
HETATM   29  O8  UNL     1      -0.734  -7.865   8.911  1.00  0.00    -0.631 OA
BRANCH  28  30
HETATM   30  O9  UNL     1      -0.325  -8.808  11.292  1.00  0.00    -0.307 OA
HETATM   31  H24 UNL     1      -0.435  -9.735  10.968  1.00  0.00     0.222 HD
ENDBRANCH  28  30
BRANCH  28  32
HETATM   32  O10 UNL     1      -0.034  -6.391  10.961  1.00  0.00    -0.294 OA
BRANCH  32  33
HETATM   33  C14 UNL     1      -0.556  -6.383  12.263  1.00  0.00     0.215 C 
BRANCH  33  34
HETATM   34  C15 UNL     1      -1.857  -5.584  12.197  1.00  0.00     0.180 C 
HETATM   35  C16 UNL     1      -2.439  -5.429  13.596  1.00  0.00     0.197 C 
HETATM   36  C17 UNL     1      -3.779  -6.137  13.535  1.00  0.00     0.199 C 
HETATM   37  C18 UNL     1      -4.123  -6.049  12.046  1.00  0.00     0.262 C 
HETATM   38  O11 UNL     1      -2.853  -6.205  11.376  1.00  0.00    -0.353 OA
BRANCH  35  39
HETATM   39  O13 UNL     1      -2.578  -4.038  13.864  1.00  0.00    -0.286 OA
BRANCH  39  40
HETATM   40  P3  UNL     1      -1.974  -3.541  15.259  1.00  0.00     0.391 P 
HETATM   41  O14 UNL     1      -2.652  -2.330  15.812  1.00  0.00    -0.632 OA
BRANCH  40  42
HETATM   42  O15 UNL     1      -0.423  -3.417  14.885  1.00  0.00    -0.307 OA
HETATM   43  H36 UNL     1      -0.073  -4.279  14.557  1.00  0.00     0.222 HD
ENDBRANCH  40  42
BRANCH  40  44
HETATM   44  O16 UNL     1      -2.032  -4.876  16.121  1.00  0.00    -0.307 OA
HETATM   45  H37 UNL     1      -2.192  -5.666  15.581  1.00  0.00     0.222 HD
ENDBRANCH  40  44
ENDBRANCH  39  40
ENDBRANCH  35  39
BRANCH  36  46
HETATM   46  O12 UNL     1      -4.696  -5.543  14.458  1.00  0.00    -0.388 OA
HETATM   47  H35 UNL     1      -4.874  -4.631  14.124  1.00  0.00     0.210 HD
ENDBRANCH  36  46
BRANCH  37  48
HETATM   48  N3  UNL     1      -5.011  -7.111  11.616  1.00  0.00    -0.297 N 
HETATM   49  C19 UNL     1      -6.386  -7.102  11.632  1.00  0.00     0.188 A 
HETATM   50  N4  UNL     1      -6.898  -8.169  11.057  1.00  0.00    -0.346 N 
HETATM   51  C20 UNL     1      -5.800  -8.903  10.644  1.00  0.00     0.116 A 
HETATM   52  H4  UNL     1      -7.883  -8.403  10.941  1.00  0.00     0.167 HD
HETATM   53  C21 UNL     1      -5.673 -10.111   9.937  1.00  0.00     0.109 A 
HETATM   54  C23 UNL     1      -4.624  -8.278  11.019  1.00  0.00     0.142 A 
HETATM   55  N5  UNL     1      -4.429 -10.590   9.688  1.00  0.00    -0.341 N 
HETATM   56  C22 UNL     1      -3.372  -9.884  10.136  1.00  0.00     0.183 A 
HETATM   57  H5  UNL     1      -4.298 -11.462   9.175  1.00  0.00     0.167 HD
HETATM   58  N6  UNL     1      -3.370  -8.717  10.812  1.00  0.00    -0.336 N 
HETATM   59  H6  UNL     1      -2.529  -8.231  11.124  1.00  0.00     0.168 HD
BRANCH  53  60
HETATM   60  N7  UNL     1      -6.757 -10.849   9.487  1.00  0.00    -0.287 NA
HETATM   61  H33 UNL     1      -7.027 -11.613  10.102  1.00  0.00     0.125 HD
HETATM   62  H34 UNL     1      -6.711 -11.054   8.498  1.00  0.00     0.125 HD
ENDBRANCH  53  60
ENDBRANCH  37  48
ENDBRANCH  33  34
ENDBRANCH  32  33
ENDBRANCH  28  32
ENDBRANCH  27  28
ENDBRANCH  23  27
ENDBRANCH  22  23
ENDBRANCH  21  22
ENDBRANCH  18  21
ENDBRANCH  17  18
BRANCH  17  63
HETATM   63  O17 UNL     1       4.345  -6.842   8.834  1.00  0.00    -0.385 OA
HETATM   64  H38 UNL     1       4.697  -6.137   9.402  1.00  0.00     0.210 HD
ENDBRANCH  17  63
ENDBRANCH  14  17
ENDBRANCH  12  13
ENDBRANCH  11  12
ENDBRANCH   8  11
ENDBRANCH   6   7
ENDBRANCH   5   6
ENDBRANCH   4   5
ENDBRANCH   2   4
TORSDOF 27
ENDMDL
MODEL 6
REMARK VINA RESULT:      -4.8      4.152      7.659
REMARK  27 active torsions:
REMARK  status: ('A' for Active; 'I' for Inactive)
REMARK    1  A    between atoms: C2_2  and  S1_4 
REMARK    2  A    between atoms: S1_4  and  C3_5 
REMARK    3  A    between atoms: C3_5  and  C4_6 
REMARK    4  A    between atoms: C4_6  and  N1_7 
REMARK       I    between atoms: N1_7  and  C5_8 
REMARK    5  A    between atoms: C5_8  and  C6_10 
REMARK    6  A    between atoms: C6_10  and  C7_11 
REMARK    7  A    between atoms: C7_11  and  N2_12 
REMARK       I    between atoms: N2_12  and  C8_13 
REMARK    8  A    between atoms: C8_13  and  C9_15 
REMARK    9  A    between atoms: C9_15  and  C10_16 
REMARK   10  A    between atoms: C9_15  and  O17_54 
REMARK   11  A    between atoms: C10_16  and  C13_19 
REMARK   12  A    between atoms: C13_19  and  O4_20 
REMARK   13  A    between atoms: O4_20  and  P1_21 
REMARK   14  A    between atoms: P1_21  and  O6_23 
REMARK   15  A    between atoms: P1_21  and  O7_24 
REMARK   16  A    between atoms: O7_24  and  P2_25 
REMARK   17  A    between atoms: P2_25  and  O9_27 
REMARK   18  A    between atoms: P2_25  and  O10_28 
REMARK   19  A    between atoms: O10_28  and  C14_29 
REMARK   20  A    between atoms: C14_29  and  C15_30 
REMARK   21  A    between atoms: C16_31  and  O13_49 
REMARK   22  A    between atoms: C17_32  and  O12_48 
REMARK   23  A    between atoms: C18_33  and  N3_35 
REMARK   24  A    between atoms: C21_40  and  N7_47 
REMARK   25  A    between atoms: O13_49  and  P3_50 
REMARK   26  A    between atoms: P3_50  and  O15_52 
REMARK   27  A    between atoms: P3_50  and  O16_53 
ROOT
HETATM    1  C1  UNL     1       0.418  -0.721  -1.285  1.00  0.00     0.104 C 
HETATM    2  C2  UNL     1       1.624  -1.408  -0.719  1.00  0.00     0.182 C 
HETATM    3  O1  UNL     1       1.576  -2.498  -0.154  1.00  0.00    -0.286 OA
ENDROOT
BRANCH   2   4
HETATM    4  S1  UNL     1       3.122  -0.504  -0.893  1.00  0.00    -0.091 SA
BRANCH   4   5
HETATM    5  C3  UNL     1       4.293  -1.668  -0.123  1.00  0.00     0.102 C 
BRANCH   5   6
HETATM    6  C4  UNL     1       5.499  -0.946   0.483  1.00  0.00     0.133 C 
BRANCH   6   7
HETATM    7  N1  UNL     1       5.760  -1.343   1.851  1.00  0.00    -0.360 N 
HETATM    8  C5  UNL     1       6.541  -2.435   2.151  1.00  0.00     0.219 C 
HETATM    9  O2  UNL     1       6.995  -3.179   1.289  1.00  0.00    -0.274 OA
HETATM   10  H8  UNL     1       5.360  -0.796   2.601  1.00  0.00     0.162 HD
BRANCH   8  11
HETATM   11  C6  UNL     1       6.734  -2.644   3.637  1.00  0.00     0.122 C 
BRANCH  11  12
HETATM   12  C7  UNL     1       6.935  -4.118   3.985  1.00  0.00     0.132 C 
BRANCH  12  13
HETATM   13  N2  UNL     1       7.150  -4.343   5.399  1.00  0.00    -0.358 N 
HETATM   14  C8  UNL     1       6.512  -5.387   6.044  1.00  0.00     0.247 C 
HETATM   15  O3  UNL     1       5.664  -6.075   5.488  1.00  0.00    -0.271 OA
HETATM   16  H13 UNL     1       8.064  -4.068   5.752  1.00  0.00     0.162 HD
BRANCH  14  17
HETATM   17  C9  UNL     1       6.963  -5.621   7.493  1.00  0.00     0.219 C 
BRANCH  17  18
HETATM   18  C10 UNL     1       5.819  -5.565   8.539  1.00  0.00     0.009 C 
HETATM   19  C11 UNL     1       6.346  -5.319   9.961  1.00  0.00     0.020 C 
HETATM   20  C12 UNL     1       4.805  -4.451   8.209  1.00  0.00     0.020 C 
BRANCH  18  21
HETATM   21  C13 UNL     1       5.115  -6.951   8.476  1.00  0.00     0.192 C 
BRANCH  21  22
HETATM   22  O4  UNL     1       5.315  -7.711   9.651  1.00  0.00    -0.296 OA
BRANCH  22  23
HETATM   23  P1  UNL     1       4.959  -9.271   9.751  1.00  0.00     0.401 P 
HETATM   24  O5  UNL     1       6.142 -10.154   9.992  1.00  0.00    -0.631 OA
BRANCH  23  25
HETATM   25  O6  UNL     1       4.130  -9.644   8.422  1.00  0.00    -0.307 OA
HETATM   26  H23 UNL     1       4.650 -10.179   7.809  1.00  0.00     0.222 HD
ENDBRANCH  23  25
BRANCH  23  27
HETATM   27  O7  UNL     1       3.823  -9.363  10.860  1.00  0.00    -0.195 OA
BRANCH  27  28
HETATM   28  P2  UNL     1       2.299  -9.216  10.417  1.00  0.00     0.401 P 
HETATM   29  O8  UNL     1       1.951  -8.033   9.574  1.00  0.00    -0.631 OA
BRANCH  28  30
HETATM   30  O9  UNL     1       1.981 -10.621   9.729  1.00  0.00    -0.307 OA
HETATM   31  H24 UNL     1       1.106 -10.657   9.270  1.00  0.00     0.222 HD
ENDBRANCH  28  30
BRANCH  28  32
HETATM   32  O10 UNL     1       1.484  -9.366  11.782  1.00  0.00    -0.294 OA
BRANCH  32  33
HETATM   33  C14 UNL     1       0.601 -10.442  11.958  1.00  0.00     0.215 C 
BRANCH  33  34
HETATM   34  C15 UNL     1      -0.787  -9.830  12.145  1.00  0.00     0.180 C 
HETATM   35  C16 UNL     1      -1.214  -9.122  10.866  1.00  0.00     0.197 C 
HETATM   36  C17 UNL     1      -1.369  -7.667  11.266  1.00  0.00     0.199 C 
HETATM   37  C18 UNL     1      -1.660  -7.774  12.765  1.00  0.00     0.262 C 
HETATM   38  O11 UNL     1      -0.837  -8.875  13.210  1.00  0.00    -0.353 OA
BRANCH  35  39
HETATM   39  O13 UNL     1      -2.444  -9.694  10.435  1.00  0.00    -0.286 OA
BRANCH  39  40
HETATM   40  P3  UNL     1      -2.441 -10.298   8.954  1.00  0.00     0.391 P 
HETATM   41  O14 UNL     1      -3.529 -11.292   8.707  1.00  0.00    -0.632 OA
BRANCH  40  42
HETATM   42  O15 UNL     1      -0.930 -10.810   8.843  1.00  0.00    -0.307 OA
HETATM   43  H36 UNL     1      -0.647 -10.857   7.899  1.00  0.00     0.222 HD
ENDBRANCH  40  42
BRANCH  40  44
HETATM   44  O16 UNL     1      -2.440  -8.974   8.074  1.00  0.00    -0.307 OA
HETATM   45  H37 UNL     1      -1.998  -9.091   7.218  1.00  0.00     0.222 HD
ENDBRANCH  40  44
ENDBRANCH  39  40
ENDBRANCH  35  39
BRANCH  36  46
HETATM   46  O12 UNL     1      -2.356  -7.031  10.450  1.00  0.00    -0.388 OA
HETATM   47  H35 UNL     1      -2.375  -6.083  10.725  1.00  0.00     0.210 HD
ENDBRANCH  36  46
BRANCH  37  48
HETATM   48  N3  UNL     1      -1.276  -6.581  13.493  1.00  0.00    -0.297 N 
HETATM   49  C19 UNL     1      -0.009  -6.061  13.628  1.00  0.00     0.188 A 
HETATM   50  N4  UNL     1      -0.010  -4.898  14.243  1.00  0.00    -0.346 N 
HETATM   51  C20 UNL     1      -1.344  -4.650  14.516  1.00  0.00     0.116 A 
HETATM   52  H4  UNL     1       0.792  -4.311  14.468  1.00  0.00     0.167 HD
HETATM   53  C21 UNL     1      -2.008  -3.564  15.114  1.00  0.00     0.109 A 
HETATM   54  C23 UNL     1      -2.135  -5.702  14.092  1.00  0.00     0.142 A 
HETATM   55  N5  UNL     1      -3.355  -3.623  15.252  1.00  0.00    -0.341 N 
HETATM   56  C22 UNL     1      -3.993  -4.726  14.812  1.00  0.00     0.183 A 
HETATM   57  H5  UNL     1      -3.871  -2.854  15.677  1.00  0.00     0.167 HD
HETATM   58  N6  UNL     1      -3.468  -5.818  14.219  1.00  0.00    -0.336 N 
HETATM   59  H6  UNL     1      -4.011  -6.624  13.908  1.00  0.00     0.168 HD
BRANCH  53  60
HETATM   60  N7  UNL     1      -1.354  -2.435  15.581  1.00  0.00    -0.287 NA
HETATM   61  H33 UNL     1      -1.591  -2.179  16.537  1.00  0.00     0.125 HD
HETATM   62  H34 UNL     1      -1.327  -1.686  14.902  1.00  0.00     0.125 HD
ENDBRANCH  53  60
ENDBRANCH  37  48
ENDBRANCH  33  34
ENDBRANCH  32  33
ENDBRANCH  28  32
ENDBRANCH  27  28
ENDBRANCH  23  27
ENDBRANCH  22  23
ENDBRANCH  21  22
ENDBRANCH  18  21
ENDBRANCH  17  18
BRANCH  17  63
HETATM   63  O17 UNL     1       7.620  -6.888   7.606  1.00  0.00    -0.385 OA
HETATM   64  H38 UNL     1       8.373  -6.893   6.991  1.00  0.00     0.210 HD
ENDBRANCH  17  63
ENDBRANCH  14  17
ENDBRANCH  12  13
ENDBRANCH  11  12
ENDBRANCH   8  11
ENDBRANCH   6   7
ENDBRANCH   5   6
ENDBRANCH   4   5
ENDBRANCH   2   4
TORSDOF 27
ENDMDL
MODEL 7
REMARK VINA RESULT:      -4.8      3.298      5.601
REMARK  27 active torsions:
REMARK  status: ('A' for Active; 'I' for Inactive)
REMARK    1  A    between atoms: C2_2  and  S1_4 
REMARK    2  A    between atoms: S1_4  and  C3_5 
REMARK    3  A    between atoms: C3_5  and  C4_6 
REMARK    4  A    between atoms: C4_6  and  N1_7 
REMARK       I    between atoms: N1_7  and  C5_8 
REMARK    5  A    between atoms: C5_8  and  C6_10 
REMARK    6  A    between atoms: C6_10  and  C7_11 
REMARK    7  A    between atoms: C7_11  and  N2_12 
REMARK       I    between atoms: N2_12  and  C8_13 
REMARK    8  A    between atoms: C8_13  and  C9_15 
REMARK    9  A    between atoms: C9_15  and  C10_16 
REMARK   10  A    between atoms: C9_15  and  O17_54 
REMARK   11  A    between atoms: C10_16  and  C13_19 
REMARK   12  A    between atoms: C13_19  and  O4_20 
REMARK   13  A    between atoms: O4_20  and  P1_21 
REMARK   14  A    between atoms: P1_21  and  O6_23 
REMARK   15  A    between atoms: P1_21  and  O7_24 
REMARK   16  A    between atoms: O7_24  and  P2_25 
REMARK   17  A    between atoms: P2_25  and  O9_27 
REMARK   18  A    between atoms: P2_25  and  O10_28 
REMARK   19  A    between atoms: O10_28  and  C14_29 
REMARK   20  A    between atoms: C14_29  and  C15_30 
REMARK   21  A    between atoms: C16_31  and  O13_49 
REMARK   22  A    between atoms: C17_32  and  O12_48 
REMARK   23  A    between atoms: C18_33  and  N3_35 
REMARK   24  A    between atoms: C21_40  and  N7_47 
REMARK   25  A    between atoms: O13_49  and  P3_50 
REMARK   26  A    between atoms: P3_50  and  O15_52 
REMARK   27  A    between atoms: P3_50  and  O16_53 
ROOT
HETATM    1  C1  UNL     1       4.077  -4.015   7.703  1.00  0.00     0.104 C 
HETATM    2  C2  UNL     1       5.258  -4.774   8.224  1.00  0.00     0.182 C 
HETATM    3  O1  UNL     1       5.643  -4.708   9.388  1.00  0.00    -0.286 OA
ENDROOT
BRANCH   2   4
HETATM    4  S1  UNL     1       6.084  -5.749   7.015  1.00  0.00    -0.091 SA
BRANCH   4   5
HETATM    5  C3  UNL     1       7.097  -6.812   8.093  1.00  0.00     0.102 C 
BRANCH   5   6
HETATM    6  C4  UNL     1       6.310  -8.021   8.603  1.00  0.00     0.133 C 
BRANCH   6   7
HETATM    7  N1  UNL     1       6.650  -8.375   9.966  1.00  0.00    -0.360 N 
HETATM    8  C5  UNL     1       5.698  -8.805  10.861  1.00  0.00     0.219 C 
HETATM    9  O2  UNL     1       4.503  -8.838  10.589  1.00  0.00    -0.274 OA
HETATM   10  H8  UNL     1       7.615  -8.309  10.259  1.00  0.00     0.162 HD
BRANCH   8  11
HETATM   11  C6  UNL     1       6.270  -9.176  12.212  1.00  0.00     0.122 C 
BRANCH  11  12
HETATM   12  C7  UNL     1       5.553  -8.456  13.353  1.00  0.00     0.132 C 
BRANCH  12  13
HETATM   13  N2  UNL     1       4.293  -9.071  13.710  1.00  0.00    -0.358 N 
HETATM   14  C8  UNL     1       3.785  -8.929  14.989  1.00  0.00     0.247 C 
HETATM   15  O3  UNL     1       4.421  -8.392  15.886  1.00  0.00    -0.271 OA
HETATM   16  H13 UNL     1       3.621  -9.167  12.951  1.00  0.00     0.162 HD
BRANCH  14  17
HETATM   17  C9  UNL     1       2.364  -9.478  15.182  1.00  0.00     0.219 C 
BRANCH  17  18
HETATM   18  C10 UNL     1       1.235  -8.503  14.759  1.00  0.00     0.009 C 
HETATM   19  C11 UNL     1       0.178  -8.328  15.859  1.00  0.00     0.020 C 
HETATM   20  C12 UNL     1       1.794  -7.108  14.411  1.00  0.00     0.020 C 
BRANCH  18  21
HETATM   21  C13 UNL     1       0.577  -9.133  13.498  1.00  0.00     0.192 C 
BRANCH  21  22
HETATM   22  O4  UNL     1       1.333  -8.907  12.326  1.00  0.00    -0.296 OA
BRANCH  22  23
HETATM   23  P1  UNL     1       0.662  -8.578  10.907  1.00  0.00     0.401 P 
HETATM   24  O5  UNL     1       0.010  -9.755  10.251  1.00  0.00    -0.631 OA
BRANCH  23  25
HETATM   25  O6  UNL     1       1.798  -7.880  10.005  1.00  0.00    -0.307 OA
HETATM   26  H23 UNL     1       1.575  -6.966   9.786  1.00  0.00     0.222 HD
ENDBRANCH  23  25
BRANCH  23  27
HETATM   27  O7  UNL     1      -0.309  -7.350  11.186  1.00  0.00    -0.195 OA
BRANCH  27  28
HETATM   28  P2  UNL     1      -0.663  -6.360   9.989  1.00  0.00     0.401 P 
HETATM   29  O8  UNL     1       0.400  -5.397   9.571  1.00  0.00    -0.631 OA
BRANCH  28  30
HETATM   30  O9  UNL     1      -1.142  -7.345   8.827  1.00  0.00    -0.307 OA
HETATM   31  H24 UNL     1      -0.961  -7.011   7.915  1.00  0.00     0.222 HD
ENDBRANCH  28  30
BRANCH  28  32
HETATM   32  O10 UNL     1      -2.058  -5.714  10.420  1.00  0.00    -0.294 OA
BRANCH  32  33
HETATM   33  C14 UNL     1      -2.086  -4.466  11.062  1.00  0.00     0.215 C 
BRANCH  33  34
HETATM   34  C15 UNL     1      -3.015  -4.625  12.264  1.00  0.00     0.180 C 
HETATM   35  C16 UNL     1      -2.236  -5.184  13.447  1.00  0.00     0.197 C 
HETATM   36  C17 UNL     1      -2.894  -6.518  13.745  1.00  0.00     0.199 C 
HETATM   37  C18 UNL     1      -4.307  -6.311  13.194  1.00  0.00     0.262 C 
HETATM   38  O11 UNL     1      -4.113  -5.508  12.009  1.00  0.00    -0.353 OA
BRANCH  35  39
HETATM   39  O13 UNL     1      -2.363  -4.269  14.531  1.00  0.00    -0.286 OA
BRANCH  39  40
HETATM   40  P3  UNL     1      -1.035  -3.463  14.911  1.00  0.00     0.391 P 
HETATM   41  O14 UNL     1       0.075  -4.332  15.409  1.00  0.00    -0.632 OA
BRANCH  40  42
HETATM   42  O15 UNL     1      -1.627  -2.369  15.916  1.00  0.00    -0.307 OA
HETATM   43  H36 UNL     1      -1.420  -2.606  16.851  1.00  0.00     0.222 HD
ENDBRANCH  40  42
BRANCH  40  44
HETATM   44  O16 UNL     1      -0.779  -2.631  13.580  1.00  0.00    -0.307 OA
HETATM   45  H37 UNL     1       0.071  -2.843  13.162  1.00  0.00     0.222 HD
ENDBRANCH  40  44
ENDBRANCH  39  40
ENDBRANCH  35  39
BRANCH  36  46
HETATM   46  O12 UNL     1      -2.770  -6.832  15.134  1.00  0.00    -0.388 OA
HETATM   47  H35 UNL     1      -2.510  -5.995  15.587  1.00  0.00     0.210 HD
ENDBRANCH  36  46
BRANCH  37  48
HETATM   48  N3  UNL     1      -4.944  -7.556  12.815  1.00  0.00    -0.297 N 
HETATM   49  C19 UNL     1      -6.053  -8.131  13.390  1.00  0.00     0.188 A 
HETATM   50  N4  UNL     1      -6.459  -9.197  12.735  1.00  0.00    -0.346 N 
HETATM   51  C20 UNL     1      -5.572  -9.315  11.679  1.00  0.00     0.116 A 
HETATM   52  H4  UNL     1      -7.250  -9.801  12.955  1.00  0.00     0.167 HD
HETATM   53  C21 UNL     1      -5.488 -10.214  10.601  1.00  0.00     0.109 A 
HETATM   54  C23 UNL     1      -4.605  -8.328  11.739  1.00  0.00     0.142 A 
HETATM   55  N5  UNL     1      -4.472 -10.072   9.715  1.00  0.00    -0.341 N 
HETATM   56  C22 UNL     1      -3.587  -9.076   9.914  1.00  0.00     0.183 A 
HETATM   57  H5  UNL     1      -4.380 -10.704   8.919  1.00  0.00     0.167 HD
HETATM   58  N6  UNL     1      -3.571  -8.153  10.898  1.00  0.00    -0.336 N 
HETATM   59  H6  UNL     1      -2.867  -7.420  10.992  1.00  0.00     0.168 HD
BRANCH  53  60
HETATM   60  N7  UNL     1      -6.387 -11.250  10.401  1.00  0.00    -0.287 NA
HETATM   61  H33 UNL     1      -6.136 -12.119  10.868  1.00  0.00     0.125 HD
HETATM   62  H34 UNL     1      -6.699 -11.322   9.442  1.00  0.00     0.125 HD
ENDBRANCH  53  60
ENDBRANCH  37  48
ENDBRANCH  33  34
ENDBRANCH  32  33
ENDBRANCH  28  32
ENDBRANCH  27  28
ENDBRANCH  23  27
ENDBRANCH  22  23
ENDBRANCH  21  22
ENDBRANCH  18  21
ENDBRANCH  17  18
BRANCH  17  63
HETATM   63  O17 UNL     1       2.204 -10.701  14.455  1.00  0.00    -0.385 OA
HETATM   64  H38 UNL     1       2.874 -10.723  13.750  1.00  0.00     0.210 HD
ENDBRANCH  17  63
ENDBRANCH  14  17
ENDBRANCH  12  13
ENDBRANCH  11  12
ENDBRANCH   8  11
ENDBRANCH   6   7
ENDBRANCH   5   6
ENDBRANCH   4   5
ENDBRANCH   2   4
TORSDOF 27
ENDMDL
MODEL 8
REMARK VINA RESULT:      -4.8     10.271     14.692
REMARK  27 active torsions:
REMARK  status: ('A' for Active; 'I' for Inactive)
REMARK    1  A    between atoms: C2_2  and  S1_4 
REMARK    2  A    between atoms: S1_4  and  C3_5 
REMARK    3  A    between atoms: C3_5  and  C4_6 
REMARK    4  A    between atoms: C4_6  and  N1_7 
REMARK       I    between atoms: N1_7  and  C5_8 
REMARK    5  A    between atoms: C5_8  and  C6_10 
REMARK    6  A    between atoms: C6_10  and  C7_11 
REMARK    7  A    between atoms: C7_11  and  N2_12 
REMARK       I    between atoms: N2_12  and  C8_13 
REMARK    8  A    between atoms: C8_13  and  C9_15 
REMARK    9  A    between atoms: C9_15  and  C10_16 
REMARK   10  A    between atoms: C9_15  and  O17_54 
REMARK   11  A    between atoms: C10_16  and  C13_19 
REMARK   12  A    between atoms: C13_19  and  O4_20 
REMARK   13  A    between atoms: O4_20  and  P1_21 
REMARK   14  A    between atoms: P1_21  and  O6_23 
REMARK   15  A    between atoms: P1_21  and  O7_24 
REMARK   16  A    between atoms: O7_24  and  P2_25 
REMARK   17  A    between atoms: P2_25  and  O9_27 
REMARK   18  A    between atoms: P2_25  and  O10_28 
REMARK   19  A    between atoms: O10_28  and  C14_29 
REMARK   20  A    between atoms: C14_29  and  C15_30 
REMARK   21  A    between atoms: C16_31  and  O13_49 
REMARK   22  A    between atoms: C17_32  and  O12_48 
REMARK   23  A    between atoms: C18_33  and  N3_35 
REMARK   24  A    between atoms: C21_40  and  N7_47 
REMARK   25  A    between atoms: O13_49  and  P3_50 
REMARK   26  A    between atoms: P3_50  and  O15_52 
REMARK   27  A    between atoms: P3_50  and  O16_53 
ROOT
HETATM    1  C1  UNL     1      13.511  -4.020  -0.167  1.00  0.00     0.104 C 
HETATM    2  C2  UNL     1      13.089  -2.614  -0.471  1.00  0.00     0.182 C 
HETATM    3  O1  UNL     1      13.757  -1.629  -0.168  1.00  0.00    -0.286 OA
ENDROOT
BRANCH   2   4
HETATM    4  S1  UNL     1      11.526  -2.483  -1.267  1.00  0.00    -0.091 SA
BRANCH   4   5
HETATM    5  C3  UNL     1      11.309  -0.674  -1.255  1.00  0.00     0.102 C 
BRANCH   5   6
HETATM    6  C4  UNL     1      10.089  -0.241  -2.072  1.00  0.00     0.133 C 
BRANCH   6   7
HETATM    7  N1  UNL     1       8.840  -0.681  -1.487  1.00  0.00    -0.360 N 
HETATM    8  C5  UNL     1       8.155   0.090  -0.577  1.00  0.00     0.219 C 
HETATM    9  O2  UNL     1       8.594   1.151  -0.148  1.00  0.00    -0.274 OA
HETATM   10  H8  UNL     1       8.462  -1.578  -1.763  1.00  0.00     0.162 HD
BRANCH   8  11
HETATM   11  C6  UNL     1       6.847  -0.528  -0.132  1.00  0.00     0.122 C 
BRANCH  11  12
HETATM   12  C7  UNL     1       6.364   0.052   1.197  1.00  0.00     0.132 C 
BRANCH  12  13
HETATM   13  N2  UNL     1       6.825  -0.700   2.345  1.00  0.00    -0.358 N 
HETATM   14  C8  UNL     1       6.438  -2.017   2.516  1.00  0.00     0.247 C 
HETATM   15  O3  UNL     1       5.613  -2.553   1.788  1.00  0.00    -0.271 OA
HETATM   16  H13 UNL     1       7.739  -0.433   2.706  1.00  0.00     0.162 HD
BRANCH  14  17
HETATM   17  C9  UNL     1       7.137  -2.749   3.672  1.00  0.00     0.219 C 
BRANCH  17  18
HETATM   18  C10 UNL     1       6.437  -2.592   5.048  1.00  0.00     0.009 C 
HETATM   19  C11 UNL     1       7.075  -1.485   5.899  1.00  0.00     0.020 C 
HETATM   20  C12 UNL     1       4.939  -2.263   4.886  1.00  0.00     0.020 C 
BRANCH  18  21
HETATM   21  C13 UNL     1       6.599  -3.963   5.767  1.00  0.00     0.192 C 
BRANCH  21  22
HETATM   22  O4  UNL     1       6.197  -3.911   7.121  1.00  0.00    -0.296 OA
BRANCH  22  23
HETATM   23  P1  UNL     1       6.017  -5.222   8.026  1.00  0.00     0.401 P 
HETATM   24  O5  UNL     1       6.468  -6.487   7.367  1.00  0.00    -0.631 OA
BRANCH  23  25
HETATM   25  O6  UNL     1       4.480  -5.251   8.504  1.00  0.00    -0.307 OA
HETATM   26  H23 UNL     1       4.067  -6.108   8.342  1.00  0.00     0.222 HD
ENDBRANCH  23  25
BRANCH  23  27
HETATM   27  O7  UNL     1       6.759  -4.883   9.392  1.00  0.00    -0.195 OA
BRANCH  27  28
HETATM   28  P2  UNL     1       7.023  -6.056  10.437  1.00  0.00     0.401 P 
HETATM   29  O8  UNL     1       6.887  -5.715  11.885  1.00  0.00    -0.631 OA
BRANCH  28  30
HETATM   30  O9  UNL     1       6.038  -7.213   9.946  1.00  0.00    -0.307 OA
HETATM   31  H24 UNL     1       6.500  -8.009   9.586  1.00  0.00     0.222 HD
ENDBRANCH  28  30
BRANCH  28  32
HETATM   32  O10 UNL     1       8.432  -6.660   9.992  1.00  0.00    -0.294 OA
BRANCH  32  33
HETATM   33  C14 UNL     1       9.515  -6.650  10.885  1.00  0.00     0.215 C 
BRANCH  33  34
HETATM   34  C15 UNL     1      10.501  -7.699  10.373  1.00  0.00     0.180 C 
HETATM   35  C16 UNL     1      11.925  -7.180  10.516  1.00  0.00     0.197 C 
HETATM   36  C17 UNL     1      12.455  -7.115   9.096  1.00  0.00     0.199 C 
HETATM   37  C18 UNL     1      11.597  -8.163   8.383  1.00  0.00     0.262 C 
HETATM   38  O11 UNL     1      10.295  -8.034   8.996  1.00  0.00    -0.353 OA
BRANCH  35  39
HETATM   39  O13 UNL     1      12.653  -8.104  11.318  1.00  0.00    -0.286 OA
BRANCH  39  40
HETATM   40  P3  UNL     1      13.413  -7.475  12.576  1.00  0.00     0.391 P 
HETATM   41  O14 UNL     1      13.809  -8.483  13.606  1.00  0.00    -0.632 OA
BRANCH  40  42
HETATM   42  O15 UNL     1      12.377  -6.337  13.013  1.00  0.00    -0.307 OA
HETATM   43  H36 UNL     1      11.452  -6.677  12.983  1.00  0.00     0.222 HD
ENDBRANCH  40  42
BRANCH  40  44
HETATM   44  O16 UNL     1      14.574  -6.654  11.865  1.00  0.00    -0.307 OA
HETATM   45  H37 UNL     1      14.724  -5.786  12.270  1.00  0.00     0.222 HD
ENDBRANCH  40  44
ENDBRANCH  39  40
ENDBRANCH  35  39
BRANCH  36  46
HETATM   46  O12 UNL     1      13.872  -7.309   9.085  1.00  0.00    -0.388 OA
HETATM   47  H35 UNL     1      14.025  -8.220   8.739  1.00  0.00     0.210 HD
ENDBRANCH  36  46
BRANCH  37  48
HETATM   48  N3  UNL     1      11.470  -7.905   6.962  1.00  0.00    -0.297 N 
HETATM   49  C19 UNL     1      10.355  -7.455   6.295  1.00  0.00     0.188 A 
HETATM   50  N4  UNL     1      10.601  -7.200   5.028  1.00  0.00    -0.346 N 
HETATM   51  C20 UNL     1      11.943  -7.496   4.867  1.00  0.00     0.116 A 
HETATM   52  H4  UNL     1       9.948  -6.860   4.322  1.00  0.00     0.167 HD
HETATM   53  C21 UNL     1      12.815  -7.397   3.769  1.00  0.00     0.109 A 
HETATM   54  C23 UNL     1      12.484  -7.971   6.048  1.00  0.00     0.142 A 
HETATM   55  N5  UNL     1      14.105  -7.784   3.928  1.00  0.00    -0.341 N 
HETATM   56  C22 UNL     1      14.487  -8.251   5.133  1.00  0.00     0.183 A 
HETATM   57  H5  UNL     1      14.768  -7.724   3.155  1.00  0.00     0.167 HD
HETATM   58  N6  UNL     1      13.748  -8.383   6.253  1.00  0.00    -0.336 N 
HETATM   59  H6  UNL     1      14.100  -8.746   7.139  1.00  0.00     0.168 HD
BRANCH  53  60
HETATM   60  N7  UNL     1      12.424  -6.932   2.524  1.00  0.00    -0.287 NA
HETATM   61  H33 UNL     1      13.009  -7.249   1.755  1.00  0.00     0.125 HD
HETATM   62  H34 UNL     1      12.171  -5.953   2.530  1.00  0.00     0.125 HD
ENDBRANCH  53  60
ENDBRANCH  37  48
ENDBRANCH  33  34
ENDBRANCH  32  33
ENDBRANCH  28  32
ENDBRANCH  27  28
ENDBRANCH  23  27
ENDBRANCH  22  23
ENDBRANCH  21  22
ENDBRANCH  18  21
ENDBRANCH  17  18
BRANCH  17  63
HETATM   63  O17 UNL     1       7.249  -4.145   3.375  1.00  0.00    -0.385 OA
HETATM   64  H38 UNL     1       7.134  -4.640   4.204  1.00  0.00     0.210 HD
ENDBRANCH  17  63
ENDBRANCH  14  17
ENDBRANCH  12  13
ENDBRANCH  11  12
ENDBRANCH   8  11
ENDBRANCH   6   7
ENDBRANCH   5   6
ENDBRANCH   4   5
ENDBRANCH   2   4
TORSDOF 27
ENDMDL
MODEL 9
REMARK VINA RESULT:      -4.7     10.056     14.535
REMARK  27 active torsions:
REMARK  status: ('A' for Active; 'I' for Inactive)
REMARK    1  A    between atoms: C2_2  and  S1_4 
REMARK    2  A    between atoms: S1_4  and  C3_5 
REMARK    3  A    between atoms: C3_5  and  C4_6 
REMARK    4  A    between atoms: C4_6  and  N1_7 
REMARK       I    between atoms: N1_7  and  C5_8 
REMARK    5  A    between atoms: C5_8  and  C6_10 
REMARK    6  A    between atoms: C6_10  and  C7_11 
REMARK    7  A    between atoms: C7_11  and  N2_12 
REMARK       I    between atoms: N2_12  and  C8_13 
REMARK    8  A    between atoms: C8_13  and  C9_15 
REMARK    9  A    between atoms: C9_15  and  C10_16 
REMARK   10  A    between atoms: C9_15  and  O17_54 
REMARK   11  A    between atoms: C10_16  and  C13_19 
REMARK   12  A    between atoms: C13_19  and  O4_20 
REMARK   13  A    between atoms: O4_20  and  P1_21 
REMARK   14  A    between atoms: P1_21  and  O6_23 
REMARK   15  A    between atoms: P1_21  and  O7_24 
REMARK   16  A    between atoms: O7_24  and  P2_25 
REMARK   17  A    between atoms: P2_25  and  O9_27 
REMARK   18  A    between atoms: P2_25  and  O10_28 
REMARK   19  A    between atoms: O10_28  and  C14_29 
REMARK   20  A    between atoms: C14_29  and  C15_30 
REMARK   21  A    between atoms: C16_31  and  O13_49 
REMARK   22  A    between atoms: C17_32  and  O12_48 
REMARK   23  A    between atoms: C18_33  and  N3_35 
REMARK   24  A    between atoms: C21_40  and  N7_47 
REMARK   25  A    between atoms: O13_49  and  P3_50 
REMARK   26  A    between atoms: P3_50  and  O15_52 
REMARK   27  A    between atoms: P3_50  and  O16_53 
ROOT
HETATM    1  C1  UNL     1       0.763  -2.515   0.252  1.00  0.00     0.104 C 
HETATM    2  C2  UNL     1       0.985  -2.233  -1.203  1.00  0.00     0.182 C 
HETATM    3  O1  UNL     1       1.160  -3.113  -2.042  1.00  0.00    -0.286 OA
ENDROOT
BRANCH   2   4
HETATM    4  S1  UNL     1       1.016  -0.523  -1.613  1.00  0.00    -0.091 SA
BRANCH   4   5
HETATM    5  C3  UNL     1       2.580  -0.029  -0.820  1.00  0.00     0.102 C 
BRANCH   5   6
HETATM    6  C4  UNL     1       3.718  -0.998  -1.149  1.00  0.00     0.133 C 
BRANCH   6   7
HETATM    7  N1  UNL     1       4.266  -1.638   0.029  1.00  0.00    -0.360 N 
HETATM    8  C5  UNL     1       5.303  -1.080   0.740  1.00  0.00     0.219 C 
HETATM    9  O2  UNL     1       5.876  -0.059   0.380  1.00  0.00    -0.274 OA
HETATM   10  H8  UNL     1       3.866  -2.514   0.337  1.00  0.00     0.162 HD
BRANCH   8  11
HETATM   11  C6  UNL     1       5.687  -1.880   1.967  1.00  0.00     0.122 C 
BRANCH  11  12
HETATM   12  C7  UNL     1       6.758  -2.925   1.655  1.00  0.00     0.132 C 
BRANCH  12  13
HETATM   13  N2  UNL     1       6.994  -3.840   2.751  1.00  0.00    -0.358 N 
HETATM   14  C8  UNL     1       7.133  -3.361   4.041  1.00  0.00     0.247 C 
HETATM   15  O3  UNL     1       7.180  -2.163   4.289  1.00  0.00    -0.271 OA
HETATM   16  H13 UNL     1       6.594  -4.769   2.640  1.00  0.00     0.162 HD
BRANCH  14  17
HETATM   17  C9  UNL     1       7.201  -4.445   5.127  1.00  0.00     0.219 C 
BRANCH  17  18
HETATM   18  C10 UNL     1       6.108  -4.327   6.222  1.00  0.00     0.009 C 
HETATM   19  C11 UNL     1       5.633  -2.879   6.412  1.00  0.00     0.020 C 
HETATM   20  C12 UNL     1       4.876  -5.192   5.886  1.00  0.00     0.020 C 
BRANCH  18  21
HETATM   21  C13 UNL     1       6.765  -4.839   7.536  1.00  0.00     0.192 C 
BRANCH  21  22
HETATM   22  O4  UNL     1       7.079  -6.215   7.481  1.00  0.00    -0.296 OA
BRANCH  22  23
HETATM   23  P1  UNL     1       6.714  -7.240   8.660  1.00  0.00     0.401 P 
HETATM   24  O5  UNL     1       5.789  -8.342   8.248  1.00  0.00    -0.631 OA
BRANCH  23  25
HETATM   25  O6  UNL     1       6.165  -6.357   9.889  1.00  0.00    -0.307 OA
HETATM   26  H23 UNL     1       6.748  -6.407  10.658  1.00  0.00     0.222 HD
ENDBRANCH  23  25
BRANCH  23  27
HETATM   27  O7  UNL     1       8.116  -7.727   9.230  1.00  0.00    -0.195 OA
BRANCH  27  28
HETATM   28  P2  UNL     1       8.772  -6.932  10.445  1.00  0.00     0.401 P 
HETATM   29  O8  UNL     1       8.652  -5.443  10.422  1.00  0.00    -0.631 OA
BRANCH  28  30
HETATM   30  O9  UNL     1       8.115  -7.618  11.729  1.00  0.00    -0.307 OA
HETATM   31  H24 UNL     1       8.725  -7.692  12.503  1.00  0.00     0.222 HD
ENDBRANCH  28  30
BRANCH  28  32
HETATM   32  O10 UNL     1      10.257  -7.512  10.530  1.00  0.00    -0.294 OA
BRANCH  32  33
HETATM   33  C14 UNL     1      10.521  -8.829  10.125  1.00  0.00     0.215 C 
BRANCH  33  34
HETATM   34  C15 UNL     1      12.037  -8.933   9.972  1.00  0.00     0.180 C 
HETATM   35  C16 UNL     1      12.693  -7.645  10.451  1.00  0.00     0.197 C 
HETATM   36  C17 UNL     1      13.386  -7.086   9.222  1.00  0.00     0.199 C 
HETATM   37  C18 UNL     1      13.623  -8.345   8.385  1.00  0.00     0.262 C 
HETATM   38  O11 UNL     1      12.448  -9.154   8.618  1.00  0.00    -0.353 OA
BRANCH  35  39
HETATM   39  O13 UNL     1      13.616  -7.978  11.483  1.00  0.00    -0.286 OA
BRANCH  39  40
HETATM   40  P3  UNL     1      13.437  -7.173  12.853  1.00  0.00     0.391 P 
HETATM   41  O14 UNL     1      13.563  -8.026  14.074  1.00  0.00    -0.632 OA
BRANCH  40  42
HETATM   42  O15 UNL     1      12.033  -6.451  12.595  1.00  0.00    -0.307 OA
HETATM   43  H36 UNL     1      11.506  -6.405  13.428  1.00  0.00     0.222 HD
ENDBRANCH  40  42
BRANCH  40  44
HETATM   44  O16 UNL     1      14.489  -5.995  12.666  1.00  0.00    -0.307 OA
HETATM   45  H37 UNL     1      14.572  -5.437  13.455  1.00  0.00     0.222 HD
ENDBRANCH  40  44
ENDBRANCH  39  40
ENDBRANCH  35  39
BRANCH  36  46
HETATM   46  O12 UNL     1      14.536  -6.326   9.604  1.00  0.00    -0.388 OA
HETATM   47  H35 UNL     1      14.351  -5.393   9.343  1.00  0.00     0.210 HD
ENDBRANCH  36  46
BRANCH  37  48
HETATM   48  N3  UNL     1      13.719  -8.060   6.967  1.00  0.00    -0.297 N 
HETATM   49  C19 UNL     1      14.853  -8.085   6.189  1.00  0.00     0.188 A 
HETATM   50  N4  UNL     1      14.586  -7.904   4.914  1.00  0.00    -0.346 N 
HETATM   51  C20 UNL     1      13.211  -7.759   4.862  1.00  0.00     0.116 A 
HETATM   52  H4  UNL     1      15.246  -7.876   4.137  1.00  0.00     0.167 HD
HETATM   53  C21 UNL     1      12.312  -7.580   3.796  1.00  0.00     0.109 A 
HETATM   54  C23 UNL     1      12.665  -7.814   6.131  1.00  0.00     0.142 A 
HETATM   55  N5  UNL     1      10.991  -7.458   4.076  1.00  0.00    -0.341 N 
HETATM   56  C22 UNL     1      10.604  -7.508   5.366  1.00  0.00     0.183 A 
HETATM   57  H5  UNL     1      10.308  -7.331   3.329  1.00  0.00     0.167 HD
HETATM   58  N6  UNL     1      11.369  -7.683   6.463  1.00  0.00    -0.336 N 
HETATM   59  H6  UNL     1      11.012  -7.711   7.419  1.00  0.00     0.168 HD
BRANCH  53  60
HETATM   60  N7  UNL     1      12.706  -7.513   2.469  1.00  0.00    -0.287 NA
HETATM   61  H33 UNL     1      13.571  -7.000   2.315  1.00  0.00     0.125 HD
HETATM   62  H34 UNL     1      11.939  -7.315   1.840  1.00  0.00     0.125 HD
ENDBRANCH  53  60
ENDBRANCH  37  48
ENDBRANCH  33  34
ENDBRANCH  32  33
ENDBRANCH  28  32
ENDBRANCH  27  28
ENDBRANCH  23  27
ENDBRANCH  22  23
ENDBRANCH  21  22
ENDBRANCH  18  21
ENDBRANCH  17  18
BRANCH  17  63
HETATM   63  O17 UNL     1       7.110  -5.744   4.532  1.00  0.00    -0.385 OA
HETATM   64  H38 UNL     1       7.530  -5.705   3.657  1.00  0.00     0.210 HD
ENDBRANCH  17  63
ENDBRANCH  14  17
ENDBRANCH  12  13
ENDBRANCH  11  12
ENDBRANCH   8  11
ENDBRANCH   6   7
ENDBRANCH   5   6
ENDBRANCH   4   5
ENDBRANCH   2   4
TORSDOF 27
ENDMDL
MODEL 10
REMARK VINA RESULT:      -4.5      1.522      2.038
REMARK  27 active torsions:
REMARK  status: ('A' for Active; 'I' for Inactive)
REMARK    1  A    between atoms: C2_2  and  S1_4 
REMARK    2  A    between atoms: S1_4  and  C3_5 
REMARK    3  A    between atoms: C3_5  and  C4_6 
REMARK    4  A    between atoms: C4_6  and  N1_7 
REMARK       I    between atoms: N1_7  and  C5_8 
REMARK    5  A    between atoms: C5_8  and  C6_10 
REMARK    6  A    between atoms: C6_10  and  C7_11 
REMARK    7  A    between atoms: C7_11  and  N2_12 
REMARK       I    between atoms: N2_12  and  C8_13 
REMARK    8  A    between atoms: C8_13  and  C9_15 
REMARK    9  A    between atoms: C9_15  and  C10_16 
REMARK   10  A    between atoms: C9_15  and  O17_54 
REMARK   11  A    between atoms: C10_16  and  C13_19 
REMARK   12  A    between atoms: C13_19  and  O4_20 
REMARK   13  A    between atoms: O4_20  and  P1_21 
REMARK   14  A    between atoms: P1_21  and  O6_23 
REMARK   15  A    between atoms: P1_21  and  O7_24 
REMARK   16  A    between atoms: O7_24  and  P2_25 
REMARK   17  A    between atoms: P2_25  and  O9_27 
REMARK   18  A    between atoms: P2_25  and  O10_28 
REMARK   19  A    between atoms: O10_28  and  C14_29 
REMARK   20  A    between atoms: C14_29  and  C15_30 
REMARK   21  A    between atoms: C16_31  and  O13_49 
REMARK   22  A    between atoms: C17_32  and  O12_48 
REMARK   23  A    between atoms: C18_33  and  N3_35 
REMARK   24  A    between atoms: C21_40  and  N7_47 
REMARK   25  A    between atoms: O13_49  and  P3_50 
REMARK   26  A    between atoms: P3_50  and  O15_52 
REMARK   27  A    between atoms: P3_50  and  O16_53 
ROOT
HETATM    1  C1  UNL     1       3.474  -3.811   7.707  1.00  0.00     0.104 C 
HETATM    2  C2  UNL     1       4.786  -4.428   8.083  1.00  0.00     0.182 C 
HETATM    3  O1  UNL     1       5.250  -4.386   9.220  1.00  0.00    -0.286 OA
ENDROOT
BRANCH   2   4
HETATM    4  S1  UNL     1       5.638  -5.191   6.747  1.00  0.00    -0.091 SA
BRANCH   4   5
HETATM    5  C3  UNL     1       6.556  -6.483   7.645  1.00  0.00     0.102 C 
BRANCH   5   6
HETATM    6  C4  UNL     1       5.637  -7.611   8.118  1.00  0.00     0.133 C 
BRANCH   6   7
HETATM    7  N1  UNL     1       6.115  -8.252   9.326  1.00  0.00    -0.360 N 
HETATM    8  C5  UNL     1       5.257  -8.874  10.204  1.00  0.00     0.219 C 
HETATM    9  O2  UNL     1       4.040  -8.854  10.062  1.00  0.00    -0.274 OA
HETATM   10  H8  UNL     1       7.107  -8.246   9.520  1.00  0.00     0.162 HD
BRANCH   8  11
HETATM   11  C6  UNL     1       5.964  -9.527  11.371  1.00  0.00     0.122 C 
BRANCH  11  12
HETATM   12  C7  UNL     1       5.260  -9.242  12.697  1.00  0.00     0.132 C 
BRANCH  12  13
HETATM   13  N2  UNL     1       4.093 -10.071  12.910  1.00  0.00    -0.358 N 
HETATM   14  C8  UNL     1       3.373  -9.973  14.086  1.00  0.00     0.247 C 
HETATM   15  O3  UNL     1       3.751  -9.284  15.026  1.00  0.00    -0.271 OA
HETATM   16  H13 UNL     1       3.579 -10.327  12.069  1.00  0.00     0.162 HD
BRANCH  14  17
HETATM   17  C9  UNL     1       2.063 -10.774  14.109  1.00  0.00     0.219 C 
BRANCH  17  18
HETATM   18  C10 UNL     1       0.867 -10.070  13.416  1.00  0.00     0.009 C 
HETATM   19  C11 UNL     1       0.987  -8.540  13.467  1.00  0.00     0.020 C 
HETATM   20  C12 UNL     1       0.744 -10.488  11.937  1.00  0.00     0.020 C 
BRANCH  18  21
HETATM   21  C13 UNL     1      -0.403 -10.520  14.196  1.00  0.00     0.192 C 
BRANCH  21  22
HETATM   22  O4  UNL     1      -1.578 -10.414  13.418  1.00  0.00    -0.296 OA
BRANCH  22  23
HETATM   23  P1  UNL     1      -2.836  -9.523  13.858  1.00  0.00     0.401 P 
HETATM   24  O5  UNL     1      -2.497  -8.103  14.182  1.00  0.00    -0.631 OA
BRANCH  23  25
HETATM   25  O6  UNL     1      -3.563 -10.308  15.061  1.00  0.00    -0.307 OA
HETATM   26  H23 UNL     1      -3.273  -9.992  15.927  1.00  0.00     0.222 HD
ENDBRANCH  23  25
BRANCH  23  27
HETATM   27  O7  UNL     1      -3.897  -9.703  12.687  1.00  0.00    -0.195 OA
BRANCH  27  28
HETATM   28  P2  UNL     1      -5.283  -8.923  12.777  1.00  0.00     0.401 P 
HETATM   29  O8  UNL     1      -6.525  -9.720  12.541  1.00  0.00    -0.631 OA
BRANCH  28  30
HETATM   30  O9  UNL     1      -5.219  -8.227  14.212  1.00  0.00    -0.307 OA
HETATM   31  H24 UNL     1      -4.820  -8.792  14.918  1.00  0.00     0.222 HD
ENDBRANCH  28  30
BRANCH  28  32
HETATM   32  O10 UNL     1      -5.077  -7.657  11.827  1.00  0.00    -0.294 OA
BRANCH  32  33
HETATM   33  C14 UNL     1      -5.219  -7.791  10.437  1.00  0.00     0.215 C 
BRANCH  33  34
HETATM   34  C15 UNL     1      -4.015  -7.087   9.814  1.00  0.00     0.180 C 
HETATM   35  C16 UNL     1      -2.795  -7.996   9.882  1.00  0.00     0.197 C 
HETATM   36  C17 UNL     1      -1.804  -7.246  10.751  1.00  0.00     0.199 C 
HETATM   37  C18 UNL     1      -2.241  -5.791  10.558  1.00  0.00     0.262 C 
HETATM   38  O11 UNL     1      -3.681  -5.860  10.475  1.00  0.00    -0.353 OA
BRANCH  35  39
HETATM   39  O13 UNL     1      -2.311  -8.184   8.556  1.00  0.00    -0.286 OA
BRANCH  39  40
HETATM   40  P3  UNL     1      -1.997  -9.697   8.145  1.00  0.00     0.391 P 
HETATM   41  O14 UNL     1      -0.637 -10.163   8.554  1.00  0.00    -0.632 OA
BRANCH  40  42
HETATM   42  O15 UNL     1      -2.327  -9.656   6.580  1.00  0.00    -0.307 OA
HETATM   43  H36 UNL     1      -2.547 -10.559   6.247  1.00  0.00     0.222 HD
ENDBRANCH  40  42
BRANCH  40  44
HETATM   44  O16 UNL     1      -3.251 -10.457   8.760  1.00  0.00    -0.307 OA
HETATM   45  H37 UNL     1      -4.019  -9.877   8.885  1.00  0.00     0.222 HD
ENDBRANCH  40  44
ENDBRANCH  39  40
ENDBRANCH  35  39
BRANCH  36  46
HETATM   46  O12 UNL     1      -0.464  -7.583  10.381  1.00  0.00    -0.388 OA
HETATM   47  H35 UNL     1      -0.348  -8.539  10.599  1.00  0.00     0.210 HD
ENDBRANCH  36  46
BRANCH  37  48
HETATM   48  N3  UNL     1      -1.878  -4.948  11.679  1.00  0.00    -0.297 N 
HETATM   49  C19 UNL     1      -0.832  -4.057  11.744  1.00  0.00     0.188 A 
HETATM   50  N4  UNL     1      -0.848  -3.350  12.854  1.00  0.00    -0.346 N 
HETATM   51  C20 UNL     1      -1.962  -3.802  13.539  1.00  0.00     0.116 A 
HETATM   52  H4  UNL     1      -0.187  -2.630  13.144  1.00  0.00     0.167 HD
HETATM   53  C21 UNL     1      -2.548  -3.424  14.760  1.00  0.00     0.109 A 
HETATM   54  C23 UNL     1      -2.586  -4.819  12.841  1.00  0.00     0.142 A 
HETATM   55  N5  UNL     1      -3.658  -4.080  15.177  1.00  0.00    -0.341 N 
HETATM   56  C22 UNL     1      -4.144  -5.069  14.402  1.00  0.00     0.183 A 
HETATM   57  H5  UNL     1      -4.113  -3.831  16.056  1.00  0.00     0.167 HD
HETATM   58  N6  UNL     1      -3.676  -5.511  13.217  1.00  0.00    -0.336 N 
HETATM   59  H6  UNL     1      -4.094  -6.270  12.677  1.00  0.00     0.168 HD
BRANCH  53  60
HETATM   60  N7  UNL     1      -2.043  -2.417  15.568  1.00  0.00    -0.287 NA
HETATM   61  H33 UNL     1      -2.149  -2.589  16.565  1.00  0.00     0.125 HD
HETATM   62  H34 UNL     1      -2.278  -1.491  15.237  1.00  0.00     0.125 HD
ENDBRANCH  53  60
ENDBRANCH  37  48
ENDBRANCH  33  34
ENDBRANCH  32  33
ENDBRANCH  28  32
ENDBRANCH  27  28
ENDBRANCH  23  27
ENDBRANCH  22  23
ENDBRANCH  21  22
ENDBRANCH  18  21
ENDBRANCH  17  18
BRANCH  17  63
HETATM   63  O17 UNL     1       2.257 -12.052  13.494  1.00  0.00    -0.385 OA
HETATM   64  H38 UNL     1       1.424 -12.549  13.561  1.00  0.00     0.210 HD
ENDBRANCH  17  63
ENDBRANCH  14  17
ENDBRANCH  12  13
ENDBRANCH  11  12
ENDBRANCH   8  11
ENDBRANCH   6   7
ENDBRANCH   5   6
ENDBRANCH   4   5
ENDBRANCH   2   4
TORSDOF 27
ENDMDL
MODEL 11
REMARK VINA RESULT:      -4.5      9.894     14.824
REMARK  27 active torsions:
REMARK  status: ('A' for Active; 'I' for Inactive)
REMARK    1  A    between atoms: C2_2  and  S1_4 
REMARK    2  A    between atoms: S1_4  and  C3_5 
REMARK    3  A    between atoms: C3_5  and  C4_6 
REMARK    4  A    between atoms: C4_6  and  N1_7 
REMARK       I    between atoms: N1_7  and  C5_8 
REMARK    5  A    between atoms: C5_8  and  C6_10 
REMARK    6  A    between atoms: C6_10  and  C7_11 
REMARK    7  A    between atoms: C7_11  and  N2_12 
REMARK       I    between atoms: N2_12  and  C8_13 
REMARK    8  A    between atoms: C8_13  and  C9_15 
REMARK    9  A    between atoms: C9_15  and  C10_16 
REMARK   10  A    between atoms: C9_15  and  O17_54 
REMARK   11  A    between atoms: C10_16  and  C13_19 
REMARK   12  A    between atoms: C13_19  and  O4_20 
REMARK   13  A    between atoms: O4_20  and  P1_21 
REMARK   14  A    between atoms: P1_21  and  O6_23 
REMARK   15  A    between atoms: P1_21  and  O7_24 
REMARK   16  A    between atoms: O7_24  and  P2_25 
REMARK   17  A    between atoms: P2_25  and  O9_27 
REMARK   18  A    between atoms: P2_25  and  O10_28 
REMARK   19  A    between atoms: O10_28  and  C14_29 
REMARK   20  A    between atoms: C14_29  and  C15_30 
REMARK   21  A    between atoms: C16_31  and  O13_49 
REMARK   22  A    between atoms: C17_32  and  O12_48 
REMARK   23  A    between atoms: C18_33  and  N3_35 
REMARK   24  A    between atoms: C21_40  and  N7_47 
REMARK   25  A    between atoms: O13_49  and  P3_50 
REMARK   26  A    between atoms: P3_50  and  O15_52 
REMARK   27  A    between atoms: P3_50  and  O16_53 
ROOT
HETATM    1  C1  UNL     1      -1.117   0.142  -2.034  1.00  0.00     0.104 C 
HETATM    2  C2  UNL     1      -0.352  -0.896  -1.273  1.00  0.00     0.182 C 
HETATM    3  O1  UNL     1      -0.841  -1.962  -0.907  1.00  0.00    -0.286 OA
ENDROOT
BRANCH   2   4
HETATM    4  S1  UNL     1       1.309  -0.449  -0.905  1.00  0.00    -0.091 SA
BRANCH   4   5
HETATM    5  C3  UNL     1       1.944  -2.041  -0.289  1.00  0.00     0.102 C 
BRANCH   5   6
HETATM    6  C4  UNL     1       3.441  -2.202  -0.563  1.00  0.00     0.133 C 
BRANCH   6   7
HETATM    7  N1  UNL     1       4.258  -1.340   0.265  1.00  0.00    -0.360 N 
HETATM    8  C5  UNL     1       5.524  -1.703   0.661  1.00  0.00     0.219 C 
HETATM    9  O2  UNL     1       6.005  -2.802   0.407  1.00  0.00    -0.274 OA
HETATM   10  H8  UNL     1       3.885  -0.444   0.552  1.00  0.00     0.162 HD
BRANCH   8  11
HETATM   11  C6  UNL     1       6.227  -0.637   1.474  1.00  0.00     0.122 C 
BRANCH  11  12
HETATM   12  C7  UNL     1       7.126  -1.242   2.551  1.00  0.00     0.132 C 
BRANCH  12  13
HETATM   13  N2  UNL     1       6.444  -2.213   3.381  1.00  0.00    -0.358 N 
HETATM   14  C8  UNL     1       6.533  -2.137   4.759  1.00  0.00     0.247 C 
HETATM   15  O3  UNL     1       7.272  -1.338   5.321  1.00  0.00    -0.271 OA
HETATM   16  H13 UNL     1       5.586  -2.597   2.990  1.00  0.00     0.162 HD
BRANCH  14  17
HETATM   17  C9  UNL     1       5.623  -3.114   5.518  1.00  0.00     0.219 C 
BRANCH  17  18
HETATM   18  C10 UNL     1       6.309  -4.443   5.931  1.00  0.00     0.009 C 
HETATM   19  C11 UNL     1       5.340  -5.633   5.882  1.00  0.00     0.020 C 
HETATM   20  C12 UNL     1       7.507  -4.768   5.016  1.00  0.00     0.020 C 
BRANCH  18  21
HETATM   21  C13 UNL     1       6.805  -4.232   7.390  1.00  0.00     0.192 C 
BRANCH  21  22
HETATM   22  O4  UNL     1       5.923  -4.787   8.344  1.00  0.00    -0.296 OA
BRANCH  22  23
HETATM   23  P1  UNL     1       6.336  -5.998   9.311  1.00  0.00     0.401 P 
HETATM   24  O5  UNL     1       5.374  -7.144   9.302  1.00  0.00    -0.631 OA
BRANCH  23  25
HETATM   25  O6  UNL     1       6.579  -5.365  10.771  1.00  0.00    -0.307 OA
HETATM   26  H23 UNL     1       7.288  -4.709  10.768  1.00  0.00     0.222 HD
ENDBRANCH  23  25
BRANCH  23  27
HETATM   27  O7  UNL     1       7.822  -6.374   8.886  1.00  0.00    -0.195 OA
BRANCH  27  28
HETATM   28  P2  UNL     1       8.786  -7.041   9.965  1.00  0.00     0.401 P 
HETATM   29  O8  UNL     1       9.509  -6.116  10.889  1.00  0.00    -0.631 OA
BRANCH  28  30
HETATM   30  O9  UNL     1       7.837  -8.090  10.705  1.00  0.00    -0.307 OA
HETATM   31  H24 UNL     1       8.036  -8.206  11.666  1.00  0.00     0.222 HD
ENDBRANCH  28  30
BRANCH  28  32
HETATM   32  O10 UNL     1       9.703  -8.027   9.107  1.00  0.00    -0.294 OA
BRANCH  32  33
HETATM   33  C14 UNL     1       9.630  -9.413   9.317  1.00  0.00     0.215 C 
BRANCH  33  34
HETATM   34  C15 UNL     1      10.990  -9.978   8.909  1.00  0.00     0.180 C 
HETATM   35  C16 UNL     1      11.996  -8.844   8.761  1.00  0.00     0.197 C 
HETATM   36  C17 UNL     1      12.410  -8.885   7.303  1.00  0.00     0.199 C 
HETATM   37  C18 UNL     1      12.146 -10.346   6.933  1.00  0.00     0.262 C 
HETATM   38  O11 UNL     1      10.950 -10.689   7.666  1.00  0.00    -0.353 OA
BRANCH  35  39
HETATM   39  O13 UNL     1      13.088  -9.107   9.637  1.00  0.00    -0.286 OA
BRANCH  39  40
HETATM   40  P3  UNL     1      13.439  -7.938  10.670  1.00  0.00     0.391 P 
HETATM   41  O14 UNL     1      14.536  -8.286  11.623  1.00  0.00    -0.632 OA
BRANCH  40  42
HETATM   42  O15 UNL     1      11.993  -7.635  11.283  1.00  0.00    -0.307 OA
HETATM   43  H36 UNL     1      11.369  -8.374  11.085  1.00  0.00     0.222 HD
ENDBRANCH  40  42
BRANCH  40  44
HETATM   44  O16 UNL     1      13.679  -6.711   9.687  1.00  0.00    -0.307 OA
HETATM   45  H37 UNL     1      13.820  -6.987   8.768  1.00  0.00     0.222 HD
ENDBRANCH  40  44
ENDBRANCH  39  40
ENDBRANCH  35  39
BRANCH  36  46
HETATM   46  O12 UNL     1      13.747  -8.401   7.153  1.00  0.00    -0.388 OA
HETATM   47  H35 UNL     1      14.071  -8.193   8.062  1.00  0.00     0.210 HD
ENDBRANCH  36  46
BRANCH  37  48
HETATM   48  N3  UNL     1      11.893 -10.525   5.517  1.00  0.00    -0.297 N 
HETATM   49  C19 UNL     1      10.677 -10.467   4.877  1.00  0.00     0.188 A 
HETATM   50  N4  UNL     1      10.798 -10.545   3.570  1.00  0.00    -0.346 N 
HETATM   51  C20 UNL     1      12.160 -10.654   3.351  1.00  0.00     0.116 A 
HETATM   52  H4  UNL     1      10.054 -10.528   2.872  1.00  0.00     0.167 HD
HETATM   53  C21 UNL     1      12.934 -10.731   2.180  1.00  0.00     0.109 A 
HETATM   54  C23 UNL     1      12.846 -10.683   4.551  1.00  0.00     0.142 A 
HETATM   55  N5  UNL     1      14.279 -10.845   2.298  1.00  0.00    -0.341 N 
HETATM   56  C22 UNL     1      14.810 -10.884   3.536  1.00  0.00     0.183 A 
HETATM   57  H5  UNL     1      14.874 -10.899   1.471  1.00  0.00     0.167 HD
HETATM   58  N6  UNL     1      14.174 -10.810   4.723  1.00  0.00    -0.336 N 
HETATM   59  H6  UNL     1      14.638 -10.846   5.631  1.00  0.00     0.168 HD
BRANCH  53  60
HETATM   60  N7  UNL     1      12.391 -10.706   0.905  1.00  0.00    -0.287 NA
HETATM   61  H33 UNL     1      11.385 -10.559   0.881  1.00  0.00     0.125 HD
HETATM   62  H34 UNL     1      12.760 -11.431   0.305  1.00  0.00     0.125 HD
ENDBRANCH  53  60
ENDBRANCH  37  48
ENDBRANCH  33  34
ENDBRANCH  32  33
ENDBRANCH  28  32
ENDBRANCH  27  28
ENDBRANCH  23  27
ENDBRANCH  22  23
ENDBRANCH  21  22
ENDBRANCH  18  21
ENDBRANCH  17  18
BRANCH  17  63
HETATM   63  O17 UNL     1       5.100  -2.488   6.694  1.00  0.00    -0.385 OA
HETATM   64  H38 UNL     1       4.864  -1.572   6.469  1.00  0.00     0.210 HD
ENDBRANCH  17  63
ENDBRANCH  14  17
ENDBRANCH  12  13
ENDBRANCH  11  12
ENDBRANCH   8  11
ENDBRANCH   6   7
ENDBRANCH   5   6
ENDBRANCH   4   5
ENDBRANCH   2   4
TORSDOF 27
ENDMDL
MODEL 12
REMARK VINA RESULT:      -4.5     10.185     14.641
REMARK  27 active torsions:
REMARK  status: ('A' for Active; 'I' for Inactive)
REMARK    1  A    between atoms: C2_2  and  S1_4 
REMARK    2  A    between atoms: S1_4  and  C3_5 
REMARK    3  A    between atoms: C3_5  and  C4_6 
REMARK    4  A    between atoms: C4_6  and  N1_7 
REMARK       I    between atoms: N1_7  and  C5_8 
REMARK    5  A    between atoms: C5_8  and  C6_10 
REMARK    6  A    between atoms: C6_10  and  C7_11 
REMARK    7  A    between atoms: C7_11  and  N2_12 
REMARK       I    between atoms: N2_12  and  C8_13 
REMARK    8  A    between atoms: C8_13  and  C9_15 
REMARK    9  A    between atoms: C9_15  and  C10_16 
REMARK   10  A    between atoms: C9_15  and  O17_54 
REMARK   11  A    between atoms: C10_16  and  C13_19 
REMARK   12  A    between atoms: C13_19  and  O4_20 
REMARK   13  A    between atoms: O4_20  and  P1_21 
REMARK   14  A    between atoms: P1_21  and  O6_23 
REMARK   15  A    between atoms: P1_21  and  O7_24 
REMARK   16  A    between atoms: O7_24  and  P2_25 
REMARK   17  A    between atoms: P2_25  and  O9_27 
REMARK   18  A    between atoms: P2_25  and  O10_28 
REMARK   19  A    between atoms: O10_28  and  C14_29 
REMARK   20  A    between atoms: C14_29  and  C15_30 
REMARK   21  A    between atoms: C16_31  and  O13_49 
REMARK   22  A    between atoms: C17_32  and  O12_48 
REMARK   23  A    between atoms: C18_33  and  N3_35 
REMARK   24  A    between atoms: C21_40  and  N7_47 
REMARK   25  A    between atoms: O13_49  and  P3_50 
REMARK   26  A    between atoms: P3_50  and  O15_52 
REMARK   27  A    between atoms: P3_50  and  O16_53 
ROOT
HETATM    1  C1  UNL     1      12.136  -4.394  -0.168  1.00  0.00     0.104 C 
HETATM    2  C2  UNL     1      13.092  -3.365  -0.689  1.00  0.00     0.182 C 
HETATM    3  O1  UNL     1      14.277  -3.599  -0.914  1.00  0.00    -0.286 OA
ENDROOT
BRANCH   2   4
HETATM    4  S1  UNL     1      12.388  -1.770  -0.917  1.00  0.00    -0.091 SA
BRANCH   4   5
HETATM    5  C3  UNL     1      10.728  -2.231  -1.511  1.00  0.00     0.102 C 
BRANCH   5   6
HETATM    6  C4  UNL     1       9.850  -1.003  -1.757  1.00  0.00     0.133 C 
BRANCH   6   7
HETATM    7  N1  UNL     1       8.627  -1.026  -0.980  1.00  0.00    -0.360 N 
HETATM    8  C5  UNL     1       8.082   0.123  -0.456  1.00  0.00     0.219 C 
HETATM    9  O2  UNL     1       8.632   1.215  -0.543  1.00  0.00    -0.274 OA
HETATM   10  H8  UNL     1       8.163  -1.911  -0.828  1.00  0.00     0.162 HD
BRANCH   8  11
HETATM   11  C6  UNL     1       6.777  -0.112   0.274  1.00  0.00     0.122 C 
BRANCH  11  12
HETATM   12  C7  UNL     1       6.584  -1.584   0.639  1.00  0.00     0.132 C 
BRANCH  12  13
HETATM   13  N2  UNL     1       6.800  -1.852   2.045  1.00  0.00    -0.358 N 
HETATM   14  C8  UNL     1       7.129  -3.127   2.469  1.00  0.00     0.247 C 
HETATM   15  O3  UNL     1       7.133  -4.086   1.708  1.00  0.00    -0.271 OA
HETATM   16  H13 UNL     1       7.164  -1.072   2.589  1.00  0.00     0.162 HD
BRANCH  14  17
HETATM   17  C9  UNL     1       7.503  -3.235   3.955  1.00  0.00     0.219 C 
BRANCH  17  18
HETATM   18  C10 UNL     1       6.383  -2.795   4.934  1.00  0.00     0.009 C 
HETATM   19  C11 UNL     1       6.831  -1.641   5.843  1.00  0.00     0.020 C 
HETATM   20  C12 UNL     1       5.118  -2.341   4.178  1.00  0.00     0.020 C 
BRANCH  18  21
HETATM   21  C13 UNL     1       6.057  -4.046   5.799  1.00  0.00     0.192 C 
BRANCH  21  22
HETATM   22  O4  UNL     1       6.745  -4.041   7.033  1.00  0.00    -0.296 OA
BRANCH  22  23
HETATM   23  P1  UNL     1       6.253  -4.882   8.308  1.00  0.00     0.401 P 
HETATM   24  O5  UNL     1       4.970  -4.395   8.904  1.00  0.00    -0.631 OA
BRANCH  23  25
HETATM   25  O6  UNL     1       7.481  -4.912   9.347  1.00  0.00    -0.307 OA
HETATM   26  H23 UNL     1       8.203  -4.332   9.072  1.00  0.00     0.222 HD
ENDBRANCH  23  25
BRANCH  23  27
HETATM   27  O7  UNL     1       6.226  -6.394   7.816  1.00  0.00    -0.195 OA
BRANCH  27  28
HETATM   28  P2  UNL     1       6.540  -7.551   8.867  1.00  0.00     0.401 P 
HETATM   29  O8  UNL     1       6.372  -7.215  10.313  1.00  0.00    -0.631 OA
BRANCH  28  30
HETATM   30  O9  UNL     1       5.624  -8.759   8.367  1.00  0.00    -0.307 OA
HETATM   31  H24 UNL     1       5.446  -8.755   7.395  1.00  0.00     0.222 HD
ENDBRANCH  28  30
BRANCH  28  32
HETATM   32  O10 UNL     1       7.984  -8.080   8.436  1.00  0.00    -0.294 OA
BRANCH  32  33
HETATM   33  C14 UNL     1       8.333  -9.422   8.654  1.00  0.00     0.215 C 
BRANCH  33  34
HETATM   34  C15 UNL     1       9.847  -9.506   8.464  1.00  0.00     0.180 C 
HETATM   35  C16 UNL     1      10.438  -8.103   8.415  1.00  0.00     0.197 C 
HETATM   36  C17 UNL     1      11.051  -7.992   7.031  1.00  0.00     0.199 C 
HETATM   37  C18 UNL     1      11.335  -9.456   6.686  1.00  0.00     0.262 C 
HETATM   38  O11 UNL     1      10.222 -10.180   7.257  1.00  0.00    -0.353 OA
BRANCH  35  39
HETATM   39  O13 UNL     1      11.416  -8.001   9.444  1.00  0.00    -0.286 OA
BRANCH  39  40
HETATM   40  P3  UNL     1      10.853  -7.640  10.896  1.00  0.00     0.391 P 
HETATM   41  O14 UNL     1      10.529  -8.836  11.732  1.00  0.00    -0.632 OA
BRANCH  40  42
HETATM   42  O15 UNL     1       9.650  -6.656  10.515  1.00  0.00    -0.307 OA
HETATM   43  H36 UNL     1       9.874  -6.126   9.713  1.00  0.00     0.222 HD
ENDBRANCH  40  42
BRANCH  40  44
HETATM   44  O16 UNL     1      11.975  -6.649  11.432  1.00  0.00    -0.307 OA
HETATM   45  H37 UNL     1      12.579  -6.351  10.734  1.00  0.00     0.222 HD
ENDBRANCH  40  44
ENDBRANCH  39  40
ENDBRANCH  35  39
BRANCH  36  46
HETATM   46  O12 UNL     1      12.164  -7.095   7.052  1.00  0.00    -0.388 OA
HETATM   47  H35 UNL     1      12.891  -7.542   6.557  1.00  0.00     0.210 HD
ENDBRANCH  36  46
BRANCH  37  48
HETATM   48  N3  UNL     1      11.362  -9.695   5.257  1.00  0.00    -0.297 N 
HETATM   49  C19 UNL     1      10.523  -9.159   4.308  1.00  0.00     0.188 A 
HETATM   50  N4  UNL     1      10.888  -9.474   3.084  1.00  0.00    -0.346 N 
HETATM   51  C20 UNL     1      12.023 -10.248   3.247  1.00  0.00     0.116 A 
HETATM   52  H4  UNL     1      10.436  -9.206   2.210  1.00  0.00     0.167 HD
HETATM   53  C21 UNL     1      12.904 -10.851   2.333  1.00  0.00     0.109 A 
HETATM   54  C23 UNL     1      12.305 -10.426   4.589  1.00  0.00     0.142 A 
HETATM   55  N5  UNL     1      13.946 -11.573   2.815  1.00  0.00    -0.341 N 
HETATM   56  C22 UNL     1      14.083 -11.680   4.151  1.00  0.00     0.183 A 
HETATM   57  H5  UNL     1      14.608 -12.022   2.182  1.00  0.00     0.167 HD
HETATM   58  N6  UNL     1      13.313 -11.142   5.119  1.00  0.00    -0.336 N 
HETATM   59  H6  UNL     1      13.472 -11.263   6.119  1.00  0.00     0.168 HD
BRANCH  53  60
HETATM   60  N7  UNL     1      12.759 -10.756   0.958  1.00  0.00    -0.287 NA
HETATM   61  H33 UNL     1      13.587 -11.021   0.430  1.00  0.00     0.125 HD
HETATM   62  H34 UNL     1      12.285  -9.911   0.669  1.00  0.00     0.125 HD
ENDBRANCH  53  60
ENDBRANCH  37  48
ENDBRANCH  33  34
ENDBRANCH  32  33
ENDBRANCH  28  32
ENDBRANCH  27  28
ENDBRANCH  23  27
ENDBRANCH  22  23
ENDBRANCH  21  22
ENDBRANCH  18  21
ENDBRANCH  17  18
BRANCH  17  63
HETATM   63  O17 UNL     1       7.880  -4.580   4.271  1.00  0.00    -0.385 OA
HETATM   64  H38 UNL     1       8.823  -4.686   4.060  1.00  0.00     0.210 HD
ENDBRANCH  17  63
ENDBRANCH  14  17
ENDBRANCH  12  13
ENDBRANCH  11  12
ENDBRANCH   8  11
ENDBRANCH   6   7
ENDBRANCH   5   6
ENDBRANCH   4   5
ENDBRANCH   2   4
TORSDOF 27
ENDMDL
MODEL 13
REMARK VINA RESULT:      -4.4      2.500      5.002
REMARK  27 active torsions:
REMARK  status: ('A' for Active; 'I' for Inactive)
REMARK    1  A    between atoms: C2_2  and  S1_4 
REMARK    2  A    between atoms: S1_4  and  C3_5 
REMARK    3  A    between atoms: C3_5  and  C4_6 
REMARK    4  A    between atoms: C4_6  and  N1_7 
REMARK       I    between atoms: N1_7  and  C5_8 
REMARK    5  A    between atoms: C5_8  and  C6_10 
REMARK    6  A    between atoms: C6_10  and  C7_11 
REMARK    7  A    between atoms: C7_11  and  N2_12 
REMARK       I    between atoms: N2_12  and  C8_13 
REMARK    8  A    between atoms: C8_13  and  C9_15 
REMARK    9  A    between atoms: C9_15  and  C10_16 
REMARK   10  A    between atoms: C9_15  and  O17_54 
REMARK   11  A    between atoms: C10_16  and  C13_19 
REMARK   12  A    between atoms: C13_19  and  O4_20 
REMARK   13  A    between atoms: O4_20  and  P1_21 
REMARK   14  A    between atoms: P1_21  and  O6_23 
REMARK   15  A    between atoms: P1_21  and  O7_24 
REMARK   16  A    between atoms: O7_24  and  P2_25 
REMARK   17  A    between atoms: P2_25  and  O9_27 
REMARK   18  A    between atoms: P2_25  and  O10_28 
REMARK   19  A    between atoms: O10_28  and  C14_29 
REMARK   20  A    between atoms: C14_29  and  C15_30 
REMARK   21  A    between atoms: C16_31  and  O13_49 
REMARK   22  A    between atoms: C17_32  and  O12_48 
REMARK   23  A    between atoms: C18_33  and  N3_35 
REMARK   24  A    between atoms: C21_40  and  N7_47 
REMARK   25  A    between atoms: O13_49  and  P3_50 
REMARK   26  A    between atoms: P3_50  and  O15_52 
REMARK   27  A    between atoms: P3_50  and  O16_53 
ROOT
HETATM    1  C1  UNL     1       7.508  -4.021   4.035  1.00  0.00     0.104 C 
HETATM    2  C2  UNL     1       6.582  -3.941   5.210  1.00  0.00     0.182 C 
HETATM    3  O1  UNL     1       6.335  -2.894   5.803  1.00  0.00    -0.286 OA
ENDROOT
BRANCH   2   4
HETATM    4  S1  UNL     1       5.900  -5.485   5.703  1.00  0.00    -0.091 SA
BRANCH   4   5
HETATM    5  C3  UNL     1       6.572  -5.610   7.392  1.00  0.00     0.102 C 
BRANCH   5   6
HETATM    6  C4  UNL     1       5.772  -4.767   8.387  1.00  0.00     0.133 C 
BRANCH   6   7
HETATM    7  N1  UNL     1       4.346  -4.810   8.138  1.00  0.00    -0.360 N 
HETATM    8  C5  UNL     1       3.600  -3.662   8.002  1.00  0.00     0.219 C 
HETATM    9  O2  UNL     1       4.075  -2.544   8.162  1.00  0.00    -0.274 OA
HETATM   10  H8  UNL     1       3.894  -5.710   8.056  1.00  0.00     0.162 HD
BRANCH   8  11
HETATM   11  C6  UNL     1       2.143  -3.928   7.691  1.00  0.00     0.122 C 
BRANCH  11  12
HETATM   12  C7  UNL     1       1.439  -4.657   8.835  1.00  0.00     0.132 C 
BRANCH  12  13
HETATM   13  N2  UNL     1       0.382  -5.537   8.382  1.00  0.00    -0.358 N 
HETATM   14  C8  UNL     1      -0.353  -6.270   9.294  1.00  0.00     0.247 C 
HETATM   15  O3  UNL     1      -0.071  -6.299  10.486  1.00  0.00    -0.271 OA
HETATM   16  H13 UNL     1      -0.090  -5.250   7.527  1.00  0.00     0.162 HD
BRANCH  14  17
HETATM   17  C9  UNL     1      -1.554  -7.022   8.700  1.00  0.00     0.219 C 
BRANCH  17  18
HETATM   18  C10 UNL     1      -1.466  -8.566   8.814  1.00  0.00     0.009 C 
HETATM   19  C11 UNL     1      -1.839  -9.265   7.498  1.00  0.00     0.020 C 
HETATM   20  C12 UNL     1      -0.047  -9.024   9.209  1.00  0.00     0.020 C 
BRANCH  18  21
HETATM   21  C13 UNL     1      -2.477  -8.970   9.925  1.00  0.00     0.192 C 
BRANCH  21  22
HETATM   22  O4  UNL     1      -3.770  -9.219   9.411  1.00  0.00    -0.296 OA
BRANCH  22  23
HETATM   23  P1  UNL     1      -4.998  -9.683  10.332  1.00  0.00     0.401 P 
HETATM   24  O5  UNL     1      -6.082 -10.399   9.591  1.00  0.00    -0.631 OA
BRANCH  23  25
HETATM   25  O6  UNL     1      -5.506  -8.376  11.123  1.00  0.00    -0.307 OA
HETATM   26  H23 UNL     1      -6.305  -8.003  10.730  1.00  0.00     0.222 HD
ENDBRANCH  23  25
BRANCH  23  27
HETATM   27  O7  UNL     1      -4.334 -10.519  11.511  1.00  0.00    -0.195 OA
BRANCH  27  28
HETATM   28  P2  UNL     1      -5.226 -10.917  12.770  1.00  0.00     0.401 P 
HETATM   29  O8  UNL     1      -6.126  -9.860  13.323  1.00  0.00    -0.631 OA
BRANCH  28  30
HETATM   30  O9  UNL     1      -5.989 -12.231  12.279  1.00  0.00    -0.307 OA
HETATM   31  H24 UNL     1      -6.825 -12.050  11.784  1.00  0.00     0.222 HD
ENDBRANCH  28  30
BRANCH  28  32
HETATM   32  O10 UNL     1      -4.181 -11.551  13.799  1.00  0.00    -0.294 OA
BRANCH  32  33
HETATM   33  C14 UNL     1      -3.644 -10.763  14.829  1.00  0.00     0.215 C 
BRANCH  33  34
HETATM   34  C15 UNL     1      -2.540  -9.922  14.192  1.00  0.00     0.180 C 
HETATM   35  C16 UNL     1      -1.404  -9.724  15.186  1.00  0.00     0.197 C 
HETATM   36  C17 UNL     1      -1.347  -8.225  15.412  1.00  0.00     0.199 C 
HETATM   37  C18 UNL     1      -1.951  -7.680  14.115  1.00  0.00     0.262 C 
HETATM   38  O11 UNL     1      -2.992  -8.626  13.782  1.00  0.00    -0.353 OA
BRANCH  35  39
HETATM   39  O13 UNL     1      -0.209 -10.223  14.596  1.00  0.00    -0.286 OA
BRANCH  39  40
HETATM   40  P3  UNL     1       0.364 -11.572  15.234  1.00  0.00     0.391 P 
HETATM   41  O14 UNL     1      -0.645 -12.340  16.026  1.00  0.00    -0.632 OA
BRANCH  40  42
HETATM   42  O15 UNL     1       1.646 -11.014  16.012  1.00  0.00    -0.307 OA
HETATM   43  H36 UNL     1       2.450 -11.066  15.441  1.00  0.00     0.222 HD
ENDBRANCH  40  42
BRANCH  40  44
HETATM   44  O16 UNL     1       0.995 -12.282  13.959  1.00  0.00    -0.307 OA
HETATM   45  H37 UNL     1       1.881 -11.950  13.743  1.00  0.00     0.222 HD
ENDBRANCH  40  44
ENDBRANCH  39  40
ENDBRANCH  35  39
BRANCH  36  46
HETATM   46  O12 UNL     1      -0.013  -7.822  15.735  1.00  0.00    -0.388 OA
HETATM   47  H35 UNL     1       0.214  -8.270  16.584  1.00  0.00     0.210 HD
ENDBRANCH  36  46
BRANCH  37  48
HETATM   48  N3  UNL     1      -2.549  -6.371  14.287  1.00  0.00    -0.297 N 
HETATM   49  C19 UNL     1      -3.867  -6.028  14.098  1.00  0.00     0.188 A 
HETATM   50  N4  UNL     1      -4.116  -4.788  14.460  1.00  0.00    -0.346 N 
HETATM   51  C20 UNL     1      -2.900  -4.305  14.909  1.00  0.00     0.116 A 
HETATM   52  H4  UNL     1      -5.007  -4.293  14.418  1.00  0.00     0.167 HD
HETATM   53  C21 UNL     1      -2.510  -3.073  15.462  1.00  0.00     0.109 A 
HETATM   54  C23 UNL     1      -1.912  -5.262  14.771  1.00  0.00     0.142 A 
HETATM   55  N5  UNL     1      -1.210  -2.896  15.803  1.00  0.00    -0.341 N 
HETATM   56  C22 UNL     1      -0.351  -3.913  15.589  1.00  0.00     0.183 A 
HETATM   57  H5  UNL     1      -0.890  -2.018  16.210  1.00  0.00     0.167 HD
HETATM   58  N6  UNL     1      -0.609  -5.134  15.077  1.00  0.00    -0.336 N 
HETATM   59  H6  UNL     1       0.091  -5.863  14.940  1.00  0.00     0.168 HD
BRANCH  53  60
HETATM   60  N7  UNL     1      -3.386  -2.019  15.671  1.00  0.00    -0.287 NA
HETATM   61  H33 UNL     1      -4.138  -1.958  14.988  1.00  0.00     0.125 HD
HETATM   62  H34 UNL     1      -2.916  -1.156  15.909  1.00  0.00     0.125 HD
ENDBRANCH  53  60
ENDBRANCH  37  48
ENDBRANCH  33  34
ENDBRANCH  32  33
ENDBRANCH  28  32
ENDBRANCH  27  28
ENDBRANCH  23  27
ENDBRANCH  22  23
ENDBRANCH  21  22
ENDBRANCH  18  21
ENDBRANCH  17  18
BRANCH  17  63
HETATM   63  O17 UNL     1      -2.766  -6.588   9.326  1.00  0.00    -0.385 OA
HETATM   64  H38 UNL     1      -3.513  -6.934   8.809  1.00  0.00     0.210 HD
ENDBRANCH  17  63
ENDBRANCH  14  17
ENDBRANCH  12  13
ENDBRANCH  11  12
ENDBRANCH   8  11
ENDBRANCH   6   7
ENDBRANCH   5   6
ENDBRANCH   4   5
ENDBRANCH   2   4
TORSDOF 27
ENDMDL
MODEL 14
REMARK VINA RESULT:      -4.4      9.976     13.813
REMARK  27 active torsions:
REMARK  status: ('A' for Active; 'I' for Inactive)
REMARK    1  A    between atoms: C2_2  and  S1_4 
REMARK    2  A    between atoms: S1_4  and  C3_5 
REMARK    3  A    between atoms: C3_5  and  C4_6 
REMARK    4  A    between atoms: C4_6  and  N1_7 
REMARK       I    between atoms: N1_7  and  C5_8 
REMARK    5  A    between atoms: C5_8  and  C6_10 
REMARK    6  A    between atoms: C6_10  and  C7_11 
REMARK    7  A    between atoms: C7_11  and  N2_12 
REMARK       I    between atoms: N2_12  and  C8_13 
REMARK    8  A    between atoms: C8_13  and  C9_15 
REMARK    9  A    between atoms: C9_15  and  C10_16 
REMARK   10  A    between atoms: C9_15  and  O17_54 
REMARK   11  A    between atoms: C10_16  and  C13_19 
REMARK   12  A    between atoms: C13_19  and  O4_20 
REMARK   13  A    between atoms: O4_20  and  P1_21 
REMARK   14  A    between atoms: P1_21  and  O6_23 
REMARK   15  A    between atoms: P1_21  and  O7_24 
REMARK   16  A    between atoms: O7_24  and  P2_25 
REMARK   17  A    between atoms: P2_25  and  O9_27 
REMARK   18  A    between atoms: P2_25  and  O10_28 
REMARK   19  A    between atoms: O10_28  and  C14_29 
REMARK   20  A    between atoms: C14_29  and  C15_30 
REMARK   21  A    between atoms: C16_31  and  O13_49 
REMARK   22  A    between atoms: C17_32  and  O12_48 
REMARK   23  A    between atoms: C18_33  and  N3_35 
REMARK   24  A    between atoms: C21_40  and  N7_47 
REMARK   25  A    between atoms: O13_49  and  P3_50 
REMARK   26  A    between atoms: P3_50  and  O15_52 
REMARK   27  A    between atoms: P3_50  and  O16_53 
ROOT
HETATM    1  C1  UNL     1      12.061  -4.351  -0.166  1.00  0.00     0.104 C 
HETATM    2  C2  UNL     1      13.055  -3.297  -0.550  1.00  0.00     0.182 C 
HETATM    3  O1  UNL     1      14.267  -3.495  -0.587  1.00  0.00    -0.286 OA
ENDROOT
BRANCH   2   4
HETATM    4  S1  UNL     1      12.347  -1.729  -0.909  1.00  0.00    -0.091 SA
BRANCH   4   5
HETATM    5  C3  UNL     1      10.706  -2.244  -1.510  1.00  0.00     0.102 C 
BRANCH   5   6
HETATM    6  C4  UNL     1       9.787  -1.047  -1.756  1.00  0.00     0.133 C 
BRANCH   6   7
HETATM    7  N1  UNL     1       8.622  -1.049  -0.895  1.00  0.00    -0.360 N 
HETATM    8  C5  UNL     1       8.093   0.116  -0.389  1.00  0.00     0.219 C 
HETATM    9  O2  UNL     1       8.616   1.210  -0.567  1.00  0.00    -0.274 OA
HETATM   10  H8  UNL     1       8.186  -1.933  -0.669  1.00  0.00     0.162 HD
BRANCH   8  11
HETATM   11  C6  UNL     1       6.847  -0.102   0.441  1.00  0.00     0.122 C 
BRANCH  11  12
HETATM   12  C7  UNL     1       6.605  -1.584   0.729  1.00  0.00     0.132 C 
BRANCH  12  13
HETATM   13  N2  UNL     1       6.778  -1.925   2.125  1.00  0.00    -0.358 N 
HETATM   14  C8  UNL     1       7.104  -3.219   2.491  1.00  0.00     0.247 C 
HETATM   15  O3  UNL     1       7.142  -4.135   1.680  1.00  0.00    -0.271 OA
HETATM   16  H13 UNL     1       7.117  -1.173   2.722  1.00  0.00     0.162 HD
BRANCH  14  17
HETATM   17  C9  UNL     1       7.431  -3.404   3.980  1.00  0.00     0.219 C 
BRANCH  17  18
HETATM   18  C10 UNL     1       6.376  -2.809   4.949  1.00  0.00     0.009 C 
HETATM   19  C11 UNL     1       6.977  -1.738   5.871  1.00  0.00     0.020 C 
HETATM   20  C12 UNL     1       5.201  -2.170   4.182  1.00  0.00     0.020 C 
BRANCH  18  21
HETATM   21  C13 UNL     1       5.859  -4.002   5.802  1.00  0.00     0.192 C 
BRANCH  21  22
HETATM   22  O4  UNL     1       6.559  -4.135   7.023  1.00  0.00    -0.296 OA
BRANCH  22  23
HETATM   23  P1  UNL     1       6.073  -5.105   8.204  1.00  0.00     0.401 P 
HETATM   24  O5  UNL     1       4.611  -5.015   8.508  1.00  0.00    -0.631 OA
BRANCH  23  25
HETATM   25  O6  UNL     1       7.020  -4.804   9.471  1.00  0.00    -0.307 OA
HETATM   26  H23 UNL     1       6.814  -3.955   9.883  1.00  0.00     0.222 HD
ENDBRANCH  23  25
BRANCH  23  27
HETATM   27  O7  UNL     1       6.576  -6.553   7.779  1.00  0.00    -0.195 OA
BRANCH  27  28
HETATM   28  P2  UNL     1       6.537  -7.728   8.855  1.00  0.00     0.401 P 
HETATM   29  O8  UNL     1       6.136  -7.359  10.246  1.00  0.00    -0.631 OA
BRANCH  28  30
HETATM   30  O9  UNL     1       5.591  -8.818   8.172  1.00  0.00    -0.307 OA
HETATM   31  H24 UNL     1       5.609  -8.806   7.184  1.00  0.00     0.222 HD
ENDBRANCH  28  30
BRANCH  28  32
HETATM   32  O10 UNL     1       7.959  -8.437   8.704  1.00  0.00    -0.294 OA
BRANCH  32  33
HETATM   33  C14 UNL     1       8.232  -9.621   9.408  1.00  0.00     0.215 C 
BRANCH  33  34
HETATM   34  C15 UNL     1       9.571  -9.400  10.111  1.00  0.00     0.180 C 
HETATM   35  C16 UNL     1       9.530  -8.096  10.898  1.00  0.00     0.197 C 
HETATM   36  C17 UNL     1      10.603  -7.231  10.264  1.00  0.00     0.199 C 
HETATM   37  C18 UNL     1      11.550  -8.276   9.669  1.00  0.00     0.262 C 
HETATM   38  O11 UNL     1      10.674  -9.326   9.201  1.00  0.00    -0.353 OA
BRANCH  35  39
HETATM   39  O13 UNL     1       9.817  -8.395  12.260  1.00  0.00    -0.286 OA
BRANCH  39  40
HETATM   40  P3  UNL     1       8.738  -7.877  13.321  1.00  0.00     0.391 P 
HETATM   41  O14 UNL     1       9.082  -8.203  14.738  1.00  0.00    -0.632 OA
BRANCH  40  42
HETATM   42  O15 UNL     1       7.398  -8.510  12.719  1.00  0.00    -0.307 OA
HETATM   43  H36 UNL     1       6.670  -8.483  13.384  1.00  0.00     0.222 HD
ENDBRANCH  40  42
BRANCH  40  44
HETATM   44  O16 UNL     1       8.621  -6.341  12.927  1.00  0.00    -0.307 OA
HETATM   45  H37 UNL     1       9.442  -5.848  13.084  1.00  0.00     0.222 HD
ENDBRANCH  40  44
ENDBRANCH  39  40
ENDBRANCH  35  39
BRANCH  36  46
HETATM   46  O12 UNL     1      11.146  -6.328  11.230  1.00  0.00    -0.388 OA
HETATM   47  H35 UNL     1      11.144  -6.808  12.092  1.00  0.00     0.210 HD
ENDBRANCH  36  46
BRANCH  37  48
HETATM   48  N3  UNL     1      12.306  -7.764   8.543  1.00  0.00    -0.297 N 
HETATM   49  C19 UNL     1      13.636  -7.415   8.525  1.00  0.00     0.188 A 
HETATM   50  N4  UNL     1      14.054  -7.106   7.317  1.00  0.00    -0.346 N 
HETATM   51  C20 UNL     1      12.941  -7.267   6.511  1.00  0.00     0.116 A 
HETATM   52  H4  UNL     1      14.990  -6.813   7.036  1.00  0.00     0.167 HD
HETATM   53  C21 UNL     1      12.741  -7.135   5.126  1.00  0.00     0.109 A 
HETATM   54  C23 UNL     1      11.842  -7.637   7.264  1.00  0.00     0.142 A 
HETATM   55  N5  UNL     1      11.500  -7.356   4.626  1.00  0.00    -0.341 N 
HETATM   56  C22 UNL     1      10.516  -7.688   5.484  1.00  0.00     0.183 A 
HETATM   57  H5  UNL     1      11.317  -7.274   3.626  1.00  0.00     0.167 HD
HETATM   58  N6  UNL     1      10.590  -7.852   6.821  1.00  0.00    -0.336 N 
HETATM   59  H6  UNL     1       9.802  -8.105   7.417  1.00  0.00     0.168 HD
BRANCH  53  60
HETATM   60  N7  UNL     1      13.746  -6.780   4.240  1.00  0.00    -0.287 NA
HETATM   61  H33 UNL     1      14.426  -6.126   4.620  1.00  0.00     0.125 HD
HETATM   62  H34 UNL     1      13.402  -6.591   3.308  1.00  0.00     0.125 HD
ENDBRANCH  53  60
ENDBRANCH  37  48
ENDBRANCH  33  34
ENDBRANCH  32  33
ENDBRANCH  28  32
ENDBRANCH  27  28
ENDBRANCH  23  27
ENDBRANCH  22  23
ENDBRANCH  21  22
ENDBRANCH  18  21
ENDBRANCH  17  18
BRANCH  17  63
HETATM   63  O17 UNL     1       7.591  -4.795   4.280  1.00  0.00    -0.385 OA
HETATM   64  H38 UNL     1       6.843  -5.276   3.888  1.00  0.00     0.210 HD
ENDBRANCH  17  63
ENDBRANCH  14  17
ENDBRANCH  12  13
ENDBRANCH  11  12
ENDBRANCH   8  11
ENDBRANCH   6   7
ENDBRANCH   5   6
ENDBRANCH   4   5
ENDBRANCH   2   4
TORSDOF 27
ENDMDL
MODEL 15
REMARK VINA RESULT:      -4.2      7.243     13.083
REMARK  27 active torsions:
REMARK  status: ('A' for Active; 'I' for Inactive)
REMARK    1  A    between atoms: C2_2  and  S1_4 
REMARK    2  A    between atoms: S1_4  and  C3_5 
REMARK    3  A    between atoms: C3_5  and  C4_6 
REMARK    4  A    between atoms: C4_6  and  N1_7 
REMARK       I    between atoms: N1_7  and  C5_8 
REMARK    5  A    between atoms: C5_8  and  C6_10 
REMARK    6  A    between atoms: C6_10  and  C7_11 
REMARK    7  A    between atoms: C7_11  and  N2_12 
REMARK       I    between atoms: N2_12  and  C8_13 
REMARK    8  A    between atoms: C8_13  and  C9_15 
REMARK    9  A    between atoms: C9_15  and  C10_16 
REMARK   10  A    between atoms: C9_15  and  O17_54 
REMARK   11  A    between atoms: C10_16  and  C13_19 
REMARK   12  A    between atoms: C13_19  and  O4_20 
REMARK   13  A    between atoms: O4_20  and  P1_21 
REMARK   14  A    between atoms: P1_21  and  O6_23 
REMARK   15  A    between atoms: P1_21  and  O7_24 
REMARK   16  A    between atoms: O7_24  and  P2_25 
REMARK   17  A    between atoms: P2_25  and  O9_27 
REMARK   18  A    between atoms: P2_25  and  O10_28 
REMARK   19  A    between atoms: O10_28  and  C14_29 
REMARK   20  A    between atoms: C14_29  and  C15_30 
REMARK   21  A    between atoms: C16_31  and  O13_49 
REMARK   22  A    between atoms: C17_32  and  O12_48 
REMARK   23  A    between atoms: C18_33  and  N3_35 
REMARK   24  A    between atoms: C21_40  and  N7_47 
REMARK   25  A    between atoms: O13_49  and  P3_50 
REMARK   26  A    between atoms: P3_50  and  O15_52 
REMARK   27  A    between atoms: P3_50  and  O16_53 
ROOT
HETATM    1  C1  UNL     1      -1.056  -3.213  14.317  1.00  0.00     0.104 C 
HETATM    2  C2  UNL     1      -1.726  -4.149  13.359  1.00  0.00     0.182 C 
HETATM    3  O1  UNL     1      -2.850  -4.610  13.541  1.00  0.00    -0.286 OA
ENDROOT
BRANCH   2   4
HETATM    4  S1  UNL     1      -0.751  -4.573  11.958  1.00  0.00    -0.091 SA
BRANCH   4   5
HETATM    5  C3  UNL     1      -1.061  -6.367  11.878  1.00  0.00     0.102 C 
BRANCH   5   6
HETATM    6  C4  UNL     1      -1.192  -6.859  10.436  1.00  0.00     0.133 C 
BRANCH   6   7
HETATM    7  N1  UNL     1      -0.426  -8.062  10.183  1.00  0.00    -0.360 N 
HETATM    8  C5  UNL     1       0.897  -8.013   9.811  1.00  0.00     0.219 C 
HETATM    9  O2  UNL     1       1.483  -6.959   9.593  1.00  0.00    -0.274 OA
HETATM   10  H8  UNL     1      -0.880  -8.960  10.293  1.00  0.00     0.162 HD
BRANCH   8  11
HETATM   11  C6  UNL     1       1.526  -9.381   9.652  1.00  0.00     0.122 C 
BRANCH  11  12
HETATM   12  C7  UNL     1       2.978  -9.400  10.127  1.00  0.00     0.132 C 
BRANCH  12  13
HETATM   13  N2  UNL     1       3.881  -8.723   9.221  1.00  0.00    -0.358 N 
HETATM   14  C8  UNL     1       5.105  -8.264   9.671  1.00  0.00     0.247 C 
HETATM   15  O3  UNL     1       5.421  -8.302  10.853  1.00  0.00    -0.271 OA
HETATM   16  H13 UNL     1       3.822  -9.012   8.246  1.00  0.00     0.162 HD
BRANCH  14  17
HETATM   17  C9  UNL     1       6.035  -7.726   8.573  1.00  0.00     0.219 C 
BRANCH  17  18
HETATM   18  C10 UNL     1       6.171  -6.181   8.544  1.00  0.00     0.009 C 
HETATM   19  C11 UNL     1       4.821  -5.479   8.753  1.00  0.00     0.020 C 
HETATM   20  C12 UNL     1       7.141  -5.679   9.632  1.00  0.00     0.020 C 
BRANCH  18  21
HETATM   21  C13 UNL     1       6.732  -5.828   7.137  1.00  0.00     0.192 C 
BRANCH  21  22
HETATM   22  O4  UNL     1       6.922  -4.438   6.967  1.00  0.00    -0.296 OA
BRANCH  22  23
HETATM   23  P1  UNL     1       5.880  -3.506   6.183  1.00  0.00     0.401 P 
HETATM   24  O5  UNL     1       5.333  -2.377   6.999  1.00  0.00    -0.631 OA
BRANCH  23  25
HETATM   25  O6  UNL     1       4.748  -4.479   5.579  1.00  0.00    -0.307 OA
HETATM   26  H23 UNL     1       4.790  -5.364   5.963  1.00  0.00     0.222 HD
ENDBRANCH  23  25
BRANCH  23  27
HETATM   27  O7  UNL     1       6.642  -3.060   4.859  1.00  0.00    -0.195 OA
BRANCH  27  28
HETATM   28  P2  UNL     1       7.377  -4.170   3.983  1.00  0.00     0.401 P 
HETATM   29  O8  UNL     1       8.780  -4.514   4.365  1.00  0.00    -0.631 OA
BRANCH  28  30
HETATM   30  O9  UNL     1       6.367  -5.405   4.034  1.00  0.00    -0.307 OA
HETATM   31  H24 UNL     1       5.550  -5.238   4.565  1.00  0.00     0.222 HD
ENDBRANCH  28  30
BRANCH  28  32
HETATM   32  O10 UNL     1       7.164  -3.678   2.479  1.00  0.00    -0.294 OA
BRANCH  32  33
HETATM   33  C14 UNL     1       6.523  -2.456   2.224  1.00  0.00     0.215 C 
BRANCH  33  34
HETATM   34  C15 UNL     1       6.373  -2.361   0.706  1.00  0.00     0.180 C 
HETATM   35  C16 UNL     1       7.138  -1.151   0.187  1.00  0.00     0.197 C 
HETATM   36  C17 UNL     1       6.077  -0.261  -0.431  1.00  0.00     0.199 C 
HETATM   37  C18 UNL     1       4.982  -1.268  -0.792  1.00  0.00     0.262 C 
HETATM   38  O11 UNL     1       5.010  -2.228   0.286  1.00  0.00    -0.353 OA
BRANCH  35  39
HETATM   39  O13 UNL     1       8.084  -1.607  -0.775  1.00  0.00    -0.286 OA
BRANCH  39  40
HETATM   40  P3  UNL     1       9.212  -0.551  -1.185  1.00  0.00     0.391 P 
HETATM   41  O14 UNL     1       9.240   0.668  -0.321  1.00  0.00    -0.632 OA
BRANCH  40  42
HETATM   42  O15 UNL     1       8.884  -0.350  -2.738  1.00  0.00    -0.307 OA
HETATM   43  H36 UNL     1       7.954  -0.617  -2.935  1.00  0.00     0.222 HD
ENDBRANCH  40  42
BRANCH  40  44
HETATM   44  O16 UNL     1      10.510  -1.469  -1.206  1.00  0.00    -0.307 OA
HETATM   45  H37 UNL     1      10.632  -1.968  -0.382  1.00  0.00     0.222 HD
ENDBRANCH  40  44
ENDBRANCH  39  40
ENDBRANCH  35  39
BRANCH  36  46
HETATM   46  O12 UNL     1       6.636   0.512  -1.496  1.00  0.00    -0.388 OA
HETATM   47  H35 UNL     1       7.211  -0.102  -2.012  1.00  0.00     0.210 HD
ENDBRANCH  36  46
BRANCH  37  48
HETATM   48  N3  UNL     1       3.666  -0.664  -0.844  1.00  0.00    -0.297 N 
HETATM   49  C19 UNL     1       3.361   0.639  -1.162  1.00  0.00     0.188 A 
HETATM   50  N4  UNL     1       2.064   0.842  -1.244  1.00  0.00    -0.346 N 
HETATM   51  C20 UNL     1       1.500  -0.391  -0.972  1.00  0.00     0.116 A 
HETATM   52  H4  UNL     1       1.582   1.714  -1.461  1.00  0.00     0.167 HD
HETATM   53  C21 UNL     1       0.170  -0.846  -0.944  1.00  0.00     0.109 A 
HETATM   54  C23 UNL     1       2.480  -1.324  -0.684  1.00  0.00     0.142 A 
HETATM   55  N5  UNL     1      -0.067  -2.142  -0.624  1.00  0.00    -0.341 N 
HETATM   56  C22 UNL     1       0.988  -2.932  -0.343  1.00  0.00     0.183 A 
HETATM   57  H5  UNL     1      -1.018  -2.508  -0.597  1.00  0.00     0.167 HD
HETATM   58  N6  UNL     1       2.299  -2.613  -0.346  1.00  0.00    -0.336 N 
HETATM   59  H6  UNL     1       3.052  -3.263  -0.121  1.00  0.00     0.168 HD
BRANCH  53  60
HETATM   60  N7  UNL     1      -0.919  -0.033  -1.218  1.00  0.00    -0.287 NA
HETATM   61  H33 UNL     1      -1.141   0.049  -2.207  1.00  0.00     0.125 HD
HETATM   62  H34 UNL     1      -0.919   0.821  -0.678  1.00  0.00     0.125 HD
ENDBRANCH  53  60
ENDBRANCH  37  48
ENDBRANCH  33  34
ENDBRANCH  32  33
ENDBRANCH  28  32
ENDBRANCH  27  28
ENDBRANCH  23  27
ENDBRANCH  22  23
ENDBRANCH  21  22
ENDBRANCH  18  21
ENDBRANCH  17  18
BRANCH  17  63
HETATM   63  O17 UNL     1       7.342  -8.295   8.711  1.00  0.00    -0.385 OA
HETATM   64  H38 UNL     1       7.359  -8.814   9.533  1.00  0.00     0.210 HD
ENDBRANCH  17  63
ENDBRANCH  14  17
ENDBRANCH  12  13
ENDBRANCH  11  12
ENDBRANCH   8  11
ENDBRANCH   6   7
ENDBRANCH   5   6
ENDBRANCH   4   5
ENDBRANCH   2   4
TORSDOF 27
ENDMDL
MODEL 16
REMARK VINA RESULT:      -4.1      7.631     13.292
REMARK  27 active torsions:
REMARK  status: ('A' for Active; 'I' for Inactive)
REMARK    1  A    between atoms: C2_2  and  S1_4 
REMARK    2  A    between atoms: S1_4  and  C3_5 
REMARK    3  A    between atoms: C3_5  and  C4_6 
REMARK    4  A    between atoms: C4_6  and  N1_7 
REMARK       I    between atoms: N1_7  and  C5_8 
REMARK    5  A    between atoms: C5_8  and  C6_10 
REMARK    6  A    between atoms: C6_10  and  C7_11 
REMARK    7  A    between atoms: C7_11  and  N2_12 
REMARK       I    between atoms: N2_12  and  C8_13 
REMARK    8  A    between atoms: C8_13  and  C9_15 
REMARK    9  A    between atoms: C9_15  and  C10_16 
REMARK   10  A    between atoms: C9_15  and  O17_54 
REMARK   11  A    between atoms: C10_16  and  C13_19 
REMARK   12  A    between atoms: C13_19  and  O4_20 
REMARK   13  A    between atoms: O4_20  and  P1_21 
REMARK   14  A    between atoms: P1_21  and  O6_23 
REMARK   15  A    between atoms: P1_21  and  O7_24 
REMARK   16  A    between atoms: O7_24  and  P2_25 
REMARK   17  A    between atoms: P2_25  and  O9_27 
REMARK   18  A    between atoms: P2_25  and  O10_28 
REMARK   19  A    between atoms: O10_28  and  C14_29 
REMARK   20  A    between atoms: C14_29  and  C15_30 
REMARK   21  A    between atoms: C16_31  and  O13_49 
REMARK   22  A    between atoms: C17_32  and  O12_48 
REMARK   23  A    between atoms: C18_33  and  N3_35 
REMARK   24  A    between atoms: C21_40  and  N7_47 
REMARK   25  A    between atoms: O13_49  and  P3_50 
REMARK   26  A    between atoms: P3_50  and  O15_52 
REMARK   27  A    between atoms: P3_50  and  O16_53 
ROOT
HETATM    1  C1  UNL     1      -0.437  -4.902  14.127  1.00  0.00     0.104 C 
HETATM    2  C2  UNL     1       0.172  -5.213  15.461  1.00  0.00     0.182 C 
HETATM    3  O1  UNL     1       0.742  -4.374  16.154  1.00  0.00    -0.286 OA
ENDROOT
BRANCH   2   4
HETATM    4  S1  UNL     1       0.040  -6.899  15.943  1.00  0.00    -0.091 SA
BRANCH   4   5
HETATM    5  C3  UNL     1       1.800  -7.373  15.945  1.00  0.00     0.102 C 
BRANCH   5   6
HETATM    6  C4  UNL     1       2.390  -7.381  14.533  1.00  0.00     0.133 C 
BRANCH   6   7
HETATM    7  N1  UNL     1       3.519  -8.280  14.404  1.00  0.00    -0.360 N 
HETATM    8  C5  UNL     1       4.810  -7.813  14.321  1.00  0.00     0.219 C 
HETATM    9  O2  UNL     1       5.077  -6.618  14.270  1.00  0.00    -0.274 OA
HETATM   10  H8  UNL     1       3.347  -9.276  14.382  1.00  0.00     0.162 HD
BRANCH   8  11
HETATM   11  C6  UNL     1       5.843  -8.917  14.248  1.00  0.00     0.122 C 
BRANCH  11  12
HETATM   12  C7  UNL     1       6.443  -9.044  12.848  1.00  0.00     0.132 C 
BRANCH  12  13
HETATM   13  N2  UNL     1       6.453  -7.793  12.119  1.00  0.00    -0.358 N 
HETATM   14  C8  UNL     1       7.623  -7.332  11.543  1.00  0.00     0.247 C 
HETATM   15  O3  UNL     1       8.700  -7.886  11.722  1.00  0.00    -0.271 OA
HETATM   16  H13 UNL     1       5.579  -7.548  11.659  1.00  0.00     0.162 HD
BRANCH  14  17
HETATM   17  C9  UNL     1       7.457  -6.091  10.653  1.00  0.00     0.219 C 
BRANCH  17  18
HETATM   18  C10 UNL     1       7.124  -6.404   9.170  1.00  0.00     0.009 C 
HETATM   19  C11 UNL     1       8.152  -7.350   8.534  1.00  0.00     0.020 C 
HETATM   20  C12 UNL     1       5.731  -7.050   9.028  1.00  0.00     0.020 C 
BRANCH  18  21
HETATM   21  C13 UNL     1       7.145  -5.035   8.431  1.00  0.00     0.192 C 
BRANCH  21  22
HETATM   22  O4  UNL     1       6.082  -4.905   7.509  1.00  0.00    -0.296 OA
BRANCH  22  23
HETATM   23  P1  UNL     1       6.289  -4.996   5.921  1.00  0.00     0.401 P 
HETATM   24  O5  UNL     1       5.412  -6.002   5.246  1.00  0.00    -0.631 OA
BRANCH  23  25
HETATM   25  O6  UNL     1       7.862  -5.232   5.671  1.00  0.00    -0.307 OA
HETATM   26  H23 UNL     1       8.295  -5.626   6.439  1.00  0.00     0.222 HD
ENDBRANCH  23  25
BRANCH  23  27
HETATM   27  O7  UNL     1       6.114  -3.503   5.398  1.00  0.00    -0.195 OA
BRANCH  27  28
HETATM   28  P2  UNL     1       7.031  -2.996   4.198  1.00  0.00     0.401 P 
HETATM   29  O8  UNL     1       8.345  -2.385   4.561  1.00  0.00    -0.631 OA
BRANCH  28  30
HETATM   30  O9  UNL     1       7.147  -4.281   3.257  1.00  0.00    -0.307 OA
HETATM   31  H24 UNL     1       6.785  -4.149   2.347  1.00  0.00     0.222 HD
ENDBRANCH  28  30
BRANCH  28  32
HETATM   32  O10 UNL     1       6.054  -2.081   3.326  1.00  0.00    -0.294 OA
BRANCH  32  33
HETATM   33  C14 UNL     1       6.583  -1.083   2.494  1.00  0.00     0.215 C 
BRANCH  33  34
HETATM   34  C15 UNL     1       6.326  -1.542   1.060  1.00  0.00     0.180 C 
HETATM   35  C16 UNL     1       6.983  -0.575   0.084  1.00  0.00     0.197 C 
HETATM   36  C17 UNL     1       5.832   0.002  -0.719  1.00  0.00     0.199 C 
HETATM   37  C18 UNL     1       4.776  -1.101  -0.607  1.00  0.00     0.262 C 
HETATM   38  O11 UNL     1       4.933  -1.610   0.736  1.00  0.00    -0.353 OA
BRANCH  35  39
HETATM   39  O13 UNL     1       7.887  -1.315  -0.730  1.00  0.00    -0.286 OA
BRANCH  39  40
HETATM   40  P3  UNL     1       9.153  -0.501  -1.270  1.00  0.00     0.391 P 
HETATM   41  O14 UNL     1       9.419   0.765  -0.521  1.00  0.00    -0.632 OA
BRANCH  40  42
HETATM   42  O15 UNL     1       8.791  -0.381  -2.823  1.00  0.00    -0.307 OA
HETATM   43  H36 UNL     1       9.098  -1.179  -3.316  1.00  0.00     0.222 HD
ENDBRANCH  40  42
BRANCH  40  44
HETATM   44  O16 UNL     1      10.281  -1.621  -1.246  1.00  0.00    -0.307 OA
HETATM   45  H37 UNL     1       9.921  -2.519  -1.322  1.00  0.00     0.222 HD
ENDBRANCH  40  44
ENDBRANCH  39  40
ENDBRANCH  35  39
BRANCH  36  46
HETATM   46  O12 UNL     1       6.272   0.359  -2.031  1.00  0.00    -0.388 OA
HETATM   47  H35 UNL     1       5.495   0.239  -2.628  1.00  0.00     0.210 HD
ENDBRANCH  36  46
BRANCH  37  48
HETATM   48  N3  UNL     1       3.426  -0.596  -0.760  1.00  0.00    -0.297 N 
HETATM   49  C19 UNL     1       3.050   0.684  -1.092  1.00  0.00     0.188 A 
HETATM   50  N4  UNL     1       1.752   0.791  -1.276  1.00  0.00    -0.346 N 
HETATM   51  C20 UNL     1       1.263  -0.485  -1.056  1.00  0.00     0.116 A 
HETATM   52  H4  UNL     1       1.223   1.626  -1.525  1.00  0.00     0.167 HD
HETATM   53  C21 UNL     1      -0.027  -1.038  -1.137  1.00  0.00     0.109 A 
HETATM   54  C23 UNL     1       2.284  -1.345  -0.698  1.00  0.00     0.142 A 
HETATM   55  N5  UNL     1      -0.190  -2.352  -0.845  1.00  0.00    -0.341 N 
HETATM   56  C22 UNL     1       0.896  -3.065  -0.486  1.00  0.00     0.183 A 
HETATM   57  H5  UNL     1      -1.110  -2.789  -0.896  1.00  0.00     0.167 HD
HETATM   58  N6  UNL     1       2.175  -2.649  -0.383  1.00  0.00    -0.336 N 
HETATM   59  H6  UNL     1       2.956  -3.243  -0.104  1.00  0.00     0.168 HD
BRANCH  53  60
HETATM   60  N7  UNL     1      -1.149  -0.306  -1.492  1.00  0.00    -0.287 NA
HETATM   61  H33 UNL     1      -1.654  -0.675  -2.294  1.00  0.00     0.125 HD
HETATM   62  H34 UNL     1      -0.991   0.692  -1.473  1.00  0.00     0.125 HD
ENDBRANCH  53  60
ENDBRANCH  37  48
ENDBRANCH  33  34
ENDBRANCH  32  33
ENDBRANCH  28  32
ENDBRANCH  27  28
ENDBRANCH  23  27
ENDBRANCH  22  23
ENDBRANCH  21  22
ENDBRANCH  18  21
ENDBRANCH  17  18
BRANCH  17  63
HETATM   63  O17 UNL     1       6.432  -5.241  11.179  1.00  0.00    -0.385 OA
HETATM   64  H38 UNL     1       5.591  -5.726  11.147  1.00  0.00     0.210 HD
ENDBRANCH  17  63
ENDBRANCH  14  17
ENDBRANCH  12  13
ENDBRANCH  11  12
ENDBRANCH   8  11
ENDBRANCH   6   7
ENDBRANCH   5   6
ENDBRANCH   4   5
ENDBRANCH   2   4
TORSDOF 27
ENDMDL
MODEL 17
REMARK VINA RESULT:      -4.1      4.260      7.633
REMARK  27 active torsions:
REMARK  status: ('A' for Active; 'I' for Inactive)
REMARK    1  A    between atoms: C2_2  and  S1_4 
REMARK    2  A    between atoms: S1_4  and  C3_5 
REMARK    3  A    between atoms: C3_5  and  C4_6 
REMARK    4  A    between atoms: C4_6  and  N1_7 
REMARK       I    between atoms: N1_7  and  C5_8 
REMARK    5  A    between atoms: C5_8  and  C6_10 
REMARK    6  A    between atoms: C6_10  and  C7_11 
REMARK    7  A    between atoms: C7_11  and  N2_12 
REMARK       I    between atoms: N2_12  and  C8_13 
REMARK    8  A    between atoms: C8_13  and  C9_15 
REMARK    9  A    between atoms: C9_15  and  C10_16 
REMARK   10  A    between atoms: C9_15  and  O17_54 
REMARK   11  A    between atoms: C10_16  and  C13_19 
REMARK   12  A    between atoms: C13_19  and  O4_20 
REMARK   13  A    between atoms: O4_20  and  P1_21 
REMARK   14  A    between atoms: P1_21  and  O6_23 
REMARK   15  A    between atoms: P1_21  and  O7_24 
REMARK   16  A    between atoms: O7_24  and  P2_25 
REMARK   17  A    between atoms: P2_25  and  O9_27 
REMARK   18  A    between atoms: P2_25  and  O10_28 
REMARK   19  A    between atoms: O10_28  and  C14_29 
REMARK   20  A    between atoms: C14_29  and  C15_30 
REMARK   21  A    between atoms: C16_31  and  O13_49 
REMARK   22  A    between atoms: C17_32  and  O12_48 
REMARK   23  A    between atoms: C18_33  and  N3_35 
REMARK   24  A    between atoms: C21_40  and  N7_47 
REMARK   25  A    between atoms: O13_49  and  P3_50 
REMARK   26  A    between atoms: P3_50  and  O15_52 
REMARK   27  A    between atoms: P3_50  and  O16_53 
ROOT
HETATM    1  C1  UNL     1       2.669  -1.136  -0.917  1.00  0.00     0.104 C 
HETATM    2  C2  UNL     1       4.143  -1.054  -0.663  1.00  0.00     0.182 C 
HETATM    3  O1  UNL     1       4.895  -0.311  -1.288  1.00  0.00    -0.286 OA
ENDROOT
BRANCH   2   4
HETATM    4  S1  UNL     1       4.726  -2.147   0.586  1.00  0.00    -0.091 SA
BRANCH   4   5
HETATM    5  C3  UNL     1       6.395  -1.469   0.856  1.00  0.00     0.102 C 
BRANCH   5   6
HETATM    6  C4  UNL     1       6.739  -1.377   2.343  1.00  0.00     0.133 C 
BRANCH   6   7
HETATM    7  N1  UNL     1       6.750  -2.670   2.996  1.00  0.00    -0.360 N 
HETATM    8  C5  UNL     1       6.713  -2.790   4.366  1.00  0.00     0.219 C 
HETATM    9  O2  UNL     1       6.750  -1.821   5.114  1.00  0.00    -0.274 OA
HETATM   10  H8  UNL     1       6.779  -3.504   2.424  1.00  0.00     0.162 HD
BRANCH   8  11
HETATM   11  C6  UNL     1       6.676  -4.227   4.840  1.00  0.00     0.122 C 
BRANCH  11  12
HETATM   12  C7  UNL     1       6.808  -4.330   6.359  1.00  0.00     0.132 C 
BRANCH  12  13
HETATM   13  N2  UNL     1       5.978  -5.368   6.932  1.00  0.00    -0.358 N 
HETATM   14  C8  UNL     1       6.556  -6.455   7.563  1.00  0.00     0.247 C 
HETATM   15  O3  UNL     1       7.766  -6.642   7.559  1.00  0.00    -0.271 OA
HETATM   16  H13 UNL     1       5.068  -5.064   7.271  1.00  0.00     0.162 HD
BRANCH  14  17
HETATM   17  C9  UNL     1       5.567  -7.386   8.278  1.00  0.00     0.219 C 
BRANCH  17  18
HETATM   18  C10 UNL     1       6.197  -8.255   9.398  1.00  0.00     0.009 C 
HETATM   19  C11 UNL     1       7.152  -9.319   8.836  1.00  0.00     0.020 C 
HETATM   20  C12 UNL     1       6.985  -7.394  10.406  1.00  0.00     0.020 C 
BRANCH  18  21
HETATM   21  C13 UNL     1       5.007  -8.950  10.120  1.00  0.00     0.192 C 
BRANCH  21  22
HETATM   22  O4  UNL     1       3.962  -9.288   9.231  1.00  0.00    -0.296 OA
BRANCH  22  23
HETATM   23  P1  UNL     1       2.560  -9.891   9.724  1.00  0.00     0.401 P 
HETATM   24  O5  UNL     1       2.509 -10.204  11.187  1.00  0.00    -0.631 OA
BRANCH  23  25
HETATM   25  O6  UNL     1       2.237 -11.153   8.779  1.00  0.00    -0.307 OA
HETATM   26  H23 UNL     1       2.306 -10.930   7.842  1.00  0.00     0.222 HD
ENDBRANCH  23  25
BRANCH  23  27
HETATM   27  O7  UNL     1       1.467  -8.846   9.230  1.00  0.00    -0.195 OA
BRANCH  27  28
HETATM   28  P2  UNL     1      -0.062  -9.096   9.604  1.00  0.00     0.401 P 
HETATM   29  O8  UNL     1      -1.060  -8.948   8.503  1.00  0.00    -0.631 OA
BRANCH  28  30
HETATM   30  O9  UNL     1      -0.043 -10.543  10.277  1.00  0.00    -0.307 OA
HETATM   31  H24 UNL     1      -0.528 -11.234   9.762  1.00  0.00     0.222 HD
ENDBRANCH  28  30
BRANCH  28  32
HETATM   32  O10 UNL     1      -0.299  -8.178  10.889  1.00  0.00    -0.294 OA
BRANCH  32  33
HETATM   33  C14 UNL     1      -1.321  -8.493  11.798  1.00  0.00     0.215 C 
BRANCH  33  34
HETATM   34  C15 UNL     1      -2.430  -7.468  11.565  1.00  0.00     0.180 C 
HETATM   35  C16 UNL     1      -2.381  -6.400  12.649  1.00  0.00     0.197 C 
HETATM   36  C17 UNL     1      -3.710  -6.523  13.370  1.00  0.00     0.199 C 
HETATM   37  C18 UNL     1      -4.607  -7.136  12.292  1.00  0.00     0.262 C 
HETATM   38  O11 UNL     1      -3.740  -8.049  11.584  1.00  0.00    -0.353 OA
BRANCH  35  39
HETATM   39  O13 UNL     1      -2.229  -5.135  12.015  1.00  0.00    -0.286 OA
BRANCH  39  40
HETATM   40  P3  UNL     1      -1.074  -4.201  12.608  1.00  0.00     0.391 P 
HETATM   41  O14 UNL     1      -1.547  -3.253  13.662  1.00  0.00    -0.632 OA
BRANCH  40  42
HETATM   42  O15 UNL     1      -0.476  -3.575  11.262  1.00  0.00    -0.307 OA
HETATM   43  H36 UNL     1       0.320  -4.077  10.968  1.00  0.00     0.222 HD
ENDBRANCH  40  42
BRANCH  40  44
HETATM   44  O16 UNL     1       0.020  -5.278  13.023  1.00  0.00    -0.307 OA
HETATM   45  H37 UNL     1      -0.228  -5.780  13.815  1.00  0.00     0.222 HD
ENDBRANCH  40  44
ENDBRANCH  39  40
ENDBRANCH  35  39
BRANCH  36  46
HETATM   46  O12 UNL     1      -4.101  -5.257  13.908  1.00  0.00    -0.388 OA
HETATM   47  H35 UNL     1      -4.719  -4.855  13.251  1.00  0.00     0.210 HD
ENDBRANCH  36  46
BRANCH  37  48
HETATM   48  N3  UNL     1      -5.716  -7.884  12.850  1.00  0.00    -0.297 N 
HETATM   49  C19 UNL     1      -6.016  -8.058  14.181  1.00  0.00     0.188 A 
HETATM   50  N4  UNL     1      -7.159  -8.683  14.357  1.00  0.00    -0.346 N 
HETATM   51  C20 UNL     1      -7.626  -8.923  13.077  1.00  0.00     0.116 A 
HETATM   52  H4  UNL     1      -7.603  -8.935  15.240  1.00  0.00     0.167 HD
HETATM   53  C21 UNL     1      -8.805  -9.513  12.587  1.00  0.00     0.109 A 
HETATM   54  C23 UNL     1      -6.723  -8.468  12.133  1.00  0.00     0.142 A 
HETATM   55  N5  UNL     1      -8.971  -9.614  11.246  1.00  0.00    -0.341 N 
HETATM   56  C22 UNL     1      -7.992  -9.148  10.445  1.00  0.00     0.183 A 
HETATM   57  H5  UNL     1      -9.814 -10.033  10.854  1.00  0.00     0.167 HD
HETATM   58  N6  UNL     1      -6.831  -8.559  10.796  1.00  0.00    -0.336 N 
HETATM   59  H6  UNL     1      -6.128  -8.226  10.136  1.00  0.00     0.168 HD
BRANCH  53  60
HETATM   60  N7  UNL     1      -9.807 -10.007  13.407  1.00  0.00    -0.287 NA
HETATM   61  H33 UNL     1      -9.472 -10.427  14.272  1.00  0.00     0.125 HD
HETATM   62  H34 UNL     1     -10.517 -10.517  12.899  1.00  0.00     0.125 HD
ENDBRANCH  53  60
ENDBRANCH  37  48
ENDBRANCH  33  34
ENDBRANCH  32  33
ENDBRANCH  28  32
ENDBRANCH  27  28
ENDBRANCH  23  27
ENDBRANCH  22  23
ENDBRANCH  21  22
ENDBRANCH  18  21
ENDBRANCH  17  18
BRANCH  17  63
HETATM   63  O17 UNL     1       4.494  -6.625   8.843  1.00  0.00    -0.385 OA
HETATM   64  H38 UNL     1       4.497  -6.766   9.805  1.00  0.00     0.210 HD
ENDBRANCH  17  63
ENDBRANCH  14  17
ENDBRANCH  12  13
ENDBRANCH  11  12
ENDBRANCH   8  11
ENDBRANCH   6   7
ENDBRANCH   5   6
ENDBRANCH   4   5
ENDBRANCH   2   4
TORSDOF 27
ENDMDL
MODEL 18
REMARK VINA RESULT:      -3.7      2.297      3.473
REMARK  27 active torsions:
REMARK  status: ('A' for Active; 'I' for Inactive)
REMARK    1  A    between atoms: C2_2  and  S1_4 
REMARK    2  A    between atoms: S1_4  and  C3_5 
REMARK    3  A    between atoms: C3_5  and  C4_6 
REMARK    4  A    between atoms: C4_6  and  N1_7 
REMARK       I    between atoms: N1_7  and  C5_8 
REMARK    5  A    between atoms: C5_8  and  C6_10 
REMARK    6  A    between atoms: C6_10  and  C7_11 
REMARK    7  A    between atoms: C7_11  and  N2_12 
REMARK       I    between atoms: N2_12  and  C8_13 
REMARK    8  A    between atoms: C8_13  and  C9_15 
REMARK    9  A    between atoms: C9_15  and  C10_16 
REMARK   10  A    between atoms: C9_15  and  O17_54 
REMARK   11  A    between atoms: C10_16  and  C13_19 
REMARK   12  A    between atoms: C13_19  and  O4_20 
REMARK   13  A    between atoms: O4_20  and  P1_21 
REMARK   14  A    between atoms: P1_21  and  O6_23 
REMARK   15  A    between atoms: P1_21  and  O7_24 
REMARK   16  A    between atoms: O7_24  and  P2_25 
REMARK   17  A    between atoms: P2_25  and  O9_27 
REMARK   18  A    between atoms: P2_25  and  O10_28 
REMARK   19  A    between atoms: O10_28  and  C14_29 
REMARK   20  A    between atoms: C14_29  and  C15_30 
REMARK   21  A    between atoms: C16_31  and  O13_49 
REMARK   22  A    between atoms: C17_32  and  O12_48 
REMARK   23  A    between atoms: C18_33  and  N3_35 
REMARK   24  A    between atoms: C21_40  and  N7_47 
REMARK   25  A    between atoms: O13_49  and  P3_50 
REMARK   26  A    between atoms: P3_50  and  O15_52 
REMARK   27  A    between atoms: P3_50  and  O16_53 
ROOT
HETATM    1  C1  UNL     1       3.377  -3.694   7.211  1.00  0.00     0.104 C 
HETATM    2  C2  UNL     1       4.769  -3.969   7.692  1.00  0.00     0.182 C 
HETATM    3  O1  UNL     1       5.032  -4.289   8.848  1.00  0.00    -0.286 OA
ENDROOT
BRANCH   2   4
HETATM    4  S1  UNL     1       6.014  -3.758   6.468  1.00  0.00    -0.091 SA
BRANCH   4   5
HETATM    5  C3  UNL     1       6.163  -5.469   5.859  1.00  0.00     0.102 C 
BRANCH   5   6
HETATM    6  C4  UNL     1       5.572  -6.478   6.845  1.00  0.00     0.133 C 
BRANCH   6   7
HETATM    7  N1  UNL     1       6.513  -6.872   7.874  1.00  0.00    -0.360 N 
HETATM    8  C5  UNL     1       6.116  -7.577   8.986  1.00  0.00     0.219 C 
HETATM    9  O2  UNL     1       4.942  -7.844   9.215  1.00  0.00    -0.274 OA
HETATM   10  H8  UNL     1       7.487  -6.625   7.762  1.00  0.00     0.162 HD
BRANCH   8  11
HETATM   11  C6  UNL     1       7.262  -7.936   9.908  1.00  0.00     0.122 C 
BRANCH  11  12
HETATM   12  C7  UNL     1       6.876  -7.797  11.380  1.00  0.00     0.132 C 
BRANCH  12  13
HETATM   13  N2  UNL     1       5.910  -8.786  11.809  1.00  0.00    -0.358 N 
HETATM   14  C8  UNL     1       6.182  -9.600  12.894  1.00  0.00     0.247 C 
HETATM   15  O3  UNL     1       7.273  -9.602  13.450  1.00  0.00    -0.271 OA
HETATM   16  H13 UNL     1       4.935  -8.551  11.637  1.00  0.00     0.162 HD
BRANCH  14  17
HETATM   17  C9  UNL     1       5.007 -10.478  13.351  1.00  0.00     0.219 C 
BRANCH  17  18
HETATM   18  C10 UNL     1       3.642  -9.744  13.412  1.00  0.00     0.009 C 
HETATM   19  C11 UNL     1       3.745  -8.390  14.129  1.00  0.00     0.020 C 
HETATM   20  C12 UNL     1       3.072  -9.493  12.001  1.00  0.00     0.020 C 
BRANCH  18  21
HETATM   21  C13 UNL     1       2.688 -10.683  14.204  1.00  0.00     0.192 C 
BRANCH  21  22
HETATM   22  O4  UNL     1       1.369 -10.662  13.697  1.00  0.00    -0.296 OA
BRANCH  22  23
HETATM   23  P1  UNL     1       0.144  -9.992  14.486  1.00  0.00     0.401 P 
HETATM   24  O5  UNL     1       0.168  -8.496  14.496  1.00  0.00    -0.631 OA
BRANCH  23  25
HETATM   25  O6  UNL     1       0.119 -10.651  15.954  1.00  0.00    -0.307 OA
HETATM   26  H23 UNL     1       1.003 -10.896  16.255  1.00  0.00     0.222 HD
ENDBRANCH  23  25
BRANCH  23  27
HETATM   27  O7  UNL     1      -1.161 -10.631  13.838  1.00  0.00    -0.195 OA
BRANCH  27  28
HETATM   28  P2  UNL     1      -2.588 -10.059  14.256  1.00  0.00     0.401 P 
HETATM   29  O8  UNL     1      -3.686 -11.054  14.446  1.00  0.00    -0.631 OA
BRANCH  28  30
HETATM   30  O9  UNL     1      -2.267  -9.188  15.555  1.00  0.00    -0.307 OA
HETATM   31  H24 UNL     1      -2.669  -8.285  15.545  1.00  0.00     0.222 HD
ENDBRANCH  28  30
BRANCH  28  32
HETATM   32  O10 UNL     1      -2.869  -8.904  13.190  1.00  0.00    -0.294 OA
BRANCH  32  33
HETATM   33  C14 UNL     1      -3.349  -9.230  11.912  1.00  0.00     0.215 C 
BRANCH  33  34
HETATM   34  C15 UNL     1      -2.703  -8.235  10.948  1.00  0.00     0.180 C 
HETATM   35  C16 UNL     1      -1.245  -8.611  10.719  1.00  0.00     0.197 C 
HETATM   36  C17 UNL     1      -0.456  -7.427  11.244  1.00  0.00     0.199 C 
HETATM   37  C18 UNL     1      -1.463  -6.283  11.110  1.00  0.00     0.262 C 
HETATM   38  O11 UNL     1      -2.735  -6.888  11.432  1.00  0.00    -0.353 OA
BRANCH  35  39
HETATM   39  O13 UNL     1      -1.055  -8.807   9.322  1.00  0.00    -0.286 OA
BRANCH  39  40
HETATM   40  P3  UNL     1      -1.386 -10.274   8.779  1.00  0.00     0.391 P 
HETATM   41  O14 UNL     1      -2.732 -10.390   8.141  1.00  0.00    -0.632 OA
BRANCH  40  42
HETATM   42  O15 UNL     1      -1.109 -11.147  10.091  1.00  0.00    -0.307 OA
HETATM   43  H36 UNL     1      -0.760 -12.038   9.849  1.00  0.00     0.222 HD
ENDBRANCH  40  42
BRANCH  40  44
HETATM   44  O16 UNL     1      -0.113 -10.569   7.873  1.00  0.00    -0.307 OA
HETATM   45  H37 UNL     1       0.089 -11.516   7.805  1.00  0.00     0.222 HD
ENDBRANCH  40  44
ENDBRANCH  39  40
ENDBRANCH  35  39
BRANCH  36  46
HETATM   46  O12 UNL     1       0.780  -7.302  10.535  1.00  0.00    -0.388 OA
HETATM   47  H35 UNL     1       1.350  -8.050  10.835  1.00  0.00     0.210 HD
ENDBRANCH  36  46
BRANCH  37  48
HETATM   48  N3  UNL     1      -1.209  -5.206  12.046  1.00  0.00    -0.297 N 
HETATM   49  C19 UNL     1      -0.730  -3.949  11.757  1.00  0.00     0.188 A 
HETATM   50  N4  UNL     1      -0.731  -3.161  12.810  1.00  0.00    -0.346 N 
HETATM   51  C20 UNL     1      -1.240  -3.944  13.831  1.00  0.00     0.116 A 
HETATM   52  H4  UNL     1      -0.425  -2.190  12.863  1.00  0.00     0.167 HD
HETATM   53  C21 UNL     1      -1.530  -3.679  15.181  1.00  0.00     0.109 A 
HETATM   54  C23 UNL     1      -1.503  -5.225  13.381  1.00  0.00     0.142 A 
HETATM   55  N5  UNL     1      -2.023  -4.682  15.948  1.00  0.00    -0.341 N 
HETATM   56  C22 UNL     1      -2.208  -5.889  15.378  1.00  0.00     0.183 A 
HETATM   57  H5  UNL     1      -2.249  -4.526  16.930  1.00  0.00     0.167 HD
HETATM   58  N6  UNL     1      -1.976  -6.257  14.101  1.00  0.00    -0.336 N 
HETATM   59  H6  UNL     1      -2.137  -7.194  13.731  1.00  0.00     0.168 HD
BRANCH  53  60
HETATM   60  N7  UNL     1      -1.328  -2.443  15.775  1.00  0.00    -0.287 NA
HETATM   61  H33 UNL     1      -1.920  -2.266  16.585  1.00  0.00     0.125 HD
HETATM   62  H34 UNL     1      -1.238  -1.692  15.104  1.00  0.00     0.125 HD
ENDBRANCH  53  60
ENDBRANCH  37  48
ENDBRANCH  33  34
ENDBRANCH  32  33
ENDBRANCH  28  32
ENDBRANCH  27  28
ENDBRANCH  23  27
ENDBRANCH  22  23
ENDBRANCH  21  22
ENDBRANCH  18  21
ENDBRANCH  17  18
BRANCH  17  63
HETATM   63  O17 UNL     1       4.875 -11.613  12.488  1.00  0.00    -0.385 OA
HETATM   64  H38 UNL     1       4.621 -11.294  11.606  1.00  0.00     0.210 HD
ENDBRANCH  17  63
ENDBRANCH  14  17
ENDBRANCH  12  13
ENDBRANCH  11  12
ENDBRANCH   8  11
ENDBRANCH   6   7
ENDBRANCH   5   6
ENDBRANCH   4   5
ENDBRANCH   2   4
TORSDOF 27
ENDMDL
MODEL 19
REMARK VINA RESULT:      -3.4      3.802      9.321
REMARK  27 active torsions:
REMARK  status: ('A' for Active; 'I' for Inactive)
REMARK    1  A    between atoms: C2_2  and  S1_4 
REMARK    2  A    between atoms: S1_4  and  C3_5 
REMARK    3  A    between atoms: C3_5  and  C4_6 
REMARK    4  A    between atoms: C4_6  and  N1_7 
REMARK       I    between atoms: N1_7  and  C5_8 
REMARK    5  A    between atoms: C5_8  and  C6_10 
REMARK    6  A    between atoms: C6_10  and  C7_11 
REMARK    7  A    between atoms: C7_11  and  N2_12 
REMARK       I    between atoms: N2_12  and  C8_13 
REMARK    8  A    between atoms: C8_13  and  C9_15 
REMARK    9  A    between atoms: C9_15  and  C10_16 
REMARK   10  A    between atoms: C9_15  and  O17_54 
REMARK   11  A    between atoms: C10_16  and  C13_19 
REMARK   12  A    between atoms: C13_19  and  O4_20 
REMARK   13  A    between atoms: O4_20  and  P1_21 
REMARK   14  A    between atoms: P1_21  and  O6_23 
REMARK   15  A    between atoms: P1_21  and  O7_24 
REMARK   16  A    between atoms: O7_24  and  P2_25 
REMARK   17  A    between atoms: P2_25  and  O9_27 
REMARK   18  A    between atoms: P2_25  and  O10_28 
REMARK   19  A    between atoms: O10_28  and  C14_29 
REMARK   20  A    between atoms: C14_29  and  C15_30 
REMARK   21  A    between atoms: C16_31  and  O13_49 
REMARK   22  A    between atoms: C17_32  and  O12_48 
REMARK   23  A    between atoms: C18_33  and  N3_35 
REMARK   24  A    between atoms: C21_40  and  N7_47 
REMARK   25  A    between atoms: O13_49  and  P3_50 
REMARK   26  A    between atoms: P3_50  and  O15_52 
REMARK   27  A    between atoms: P3_50  and  O16_53 
ROOT
HETATM    1  C1  UNL     1      -1.211  -3.935  13.326  1.00  0.00     0.104 C 
HETATM    2  C2  UNL     1      -2.588  -4.512  13.199  1.00  0.00     0.182 C 
HETATM    3  O1  UNL     1      -3.264  -4.861  14.164  1.00  0.00    -0.286 OA
ENDROOT
BRANCH   2   4
HETATM    4  S1  UNL     1      -3.150  -4.690  11.543  1.00  0.00    -0.091 SA
BRANCH   4   5
HETATM    5  C3  UNL     1      -2.789  -6.454  11.266  1.00  0.00     0.102 C 
BRANCH   5   6
HETATM    6  C4  UNL     1      -3.639  -7.040  10.137  1.00  0.00     0.133 C 
BRANCH   6   7
HETATM    7  N1  UNL     1      -3.112  -8.290   9.631  1.00  0.00    -0.360 N 
HETATM    8  C5  UNL     1      -1.999  -8.332   8.823  1.00  0.00     0.219 C 
HETATM    9  O2  UNL     1      -1.438  -7.321   8.419  1.00  0.00    -0.274 OA
HETATM   10  H8  UNL     1      -3.574  -9.152   9.887  1.00  0.00     0.162 HD
BRANCH   8  11
HETATM   11  C6  UNL     1      -1.582  -9.739   8.450  1.00  0.00     0.122 C 
BRANCH  11  12
HETATM   12  C7  UNL     1      -1.653 -10.690   9.644  1.00  0.00     0.132 C 
BRANCH  12  13
HETATM   13  N2  UNL     1      -0.603 -10.462  10.615  1.00  0.00    -0.358 N 
HETATM   14  C8  UNL     1      -0.916 -10.028  11.890  1.00  0.00     0.247 C 
HETATM   15  O3  UNL     1      -2.054  -9.710  12.210  1.00  0.00    -0.271 OA
HETATM   16  H13 UNL     1       0.224 -11.047  10.512  1.00  0.00     0.162 HD
BRANCH  14  17
HETATM   17  C9  UNL     1       0.268  -9.997  12.868  1.00  0.00     0.219 C 
BRANCH  17  18
HETATM   18  C10 UNL     1       1.204  -8.771  12.706  1.00  0.00     0.009 C 
HETATM   19  C11 UNL     1       0.763  -7.855  11.555  1.00  0.00     0.020 C 
HETATM   20  C12 UNL     1       1.255  -7.925  13.994  1.00  0.00     0.020 C 
BRANCH  18  21
HETATM   21  C13 UNL     1       2.616  -9.349  12.402  1.00  0.00     0.192 C 
BRANCH  21  22
HETATM   22  O4  UNL     1       2.667 -10.020  11.159  1.00  0.00    -0.296 OA
BRANCH  22  23
HETATM   23  P1  UNL     1       2.970 -11.589  11.027  1.00  0.00     0.401 P 
HETATM   24  O5  UNL     1       1.889 -12.365  10.342  1.00  0.00    -0.631 OA
BRANCH  23  25
HETATM   25  O6  UNL     1       3.314 -12.121  12.507  1.00  0.00    -0.307 OA
HETATM   26  H23 UNL     1       3.764 -12.976  12.488  1.00  0.00     0.222 HD
ENDBRANCH  23  25
BRANCH  23  27
HETATM   27  O7  UNL     1       4.396 -11.675  10.328  1.00  0.00    -0.195 OA
BRANCH  27  28
HETATM   28  P2  UNL     1       4.515 -11.331   8.777  1.00  0.00     0.401 P 
HETATM   29  O8  UNL     1       4.799 -12.469   7.852  1.00  0.00    -0.631 OA
BRANCH  28  30
HETATM   30  O9  UNL     1       3.150 -10.564   8.466  1.00  0.00    -0.307 OA
HETATM   31  H24 UNL     1       2.502 -10.575   9.211  1.00  0.00     0.222 HD
ENDBRANCH  28  30
BRANCH  28  32
HETATM   32  O10 UNL     1       5.552 -10.118   8.729  1.00  0.00    -0.294 OA
BRANCH  32  33
HETATM   33  C14 UNL     1       5.200  -8.918   8.090  1.00  0.00     0.215 C 
BRANCH  33  34
HETATM   34  C15 UNL     1       5.211  -7.840   9.172  1.00  0.00     0.180 C 
HETATM   35  C16 UNL     1       6.075  -6.669   8.724  1.00  0.00     0.197 C 
HETATM   36  C17 UNL     1       7.197  -6.607   9.743  1.00  0.00     0.199 C 
HETATM   37  C18 UNL     1       6.555  -7.259  10.970  1.00  0.00     0.262 C 
HETATM   38  O11 UNL     1       5.726  -8.308  10.423  1.00  0.00    -0.353 OA
BRANCH  35  39
HETATM   39  O13 UNL     1       5.270  -5.494   8.740  1.00  0.00    -0.286 OA
BRANCH  39  40
HETATM   40  P3  UNL     1       5.278  -4.635   7.392  1.00  0.00     0.391 P 
HETATM   41  O14 UNL     1       4.111  -3.711   7.259  1.00  0.00    -0.632 OA
BRANCH  40  42
HETATM   42  O15 UNL     1       5.434  -5.793   6.299  1.00  0.00    -0.307 OA
HETATM   43  H36 UNL     1       5.743  -6.630   6.720  1.00  0.00     0.222 HD
ENDBRANCH  40  42
BRANCH  40  44
HETATM   44  O16 UNL     1       6.729  -3.986   7.441  1.00  0.00    -0.307 OA
HETATM   45  H37 UNL     1       6.964  -3.655   8.322  1.00  0.00     0.222 HD
ENDBRANCH  40  44
ENDBRANCH  39  40
ENDBRANCH  35  39
BRANCH  36  46
HETATM   46  O12 UNL     1       7.666  -5.263   9.883  1.00  0.00    -0.388 OA
HETATM   47  H35 UNL     1       7.120  -4.713   9.273  1.00  0.00     0.210 HD
ENDBRANCH  36  46
BRANCH  37  48
HETATM   48  N3  UNL     1       7.532  -7.852  11.860  1.00  0.00    -0.297 N 
HETATM   49  C19 UNL     1       7.957  -7.363  13.073  1.00  0.00     0.188 A 
HETATM   50  N4  UNL     1       8.757  -8.200  13.696  1.00  0.00    -0.346 N 
HETATM   51  C20 UNL     1       8.853  -9.288  12.847  1.00  0.00     0.116 A 
HETATM   52  H4  UNL     1       9.207  -8.075  14.603  1.00  0.00     0.167 HD
HETATM   53  C21 UNL     1       9.517 -10.523  12.951  1.00  0.00     0.109 A 
HETATM   54  C23 UNL     1       8.130  -9.069  11.688  1.00  0.00     0.142 A 
HETATM   55  N5  UNL     1       9.426 -11.398  11.920  1.00  0.00    -0.341 N 
HETATM   56  C22 UNL     1       8.703 -11.039  10.840  1.00  0.00     0.183 A 
HETATM   57  H5  UNL     1       9.891 -12.305  11.961  1.00  0.00     0.167 HD
HETATM   58  N6  UNL     1       8.020  -9.895  10.632  1.00  0.00    -0.336 N 
HETATM   59  H6  UNL     1       7.490  -9.683   9.787  1.00  0.00     0.168 HD
BRANCH  53  60
HETATM   60  N7  UNL     1      10.273 -10.891  14.053  1.00  0.00    -0.287 NA
HETATM   61  H33 UNL     1      11.188 -11.273  13.824  1.00  0.00     0.125 HD
HETATM   62  H34 UNL     1       9.736 -11.384  14.753  1.00  0.00     0.125 HD
ENDBRANCH  53  60
ENDBRANCH  37  48
ENDBRANCH  33  34
ENDBRANCH  32  33
ENDBRANCH  28  32
ENDBRANCH  27  28
ENDBRANCH  23  27
ENDBRANCH  22  23
ENDBRANCH  21  22
ENDBRANCH  18  21
ENDBRANCH  17  18
BRANCH  17  63
HETATM   63  O17 UNL     1      -0.207 -10.031  14.218  1.00  0.00    -0.385 OA
HETATM   64  H38 UNL     1       0.492  -9.676  14.793  1.00  0.00     0.210 HD
ENDBRANCH  17  63
ENDBRANCH  14  17
ENDBRANCH  12  13
ENDBRANCH  11  12
ENDBRANCH   8  11
ENDBRANCH   6   7
ENDBRANCH   5   6
ENDBRANCH   4   5
ENDBRANCH   2   4
TORSDOF 27
ENDMDL
MODEL 20
REMARK VINA RESULT:      -3.2      9.745     13.760
REMARK  27 active torsions:
REMARK  status: ('A' for Active; 'I' for Inactive)
REMARK    1  A    between atoms: C2_2  and  S1_4 
REMARK    2  A    between atoms: S1_4  and  C3_5 
REMARK    3  A    between atoms: C3_5  and  C4_6 
REMARK    4  A    between atoms: C4_6  and  N1_7 
REMARK       I    between atoms: N1_7  and  C5_8 
REMARK    5  A    between atoms: C5_8  and  C6_10 
REMARK    6  A    between atoms: C6_10  and  C7_11 
REMARK    7  A    between atoms: C7_11  and  N2_12 
REMARK       I    between atoms: N2_12  and  C8_13 
REMARK    8  A    between atoms: C8_13  and  C9_15 
REMARK    9  A    between atoms: C9_15  and  C10_16 
REMARK   10  A    between atoms: C9_15  and  O17_54 
REMARK   11  A    between atoms: C10_16  and  C13_19 
REMARK   12  A    between atoms: C13_19  and  O4_20 
REMARK   13  A    between atoms: O4_20  and  P1_21 
REMARK   14  A    between atoms: P1_21  and  O6_23 
REMARK   15  A    between atoms: P1_21  and  O7_24 
REMARK   16  A    between atoms: O7_24  and  P2_25 
REMARK   17  A    between atoms: P2_25  and  O9_27 
REMARK   18  A    between atoms: P2_25  and  O10_28 
REMARK   19  A    between atoms: O10_28  and  C14_29 
REMARK   20  A    between atoms: C14_29  and  C15_30 
REMARK   21  A    between atoms: C16_31  and  O13_49 
REMARK   22  A    between atoms: C17_32  and  O12_48 
REMARK   23  A    between atoms: C18_33  and  N3_35 
REMARK   24  A    between atoms: C21_40  and  N7_47 
REMARK   25  A    between atoms: O13_49  and  P3_50 
REMARK   26  A    between atoms: P3_50  and  O15_52 
REMARK   27  A    between atoms: P3_50  and  O16_53 
ROOT
HETATM    1  C1  UNL     1      10.228  -3.276  -1.290  1.00  0.00     0.104 C 
HETATM    2  C2  UNL     1      10.979  -1.986  -1.419  1.00  0.00     0.182 C 
HETATM    3  O1  UNL     1      12.017  -1.745  -0.808  1.00  0.00    -0.286 OA
ENDROOT
BRANCH   2   4
HETATM    4  S1  UNL     1      10.228  -0.816  -2.496  1.00  0.00    -0.091 SA
BRANCH   4   5
HETATM    5  C3  UNL     1       9.742   0.464  -1.295  1.00  0.00     0.102 C 
BRANCH   5   6
HETATM    6  C4  UNL     1       8.269   0.849  -1.437  1.00  0.00     0.133 C 
BRANCH   6   7
HETATM    7  N1  UNL     1       7.373  -0.256  -1.164  1.00  0.00    -0.360 N 
HETATM    8  C5  UNL     1       6.749  -0.398   0.054  1.00  0.00     0.219 C 
HETATM    9  O2  UNL     1       6.972   0.348   1.000  1.00  0.00    -0.274 OA
HETATM   10  H8  UNL     1       7.200  -0.934  -1.894  1.00  0.00     0.162 HD
BRANCH   8  11
HETATM   11  C6  UNL     1       5.813  -1.586   0.113  1.00  0.00     0.122 C 
BRANCH  11  12
HETATM   12  C7  UNL     1       4.864  -1.506   1.308  1.00  0.00     0.132 C 
BRANCH  12  13
HETATM   13  N2  UNL     1       5.554  -1.420   2.577  1.00  0.00    -0.358 N 
HETATM   14  C8  UNL     1       6.330  -2.475   3.021  1.00  0.00     0.247 C 
HETATM   15  O3  UNL     1       6.370  -3.548   2.431  1.00  0.00    -0.271 OA
HETATM   16  H13 UNL     1       5.836  -0.484   2.860  1.00  0.00     0.162 HD
BRANCH  14  17
HETATM   17  C9  UNL     1       7.146  -2.186   4.290  1.00  0.00     0.219 C 
BRANCH  17  18
HETATM   18  C10 UNL     1       6.307  -2.121   5.593  1.00  0.00     0.009 C 
HETATM   19  C11 UNL     1       6.335  -0.725   6.231  1.00  0.00     0.020 C 
HETATM   20  C12 UNL     1       4.833  -2.495   5.335  1.00  0.00     0.020 C 
BRANCH  18  21
HETATM   21  C13 UNL     1       6.947  -3.153   6.564  1.00  0.00     0.192 C 
BRANCH  21  22
HETATM   22  O4  UNL     1       6.132  -4.292   6.755  1.00  0.00    -0.296 OA
BRANCH  22  23
HETATM   23  P1  UNL     1       6.516  -5.742   6.189  1.00  0.00     0.401 P 
HETATM   24  O5  UNL     1       7.510  -5.719   5.071  1.00  0.00    -0.631 OA
BRANCH  23  25
HETATM   25  O6  UNL     1       5.134  -6.477   5.815  1.00  0.00    -0.307 OA
HETATM   26  H23 UNL     1       4.401  -6.171   6.366  1.00  0.00     0.222 HD
ENDBRANCH  23  25
BRANCH  23  27
HETATM   27  O7  UNL     1       6.972  -6.574   7.467  1.00  0.00    -0.195 OA
BRANCH  27  28
HETATM   28  P2  UNL     1       6.473  -6.109   8.907  1.00  0.00     0.401 P 
HETATM   29  O8  UNL     1       7.041  -4.835   9.441  1.00  0.00    -0.631 OA
BRANCH  28  30
HETATM   30  O9  UNL     1       4.883  -6.101   8.758  1.00  0.00    -0.307 OA
HETATM   31  H24 UNL     1       4.439  -6.902   9.129  1.00  0.00     0.222 HD
ENDBRANCH  28  30
BRANCH  28  32
HETATM   32  O10 UNL     1       6.676  -7.402   9.822  1.00  0.00    -0.294 OA
BRANCH  32  33
HETATM   33  C14 UNL     1       7.822  -7.521  10.624  1.00  0.00     0.215 C 
BRANCH  33  34
HETATM   34  C15 UNL     1       8.638  -8.670  10.035  1.00  0.00     0.180 C 
HETATM   35  C16 UNL     1       9.628  -9.184  11.072  1.00  0.00     0.197 C 
HETATM   36  C17 UNL     1      10.993  -8.928  10.460  1.00  0.00     0.199 C 
HETATM   37  C18 UNL     1      10.678  -8.921   8.962  1.00  0.00     0.262 C 
HETATM   38  O11 UNL     1       9.382  -8.289   8.873  1.00  0.00    -0.353 OA
BRANCH  35  39
HETATM   39  O13 UNL     1       9.380 -10.572  11.270  1.00  0.00    -0.286 OA
BRANCH  39  40
HETATM   40  P3  UNL     1       8.557 -10.943  12.589  1.00  0.00     0.391 P 
HETATM   41  O14 UNL     1       7.081 -10.757  12.451  1.00  0.00    -0.632 OA
BRANCH  40  42
HETATM   42  O15 UNL     1       9.318 -10.050  13.677  1.00  0.00    -0.307 OA
HETATM   43  H36 UNL     1       9.621  -9.200  13.280  1.00  0.00     0.222 HD
ENDBRANCH  40  42
BRANCH  40  44
HETATM   44  O16 UNL     1       9.090 -12.411  12.890  1.00  0.00    -0.307 OA
HETATM   45  H37 UNL     1       9.793 -12.427  13.558  1.00  0.00     0.222 HD
ENDBRANCH  40  44
ENDBRANCH  39  40
ENDBRANCH  35  39
BRANCH  36  46
HETATM   46  O12 UNL     1      11.935  -9.896  10.928  1.00  0.00    -0.388 OA
HETATM   47  H35 UNL     1      11.414 -10.700  11.166  1.00  0.00     0.210 HD
ENDBRANCH  36  46
BRANCH  37  48
HETATM   48  N3  UNL     1      11.631  -8.142   8.197  1.00  0.00    -0.297 N 
HETATM   49  C19 UNL     1      12.754  -7.504   8.671  1.00  0.00     0.188 A 
HETATM   50  N4  UNL     1      13.480  -6.988   7.703  1.00  0.00    -0.346 N 
HETATM   51  C20 UNL     1      12.797  -7.313   6.544  1.00  0.00     0.116 A 
HETATM   52  H4  UNL     1      14.352  -6.466   7.788  1.00  0.00     0.167 HD
HETATM   53  C21 UNL     1      13.070  -7.090   5.183  1.00  0.00     0.109 A 
HETATM   54  C23 UNL     1      11.630  -7.993   6.838  1.00  0.00     0.142 A 
HETATM   55  N5  UNL     1      12.180  -7.531   4.262  1.00  0.00    -0.341 N 
HETATM   56  C22 UNL     1      11.070  -8.160   4.697  1.00  0.00     0.183 A 
HETATM   57  H5  UNL     1      12.345  -7.391   3.265  1.00  0.00     0.167 HD
HETATM   58  N6  UNL     1      10.707  -8.437   5.966  1.00  0.00    -0.336 N 
HETATM   59  H6  UNL     1       9.848  -8.919   6.230  1.00  0.00     0.168 HD
BRANCH  53  60
HETATM   60  N7  UNL     1      14.202  -6.431   4.731  1.00  0.00    -0.287 NA
HETATM   61  H33 UNL     1      14.604  -5.780   5.402  1.00  0.00     0.125 HD
HETATM   62  H34 UNL     1      14.116  -6.106   3.777  1.00  0.00     0.125 HD
ENDBRANCH  53  60
ENDBRANCH  37  48
ENDBRANCH  33  34
ENDBRANCH  32  33
ENDBRANCH  28  32
ENDBRANCH  27  28
ENDBRANCH  23  27
ENDBRANCH  22  23
ENDBRANCH  21  22
ENDBRANCH  18  21
ENDBRANCH  17  18
BRANCH  17  63
HETATM   63  O17 UNL     1       8.167  -3.175   4.455  1.00  0.00    -0.385 OA
HETATM   64  H38 UNL     1       8.977  -2.727   4.752  1.00  0.00     0.210 HD
ENDBRANCH  17  63
ENDBRANCH  14  17
ENDBRANCH  12  13
ENDBRANCH  11  12
ENDBRANCH   8  11
ENDBRANCH   6   7
ENDBRANCH   5   6
ENDBRANCH   4   5
ENDBRANCH   2   4
TORSDOF 27
ENDMDL
