MODEL 1
REMARK VINA RESULT:      -4.0      0.000      0.000
REMARK  2 active torsions:
REMARK  status: ('A' for Active; 'I' for Inactive)
REMARK    1  A    between atoms: C3_3  and  O1_8 
REMARK    2  A    between atoms: C6_6  and  N1_7 
ROOT
HETATM    1  C1  UNL     1      10.512  12.598  -1.807  1.00  0.00     0.026 A 
HETATM    2  C2  UNL     1       9.793  11.585  -1.168  1.00  0.00     0.038 A 
HETATM    3  C3  UNL     1       8.413  11.682  -1.063  1.00  0.00     0.065 A 
HETATM    4  C4  UNL     1       7.737  12.771  -1.602  1.00  0.00     0.038 A 
HETATM    5  C5  UNL     1       8.463  13.782  -2.238  1.00  0.00     0.026 A 
HETATM    6  C6  UNL     1       9.859  13.731  -2.302  1.00  0.00     0.005 A 
ENDROOT
BRANCH   6   7
HETATM    7  N1  UNL     1      10.566  14.684  -3.043  1.00  0.00    -0.303 NA
HETATM    8  H5  UNL     1      10.917  14.334  -3.929  1.00  0.00     0.124 HD
HETATM    9  H6  UNL     1      11.279  15.172  -2.511  1.00  0.00     0.124 HD
ENDBRANCH   6   7
BRANCH   3  10
HETATM   10  O1  UNL     1       7.747  10.671  -0.436  1.00  0.00    -0.361 OA
HETATM   11  H7  UNL     1       6.967  11.042   0.007  1.00  0.00     0.217 HD
ENDBRANCH   3  10
TORSDOF 2
ENDMDL
MODEL 2
REMARK VINA RESULT:      -4.0      2.779      3.682
REMARK  2 active torsions:
REMARK  status: ('A' for Active; 'I' for Inactive)
REMARK    1  A    between atoms: C3_3  and  O1_8 
REMARK    2  A    between atoms: C6_6  and  N1_7 
ROOT
HETATM    1  C1  UNL     1       7.806  12.841  -1.671  1.00  0.00     0.026 A 
HETATM    2  C2  UNL     1       8.533  13.839  -2.324  1.00  0.00     0.038 A 
HETATM    3  C3  UNL     1       9.915  13.739  -2.411  1.00  0.00     0.065 A 
HETATM    4  C4  UNL     1      10.580  12.645  -1.868  1.00  0.00     0.038 A 
HETATM    5  C5  UNL     1       9.846  11.651  -1.215  1.00  0.00     0.026 A 
HETATM    6  C6  UNL     1       8.460  11.763  -1.066  1.00  0.00     0.005 A 
ENDROOT
BRANCH   6   7
HETATM    7  N1  UNL     1       7.723  10.708  -0.517  1.00  0.00    -0.303 NA
HETATM    8  H5  UNL     1       6.932  10.423  -1.087  1.00  0.00     0.124 HD
HETATM    9  H6  UNL     1       7.467  10.848   0.455  1.00  0.00     0.124 HD
ENDBRANCH   6   7
BRANCH   3  10
HETATM   10  O1  UNL     1      10.587  14.731  -3.058  1.00  0.00    -0.361 OA
HETATM   11  H7  UNL     1       9.956  15.231  -3.600  1.00  0.00     0.217 HD
ENDBRANCH   3  10
TORSDOF 2
ENDMDL
MODEL 3
REMARK VINA RESULT:      -4.0      2.989      3.406
REMARK  2 active torsions:
REMARK  status: ('A' for Active; 'I' for Inactive)
REMARK    1  A    between atoms: C3_3  and  O1_8 
REMARK    2  A    between atoms: C6_6  and  N1_7 
ROOT
HETATM    1  C1  UNL     1       9.693  11.565  -1.372  1.00  0.00     0.026 A 
HETATM    2  C2  UNL     1      10.579  12.643  -1.421  1.00  0.00     0.038 A 
HETATM    3  C3  UNL     1      10.257  13.828  -0.773  1.00  0.00     0.065 A 
HETATM    4  C4  UNL     1       9.068  13.945  -0.062  1.00  0.00     0.038 A 
HETATM    5  C5  UNL     1       8.186  12.861  -0.018  1.00  0.00     0.026 A 
HETATM    6  C6  UNL     1       8.466  11.680  -0.713  1.00  0.00     0.005 A 
ENDROOT
BRANCH   6   7
HETATM    7  N1  UNL     1       7.636  10.563  -0.566  1.00  0.00    -0.303 NA
HETATM    8  H5  UNL     1       8.070   9.797  -0.060  1.00  0.00     0.124 HD
HETATM    9  H6  UNL     1       7.200  10.258  -1.430  1.00  0.00     0.124 HD
ENDBRANCH   6   7
BRANCH   3  10
HETATM   10  O1  UNL     1      11.149  14.856  -0.843  1.00  0.00    -0.361 OA
HETATM   11  H7  UNL     1      11.406  15.105   0.060  1.00  0.00     0.217 HD
ENDBRANCH   3  10
TORSDOF 2
ENDMDL
MODEL 4
REMARK VINA RESULT:      -4.0     12.900     13.330
REMARK  2 active torsions:
REMARK  status: ('A' for Active; 'I' for Inactive)
REMARK    1  A    between atoms: C3_3  and  O1_8 
REMARK    2  A    between atoms: C6_6  and  N1_7 
ROOT
HETATM    1  C1  UNL     1      13.984   5.394 -10.132  1.00  0.00     0.026 A 
HETATM    2  C2  UNL     1      13.524   4.176 -10.636  1.00  0.00     0.038 A 
HETATM    3  C3  UNL     1      13.438   3.988 -12.009  1.00  0.00     0.065 A 
HETATM    4  C4  UNL     1      13.823   4.996 -12.886  1.00  0.00     0.038 A 
HETATM    5  C5  UNL     1      14.281   6.213 -12.374  1.00  0.00     0.026 A 
HETATM    6  C6  UNL     1      14.318   6.442 -10.995  1.00  0.00     0.005 A 
ENDROOT
BRANCH   6   7
HETATM    7  N1  UNL     1      14.890   7.616 -10.490  1.00  0.00    -0.303 NA
HETATM    8  H5  UNL     1      15.904   7.621 -10.519  1.00  0.00     0.124 HD
HETATM    9  H6  UNL     1      14.527   7.892  -9.584  1.00  0.00     0.124 HD
ENDBRANCH   6   7
BRANCH   3  10
HETATM   10  O1  UNL     1      12.987   2.785 -12.462  1.00  0.00    -0.361 OA
HETATM   11  H7  UNL     1      13.102   2.753 -13.425  1.00  0.00     0.217 HD
ENDBRANCH   3  10
TORSDOF 2
ENDMDL
MODEL 5
REMARK VINA RESULT:      -4.0      0.103      1.706
REMARK  2 active torsions:
REMARK  status: ('A' for Active; 'I' for Inactive)
REMARK    1  A    between atoms: C3_3  and  O1_8 
REMARK    2  A    between atoms: C6_6  and  N1_7 
ROOT
HETATM    1  C1  UNL     1       8.373  13.766  -2.247  1.00  0.00     0.026 A 
HETATM    2  C2  UNL     1       7.706  12.737  -1.578  1.00  0.00     0.038 A 
HETATM    3  C3  UNL     1       8.430  11.678  -1.049  1.00  0.00     0.065 A 
HETATM    4  C4  UNL     1       9.815  11.640  -1.165  1.00  0.00     0.038 A 
HETATM    5  C5  UNL     1      10.476  12.672  -1.837  1.00  0.00     0.026 A 
HETATM    6  C6  UNL     1       9.759  13.718  -2.427  1.00  0.00     0.005 A 
ENDROOT
BRANCH   6   7
HETATM    7  N1  UNL     1      10.435  14.805  -2.993  1.00  0.00    -0.303 NA
HETATM    8  H5  UNL     1      10.576  14.721  -3.995  1.00  0.00     0.124 HD
HETATM    9  H6  UNL     1      11.286  15.058  -2.503  1.00  0.00     0.124 HD
ENDBRANCH   6   7
BRANCH   3  10
HETATM   10  O1  UNL     1       7.743  10.695  -0.402  1.00  0.00    -0.361 OA
HETATM   11  H7  UNL     1       6.893  10.563  -0.852  1.00  0.00     0.217 HD
ENDBRANCH   3  10
TORSDOF 2
ENDMDL
MODEL 6
REMARK VINA RESULT:      -3.9      2.625      3.235
REMARK  2 active torsions:
REMARK  status: ('A' for Active; 'I' for Inactive)
REMARK    1  A    between atoms: C3_3  and  O1_8 
REMARK    2  A    between atoms: C6_6  and  N1_7 
ROOT
HETATM    1  C1  UNL     1       7.515  11.553  -0.992  1.00  0.00     0.026 A 
HETATM    2  C2  UNL     1       6.487  12.452  -0.699  1.00  0.00     0.038 A 
HETATM    3  C3  UNL     1       6.791  13.691  -0.154  1.00  0.00     0.065 A 
HETATM    4  C4  UNL     1       8.112  14.053   0.088  1.00  0.00     0.038 A 
HETATM    5  C5  UNL     1       9.136  13.147  -0.206  1.00  0.00     0.026 A 
HETATM    6  C6  UNL     1       8.845  11.872  -0.700  1.00  0.00     0.005 A 
ENDROOT
BRANCH   6   7
HETATM    7  N1  UNL     1       9.879  11.019  -1.102  1.00  0.00    -0.303 NA
HETATM    8  H5  UNL     1      10.125  10.320  -0.408  1.00  0.00     0.124 HD
HETATM    9  H6  UNL     1      10.692  11.503  -1.468  1.00  0.00     0.124 HD
ENDBRANCH   6   7
BRANCH   3  10
HETATM   10  O1  UNL     1       5.761  14.542   0.114  1.00  0.00    -0.361 OA
HETATM   11  H7  UNL     1       5.074  14.053   0.595  1.00  0.00     0.217 HD
ENDBRANCH   3  10
TORSDOF 2
ENDMDL
MODEL 7
REMARK VINA RESULT:      -3.9     13.029     13.486
REMARK  2 active torsions:
REMARK  status: ('A' for Active; 'I' for Inactive)
REMARK    1  A    between atoms: C3_3  and  O1_8 
REMARK    2  A    between atoms: C6_6  and  N1_7 
ROOT
HETATM    1  C1  UNL     1      14.252   6.908 -13.431  1.00  0.00     0.026 A 
HETATM    2  C2  UNL     1      13.851   5.573 -13.521  1.00  0.00     0.038 A 
HETATM    3  C3  UNL     1      13.703   4.821 -12.365  1.00  0.00     0.065 A 
HETATM    4  C4  UNL     1      13.935   5.388 -11.116  1.00  0.00     0.038 A 
HETATM    5  C5  UNL     1      14.337   6.724 -11.035  1.00  0.00     0.026 A 
HETATM    6  C6  UNL     1      14.548   7.482 -12.191  1.00  0.00     0.005 A 
ENDROOT
BRANCH   6   7
HETATM    7  N1  UNL     1      14.834   8.848 -12.096  1.00  0.00    -0.303 NA
HETATM    8  H5  UNL     1      15.733   9.106 -12.491  1.00  0.00     0.124 HD
HETATM    9  H6  UNL     1      14.696   9.233 -11.167  1.00  0.00     0.124 HD
ENDBRANCH   6   7
BRANCH   3  10
HETATM   10  O1  UNL     1      13.308   3.523 -12.494  1.00  0.00    -0.361 OA
HETATM   11  H7  UNL     1      13.912   2.963 -11.980  1.00  0.00     0.217 HD
ENDBRANCH   3  10
TORSDOF 2
ENDMDL
MODEL 8
REMARK VINA RESULT:      -3.8     13.166     13.712
REMARK  2 active torsions:
REMARK  status: ('A' for Active; 'I' for Inactive)
REMARK    1  A    between atoms: C3_3  and  O1_8 
REMARK    2  A    between atoms: C6_6  and  N1_7 
ROOT
HETATM    1  C1  UNL     1      13.820   5.876 -13.524  1.00  0.00     0.026 A 
HETATM    2  C2  UNL     1      14.224   7.211 -13.437  1.00  0.00     0.038 A 
HETATM    3  C3  UNL     1      14.541   7.754 -12.201  1.00  0.00     0.065 A 
HETATM    4  C4  UNL     1      14.478   6.978 -11.049  1.00  0.00     0.038 A 
HETATM    5  C5  UNL     1      14.072   5.644 -11.143  1.00  0.00     0.026 A 
HETATM    6  C6  UNL     1      13.692   5.095 -12.372  1.00  0.00     0.005 A 
ENDROOT
BRANCH   6   7
HETATM    7  N1  UNL     1      13.403   3.729 -12.474  1.00  0.00    -0.303 NA
HETATM    8  H5  UNL     1      14.022   3.139 -11.927  1.00  0.00     0.124 HD
HETATM    9  H6  UNL     1      13.301   3.402 -13.429  1.00  0.00     0.124 HD
ENDBRANCH   6   7
BRANCH   3  10
HETATM   10  O1  UNL     1      14.933   9.059 -12.158  1.00  0.00    -0.361 OA
HETATM   11  H7  UNL     1      15.856   9.096 -11.861  1.00  0.00     0.217 HD
ENDBRANCH   3  10
TORSDOF 2
ENDMDL
MODEL 9
REMARK VINA RESULT:      -3.8      1.532      2.259
REMARK  2 active torsions:
REMARK  status: ('A' for Active; 'I' for Inactive)
REMARK    1  A    between atoms: C3_3  and  O1_8 
REMARK    2  A    between atoms: C6_6  and  N1_7 
ROOT
HETATM    1  C1  UNL     1       7.912  13.591  -0.862  1.00  0.00     0.026 A 
HETATM    2  C2  UNL     1       8.393  12.286  -0.738  1.00  0.00     0.038 A 
HETATM    3  C3  UNL     1       9.656  11.971  -1.218  1.00  0.00     0.065 A 
HETATM    4  C4  UNL     1      10.454  12.946  -1.807  1.00  0.00     0.038 A 
HETATM    5  C5  UNL     1       9.964  14.250  -1.929  1.00  0.00     0.026 A 
HETATM    6  C6  UNL     1       8.672  14.573  -1.505  1.00  0.00     0.005 A 
ENDROOT
BRANCH   6   7
HETATM    7  N1  UNL     1       8.237  15.903  -1.522  1.00  0.00    -0.303 NA
HETATM    8  H5  UNL     1       8.969  16.569  -1.746  1.00  0.00     0.124 HD
HETATM    9  H6  UNL     1       7.709  16.173  -0.698  1.00  0.00     0.124 HD
ENDBRANCH   6   7
BRANCH   3  10
HETATM   10  O1  UNL     1      10.091  10.687  -1.076  1.00  0.00    -0.361 OA
HETATM   11  H7  UNL     1      10.108  10.267  -1.951  1.00  0.00     0.217 HD
ENDBRANCH   3  10
TORSDOF 2
ENDMDL
MODEL 10
REMARK VINA RESULT:      -3.8     13.217     13.732
REMARK  2 active torsions:
REMARK  status: ('A' for Active; 'I' for Inactive)
REMARK    1  A    between atoms: C3_3  and  O1_8 
REMARK    2  A    between atoms: C6_6  and  N1_7 
ROOT
HETATM    1  C1  UNL     1      14.143   5.680 -11.224  1.00  0.00     0.026 A 
HETATM    2  C2  UNL     1      14.490   7.030 -11.134  1.00  0.00     0.038 A 
HETATM    3  C3  UNL     1      14.544   7.804 -12.285  1.00  0.00     0.065 A 
HETATM    4  C4  UNL     1      14.241   7.251 -13.524  1.00  0.00     0.038 A 
HETATM    5  C5  UNL     1      13.895   5.899 -13.606  1.00  0.00     0.026 A 
HETATM    6  C6  UNL     1      13.892   5.089 -12.466  1.00  0.00     0.005 A 
ENDROOT
BRANCH   6   7
HETATM    7  N1  UNL     1      13.431   3.770 -12.540  1.00  0.00    -0.303 NA
HETATM    8  H5  UNL     1      14.067   3.142 -13.022  1.00  0.00     0.124 HD
HETATM    9  H6  UNL     1      12.477   3.687 -12.876  1.00  0.00     0.124 HD
ENDBRANCH   6   7
BRANCH   3  10
HETATM   10  O1  UNL     1      14.884   9.117 -12.156  1.00  0.00    -0.361 OA
HETATM   11  H7  UNL     1      14.183   9.571 -11.661  1.00  0.00     0.217 HD
ENDBRANCH   3  10
TORSDOF 2
ENDMDL
MODEL 11
REMARK VINA RESULT:      -3.8      3.067      3.785
REMARK  2 active torsions:
REMARK  status: ('A' for Active; 'I' for Inactive)
REMARK    1  A    between atoms: C3_3  and  O1_8 
REMARK    2  A    between atoms: C6_6  and  N1_7 
ROOT
HETATM    1  C1  UNL     1       6.638  13.552  -0.190  1.00  0.00     0.026 A 
HETATM    2  C2  UNL     1       7.914  13.962   0.202  1.00  0.00     0.038 A 
HETATM    3  C3  UNL     1       9.002  13.129  -0.019  1.00  0.00     0.065 A 
HETATM    4  C4  UNL     1       8.836  11.897  -0.642  1.00  0.00     0.038 A 
HETATM    5  C5  UNL     1       7.555  11.493  -1.031  1.00  0.00     0.026 A 
HETATM    6  C6  UNL     1       6.439  12.292  -0.764  1.00  0.00     0.005 A 
ENDROOT
BRANCH   6   7
HETATM    7  N1  UNL     1       5.181  11.935  -1.262  1.00  0.00    -0.303 NA
HETATM    8  H5  UNL     1       4.474  11.821  -0.542  1.00  0.00     0.124 HD
HETATM    9  H6  UNL     1       5.202  11.153  -1.909  1.00  0.00     0.124 HD
ENDBRANCH   6   7
BRANCH   3  10
HETATM   10  O1  UNL     1      10.231  13.566   0.376  1.00  0.00    -0.361 OA
HETATM   11  H7  UNL     1      10.868  13.382  -0.333  1.00  0.00     0.217 HD
ENDBRANCH   3  10
TORSDOF 2
ENDMDL
MODEL 12
REMARK VINA RESULT:      -3.8      2.862      3.374
REMARK  2 active torsions:
REMARK  status: ('A' for Active; 'I' for Inactive)
REMARK    1  A    between atoms: C3_3  and  O1_8 
REMARK    2  A    between atoms: C6_6  and  N1_7 
ROOT
HETATM    1  C1  UNL     1      10.558  12.733  -1.694  1.00  0.00     0.026 A 
HETATM    2  C2  UNL     1      10.802  13.863  -2.478  1.00  0.00     0.038 A 
HETATM    3  C3  UNL     1       9.735  14.598  -2.976  1.00  0.00     0.065 A 
HETATM    4  C4  UNL     1       8.426  14.229  -2.688  1.00  0.00     0.038 A 
HETATM    5  C5  UNL     1       8.189  13.096  -1.904  1.00  0.00     0.026 A 
HETATM    6  C6  UNL     1       9.249  12.309  -1.443  1.00  0.00     0.005 A 
ENDROOT
BRANCH   6   7
HETATM    7  N1  UNL     1       9.009  11.248  -0.562  1.00  0.00    -0.303 NA
HETATM    8  H5  UNL     1       8.024  11.032  -0.444  1.00  0.00     0.124 HD
HETATM    9  H6  UNL     1       9.494  11.333   0.325  1.00  0.00     0.124 HD
ENDBRANCH   6   7
BRANCH   3  10
HETATM   10  O1  UNL     1      10.014  15.695  -3.734  1.00  0.00    -0.361 OA
HETATM   11  H7  UNL     1      10.659  15.445  -4.415  1.00  0.00     0.217 HD
ENDBRANCH   3  10
TORSDOF 2
ENDMDL
MODEL 13
REMARK VINA RESULT:      -3.7      2.721      3.521
REMARK  2 active torsions:
REMARK  status: ('A' for Active; 'I' for Inactive)
REMARK    1  A    between atoms: C3_3  and  O1_8 
REMARK    2  A    between atoms: C6_6  and  N1_7 
ROOT
HETATM    1  C1  UNL     1       8.272  12.756  -1.174  1.00  0.00     0.026 A 
HETATM    2  C2  UNL     1       8.023  14.115  -1.377  1.00  0.00     0.038 A 
HETATM    3  C3  UNL     1       9.079  14.976  -1.637  1.00  0.00     0.065 A 
HETATM    4  C4  UNL     1      10.382  14.496  -1.714  1.00  0.00     0.038 A 
HETATM    5  C5  UNL     1      10.624  13.134  -1.508  1.00  0.00     0.026 A 
HETATM    6  C6  UNL     1       9.579  12.261  -1.187  1.00  0.00     0.005 A 
ENDROOT
BRANCH   6   7
HETATM    7  N1  UNL     1       9.813  10.884  -1.101  1.00  0.00    -0.303 NA
HETATM    8  H5  UNL     1      10.046  10.567  -0.164  1.00  0.00     0.124 HD
HETATM    9  H6  UNL     1      10.460  10.533  -1.799  1.00  0.00     0.124 HD
ENDBRANCH   6   7
BRANCH   3  10
HETATM   10  O1  UNL     1       8.795  16.295  -1.832  1.00  0.00    -0.361 OA
HETATM   11  H7  UNL     1       9.372  16.824  -1.259  1.00  0.00     0.217 HD
ENDBRANCH   3  10
TORSDOF 2
ENDMDL
MODEL 14
REMARK VINA RESULT:      -3.7      2.076      2.509
REMARK  2 active torsions:
REMARK  status: ('A' for Active; 'I' for Inactive)
REMARK    1  A    between atoms: C3_3  and  O1_8 
REMARK    2  A    between atoms: C6_6  and  N1_7 
ROOT
HETATM    1  C1  UNL     1       8.841  14.372  -1.433  1.00  0.00     0.026 A 
HETATM    2  C2  UNL     1       9.538  13.164  -1.515  1.00  0.00     0.038 A 
HETATM    3  C3  UNL     1       9.033  12.035  -0.887  1.00  0.00     0.065 A 
HETATM    4  C4  UNL     1       7.831  12.091  -0.189  1.00  0.00     0.038 A 
HETATM    5  C5  UNL     1       7.140  13.304  -0.110  1.00  0.00     0.026 A 
HETATM    6  C6  UNL     1       7.662  14.466  -0.687  1.00  0.00     0.005 A 
ENDROOT
BRANCH   6   7
HETATM    7  N1  UNL     1       6.908  15.644  -0.704  1.00  0.00    -0.303 NA
HETATM    8  H5  UNL     1       5.992  15.536  -1.127  1.00  0.00     0.124 HD
HETATM    9  H6  UNL     1       7.409  16.447  -1.069  1.00  0.00     0.124 HD
ENDBRANCH   6   7
BRANCH   3  10
HETATM   10  O1  UNL     1       9.740  10.875  -0.993  1.00  0.00    -0.361 OA
HETATM   11  H7  UNL     1       9.997  10.753  -1.920  1.00  0.00     0.217 HD
ENDBRANCH   3  10
TORSDOF 2
ENDMDL
MODEL 15
REMARK VINA RESULT:      -3.7     13.377     13.811
REMARK  2 active torsions:
REMARK  status: ('A' for Active; 'I' for Inactive)
REMARK    1  A    between atoms: C3_3  and  O1_8 
REMARK    2  A    between atoms: C6_6  and  N1_7 
ROOT
HETATM    1  C1  UNL     1      14.679   7.231 -11.719  1.00  0.00     0.026 A 
HETATM    2  C2  UNL     1      14.076   5.971 -11.726  1.00  0.00     0.038 A 
HETATM    3  C3  UNL     1      13.704   5.394 -12.932  1.00  0.00     0.065 A 
HETATM    4  C4  UNL     1      13.941   6.051 -14.134  1.00  0.00     0.038 A 
HETATM    5  C5  UNL     1      14.544   7.312 -14.119  1.00  0.00     0.026 A 
HETATM    6  C6  UNL     1      14.872   7.935 -12.911  1.00  0.00     0.005 A 
ENDROOT
BRANCH   6   7
HETATM    7  N1  UNL     1      15.581   9.142 -12.910  1.00  0.00    -0.303 NA
HETATM    8  H5  UNL     1      15.041   9.933 -13.246  1.00  0.00     0.124 HD
HETATM    9  H6  UNL     1      16.493   9.082 -13.351  1.00  0.00     0.124 HD
ENDBRANCH   6   7
BRANCH   3  10
HETATM   10  O1  UNL     1      13.121   4.162 -12.898  1.00  0.00    -0.361 OA
HETATM   11  H7  UNL     1      12.186   4.269 -12.663  1.00  0.00     0.217 HD
ENDBRANCH   3  10
TORSDOF 2
ENDMDL
MODEL 16
REMARK VINA RESULT:      -3.7      1.927      2.427
REMARK  2 active torsions:
REMARK  status: ('A' for Active; 'I' for Inactive)
REMARK    1  A    between atoms: C3_3  and  O1_8 
REMARK    2  A    between atoms: C6_6  and  N1_7 
ROOT
HETATM    1  C1  UNL     1       9.358  14.511  -0.029  1.00  0.00     0.026 A 
HETATM    2  C2  UNL     1       9.308  13.115  -0.054  1.00  0.00     0.038 A 
HETATM    3  C3  UNL     1       9.971  12.421  -1.056  1.00  0.00     0.065 A 
HETATM    4  C4  UNL     1      10.700  13.101  -2.025  1.00  0.00     0.038 A 
HETATM    5  C5  UNL     1      10.745  14.498  -1.994  1.00  0.00     0.026 A 
HETATM    6  C6  UNL     1      10.035  15.218  -1.027  1.00  0.00     0.005 A 
ENDROOT
BRANCH   6   7
HETATM    7  N1  UNL     1      10.183  16.606  -0.932  1.00  0.00    -0.303 NA
HETATM    8  H5  UNL     1      10.690  16.907  -0.106  1.00  0.00     0.124 HD
HETATM    9  H6  UNL     1       9.318  17.120  -1.063  1.00  0.00     0.124 HD
ENDBRANCH   6   7
BRANCH   3  10
HETATM   10  O1  UNL     1       9.900  11.060  -1.044  1.00  0.00    -0.361 OA
HETATM   11  H7  UNL     1      10.552  10.721  -0.410  1.00  0.00     0.217 HD
ENDBRANCH   3  10
TORSDOF 2
ENDMDL
MODEL 17
REMARK VINA RESULT:      -3.7     13.763     14.237
REMARK  2 active torsions:
REMARK  status: ('A' for Active; 'I' for Inactive)
REMARK    1  A    between atoms: C3_3  and  O1_8 
REMARK    2  A    between atoms: C6_6  and  N1_7 
ROOT
HETATM    1  C1  UNL     1      13.087   5.039 -11.443  1.00  0.00     0.026 A 
HETATM    2  C2  UNL     1      13.532   3.909 -10.753  1.00  0.00     0.038 A 
HETATM    3  C3  UNL     1      14.654   3.227 -11.202  1.00  0.00     0.065 A 
HETATM    4  C4  UNL     1      15.349   3.667 -12.323  1.00  0.00     0.038 A 
HETATM    5  C5  UNL     1      14.897   4.798 -13.009  1.00  0.00     0.026 A 
HETATM    6  C6  UNL     1      13.735   5.465 -12.607  1.00  0.00     0.005 A 
ENDROOT
BRANCH   6   7
HETATM    7  N1  UNL     1      13.359   6.662 -13.226  1.00  0.00    -0.303 NA
HETATM    8  H5  UNL     1      14.059   7.394 -13.158  1.00  0.00     0.124 HD
HETATM    9  H6  UNL     1      12.434   6.987 -12.964  1.00  0.00     0.124 HD
ENDBRANCH   6   7
BRANCH   3  10
HETATM   10  O1  UNL     1      15.057   2.131 -10.500  1.00  0.00    -0.361 OA
HETATM   11  H7  UNL     1      14.290   1.759 -10.037  1.00  0.00     0.217 HD
ENDBRANCH   3  10
TORSDOF 2
ENDMDL
MODEL 18
REMARK VINA RESULT:      -3.6     13.891     14.365
REMARK  2 active torsions:
REMARK  status: ('A' for Active; 'I' for Inactive)
REMARK    1  A    between atoms: C3_3  and  O1_8 
REMARK    2  A    between atoms: C6_6  and  N1_7 
ROOT
HETATM    1  C1  UNL     1      15.255   3.752 -12.391  1.00  0.00     0.026 A 
HETATM    2  C2  UNL     1      14.769   4.915 -12.994  1.00  0.00     0.038 A 
HETATM    3  C3  UNL     1      13.658   5.552 -12.461  1.00  0.00     0.065 A 
HETATM    4  C4  UNL     1      13.033   5.053 -11.323  1.00  0.00     0.038 A 
HETATM    5  C5  UNL     1      13.525   3.889 -10.727  1.00  0.00     0.026 A 
HETATM    6  C6  UNL     1      14.607   3.199 -11.283  1.00  0.00     0.005 A 
ENDROOT
BRANCH   6   7
HETATM    7  N1  UNL     1      15.165   2.104 -10.613  1.00  0.00    -0.303 NA
HETATM    8  H5  UNL     1      15.197   1.258 -11.172  1.00  0.00     0.124 HD
HETATM    9  H6  UNL     1      14.772   1.944  -9.691  1.00  0.00     0.124 HD
ENDBRANCH   6   7
BRANCH   3  10
HETATM   10  O1  UNL     1      13.216   6.685 -13.076  1.00  0.00    -0.361 OA
HETATM   11  H7  UNL     1      12.710   6.432 -13.864  1.00  0.00     0.217 HD
ENDBRANCH   3  10
TORSDOF 2
ENDMDL
MODEL 19
REMARK VINA RESULT:      -3.5      2.245      2.816
REMARK  2 active torsions:
REMARK  status: ('A' for Active; 'I' for Inactive)
REMARK    1  A    between atoms: C3_3  and  O1_8 
REMARK    2  A    between atoms: C6_6  and  N1_7 
ROOT
HETATM    1  C1  UNL     1       8.030  14.106  -1.892  1.00  0.00     0.026 A 
HETATM    2  C2  UNL     1       8.528  13.828  -0.618  1.00  0.00     0.038 A 
HETATM    3  C3  UNL     1       9.894  13.898  -0.382  1.00  0.00     0.065 A 
HETATM    4  C4  UNL     1      10.769  14.260  -1.400  1.00  0.00     0.038 A 
HETATM    5  C5  UNL     1      10.263  14.537  -2.674  1.00  0.00     0.026 A 
HETATM    6  C6  UNL     1       8.897  14.414  -2.945  1.00  0.00     0.005 A 
ENDROOT
BRANCH   6   7
HETATM    7  N1  UNL     1       8.387  14.807  -4.188  1.00  0.00    -0.303 NA
HETATM    8  H5  UNL     1       8.227  15.806  -4.265  1.00  0.00     0.124 HD
HETATM    9  H6  UNL     1       7.587  14.263  -4.494  1.00  0.00     0.124 HD
ENDBRANCH   6   7
BRANCH   3  10
HETATM   10  O1  UNL     1      10.340  13.622   0.875  1.00  0.00    -0.361 OA
HETATM   11  H7  UNL     1      10.547  12.675   0.929  1.00  0.00     0.217 HD
ENDBRANCH   3  10
TORSDOF 2
ENDMDL
MODEL 20
REMARK VINA RESULT:      -3.4      1.888      2.560
REMARK  2 active torsions:
REMARK  status: ('A' for Active; 'I' for Inactive)
REMARK    1  A    between atoms: C3_3  and  O1_8 
REMARK    2  A    between atoms: C6_6  and  N1_7 
ROOT
HETATM    1  C1  UNL     1       8.343  14.205  -0.341  1.00  0.00     0.026 A 
HETATM    2  C2  UNL     1       7.007  13.798  -0.372  1.00  0.00     0.038 A 
HETATM    3  C3  UNL     1       6.697  12.477  -0.660  1.00  0.00     0.065 A 
HETATM    4  C4  UNL     1       7.705  11.550  -0.902  1.00  0.00     0.038 A 
HETATM    5  C5  UNL     1       9.040  11.965  -0.870  1.00  0.00     0.026 A 
HETATM    6  C6  UNL     1       9.369  13.304  -0.640  1.00  0.00     0.005 A 
ENDROOT
BRANCH   6   7
HETATM    7  N1  UNL     1      10.708  13.685  -0.492  1.00  0.00    -0.303 NA
HETATM    8  H5  UNL     1      10.840  14.689  -0.414  1.00  0.00     0.124 HD
HETATM    9  H6  UNL     1      11.332  13.266  -1.173  1.00  0.00     0.124 HD
ENDBRANCH   6   7
BRANCH   3  10
HETATM   10  O1  UNL     1       5.383  12.119  -0.678  1.00  0.00    -0.361 OA
HETATM   11  H7  UNL     1       5.181  11.639   0.141  1.00  0.00     0.217 HD
ENDBRANCH   3  10
TORSDOF 2
ENDMDL
