MODEL 1
REMARK VINA RESULT:      -3.7      0.000      0.000
REMARK  2 active torsions:
REMARK  status: ('A' for Active; 'I' for Inactive)
REMARK    1  A    between atoms: C3_3  and  O1_8 
REMARK    2  A    between atoms: C6_6  and  N1_7 
ROOT
HETATM    1  C1  UNL     1       1.032   8.130  -3.450  1.00  0.00     0.026 A 
HETATM    2  C2  UNL     1       0.089   7.267  -2.888  1.00  0.00     0.038 A 
HETATM    3  C3  UNL     1       0.493   6.311  -1.967  1.00  0.00     0.065 A 
HETATM    4  C4  UNL     1       1.827   6.215  -1.587  1.00  0.00     0.038 A 
HETATM    5  C5  UNL     1       2.766   7.082  -2.155  1.00  0.00     0.026 A 
HETATM    6  C6  UNL     1       2.387   8.012  -3.128  1.00  0.00     0.005 A 
ENDROOT
BRANCH   6   7
HETATM    7  N1  UNL     1       3.310   8.952  -3.601  1.00  0.00    -0.303 NA
HETATM    8  H5  UNL     1       3.298   9.829  -3.089  1.00  0.00     0.124 HD
HETATM    9  H6  UNL     1       3.276   9.090  -4.606  1.00  0.00     0.124 HD
ENDBRANCH   6   7
BRANCH   3  10
HETATM   10  O1  UNL     1      -0.457   5.490  -1.440  1.00  0.00    -0.361 OA
HETATM   11  H7  UNL     1      -0.849   4.968  -2.158  1.00  0.00     0.217 HD
ENDBRANCH   3  10
TORSDOF 2
ENDMDL
MODEL 2
REMARK VINA RESULT:      -3.7      8.799      9.269
REMARK  2 active torsions:
REMARK  status: ('A' for Active; 'I' for Inactive)
REMARK    1  A    between atoms: C3_3  and  O1_8 
REMARK    2  A    between atoms: C6_6  and  N1_7 
ROOT
HETATM    1  C1  UNL     1       4.936  13.957   1.147  1.00  0.00     0.026 A 
HETATM    2  C2  UNL     1       4.013  13.312   1.973  1.00  0.00     0.038 A 
HETATM    3  C3  UNL     1       3.173  14.063   2.783  1.00  0.00     0.065 A 
HETATM    4  C4  UNL     1       3.229  15.452   2.766  1.00  0.00     0.038 A 
HETATM    5  C5  UNL     1       4.156  16.091   1.937  1.00  0.00     0.026 A 
HETATM    6  C6  UNL     1       5.051  15.351   1.158  1.00  0.00     0.005 A 
ENDROOT
BRANCH   6   7
HETATM    7  N1  UNL     1       5.892  15.997   0.245  1.00  0.00    -0.303 NA
HETATM    8  H5  UNL     1       5.426  16.715  -0.300  1.00  0.00     0.124 HD
HETATM    9  H6  UNL     1       6.433  15.363  -0.334  1.00  0.00     0.124 HD
ENDBRANCH   6   7
BRANCH   3  10
HETATM   10  O1  UNL     1       2.285  13.397   3.573  1.00  0.00    -0.361 OA
HETATM   11  H7  UNL     1       2.390  13.707   4.487  1.00  0.00     0.217 HD
ENDBRANCH   3  10
TORSDOF 2
ENDMDL
MODEL 3
REMARK VINA RESULT:      -3.5      9.237      9.849
REMARK  2 active torsions:
REMARK  status: ('A' for Active; 'I' for Inactive)
REMARK    1  A    between atoms: C3_3  and  O1_8 
REMARK    2  A    between atoms: C6_6  and  N1_7 
ROOT
HETATM    1  C1  UNL     1       4.143  13.399   1.845  1.00  0.00     0.026 A 
HETATM    2  C2  UNL     1       5.046  14.074   1.021  1.00  0.00     0.038 A 
HETATM    3  C3  UNL     1       5.073  15.461   1.021  1.00  0.00     0.065 A 
HETATM    4  C4  UNL     1       4.221  16.186   1.847  1.00  0.00     0.038 A 
HETATM    5  C5  UNL     1       3.319  15.504   2.668  1.00  0.00     0.026 A 
HETATM    6  C6  UNL     1       3.236  14.108   2.639  1.00  0.00     0.005 A 
ENDROOT
BRANCH   6   7
HETATM    7  N1  UNL     1       2.416  13.431   3.549  1.00  0.00    -0.303 NA
HETATM    8  H5  UNL     1       1.427  13.624   3.428  1.00  0.00     0.124 HD
HETATM    9  H6  UNL     1       2.712  13.523   4.515  1.00  0.00     0.124 HD
ENDBRANCH   6   7
BRANCH   3  10
HETATM   10  O1  UNL     1       5.970  16.082   0.204  1.00  0.00    -0.361 OA
HETATM   11  H7  UNL     1       6.584  16.596   0.753  1.00  0.00     0.217 HD
ENDBRANCH   3  10
TORSDOF 2
ENDMDL
MODEL 4
REMARK VINA RESULT:      -3.5      2.777      3.679
REMARK  2 active torsions:
REMARK  status: ('A' for Active; 'I' for Inactive)
REMARK    1  A    between atoms: C3_3  and  O1_8 
REMARK    2  A    between atoms: C6_6  and  N1_7 
ROOT
HETATM    1  C1  UNL     1       1.810   6.221  -1.598  1.00  0.00     0.026 A 
HETATM    2  C2  UNL     1       2.819   7.020  -2.139  1.00  0.00     0.038 A 
HETATM    3  C3  UNL     1       2.504   7.967  -3.103  1.00  0.00     0.065 A 
HETATM    4  C4  UNL     1       1.190   8.139  -3.524  1.00  0.00     0.038 A 
HETATM    5  C5  UNL     1       0.185   7.334  -2.979  1.00  0.00     0.026 A 
HETATM    6  C6  UNL     1       0.491   6.335  -2.049  1.00  0.00     0.005 A 
ENDROOT
BRANCH   6   7
HETATM    7  N1  UNL     1      -0.534   5.617  -1.423  1.00  0.00    -0.303 NA
HETATM    8  H5  UNL     1      -1.303   5.380  -2.042  1.00  0.00     0.124 HD
HETATM    9  H6  UNL     1      -0.852   6.031  -0.552  1.00  0.00     0.124 HD
ENDBRANCH   6   7
BRANCH   3  10
HETATM   10  O1  UNL     1       3.517   8.729  -3.604  1.00  0.00    -0.361 OA
HETATM   11  H7  UNL     1       4.358   8.397  -3.251  1.00  0.00     0.217 HD
ENDBRANCH   3  10
TORSDOF 2
ENDMDL
MODEL 5
REMARK VINA RESULT:      -3.5      9.336      9.713
REMARK  2 active torsions:
REMARK  status: ('A' for Active; 'I' for Inactive)
REMARK    1  A    between atoms: C3_3  and  O1_8 
REMARK    2  A    between atoms: C6_6  and  N1_7 
ROOT
HETATM    1  C1  UNL     1       4.107  14.949   4.405  1.00  0.00     0.026 A 
HETATM    2  C2  UNL     1       3.252  14.773   3.315  1.00  0.00     0.038 A 
HETATM    3  C3  UNL     1       3.311  13.599   2.577  1.00  0.00     0.065 A 
HETATM    4  C4  UNL     1       4.203  12.590   2.922  1.00  0.00     0.038 A 
HETATM    5  C5  UNL     1       5.057  12.774   4.013  1.00  0.00     0.026 A 
HETATM    6  C6  UNL     1       5.053  13.973   4.733  1.00  0.00     0.005 A 
ENDROOT
BRANCH   6   7
HETATM    7  N1  UNL     1       5.825  14.101   5.894  1.00  0.00    -0.303 NA
HETATM    8  H5  UNL     1       5.734  13.317   6.533  1.00  0.00     0.124 HD
HETATM    9  H6  UNL     1       5.719  14.995   6.361  1.00  0.00     0.124 HD
ENDBRANCH   6   7
BRANCH   3  10
HETATM   10  O1  UNL     1       2.458  13.465   1.523  1.00  0.00    -0.361 OA
HETATM   11  H7  UNL     1       2.751  12.715   0.981  1.00  0.00     0.217 HD
ENDBRANCH   3  10
TORSDOF 2
ENDMDL
MODEL 6
REMARK VINA RESULT:      -3.5      8.821      9.217
REMARK  2 active torsions:
REMARK  status: ('A' for Active; 'I' for Inactive)
REMARK    1  A    between atoms: C3_3  and  O1_8 
REMARK    2  A    between atoms: C6_6  and  N1_7 
ROOT
HETATM    1  C1  UNL     1       4.213  16.042   1.936  1.00  0.00     0.026 A 
HETATM    2  C2  UNL     1       3.246  15.387   2.701  1.00  0.00     0.038 A 
HETATM    3  C3  UNL     1       3.236  14.001   2.758  1.00  0.00     0.065 A 
HETATM    4  C4  UNL     1       4.190  13.258   2.072  1.00  0.00     0.038 A 
HETATM    5  C5  UNL     1       5.155  13.920   1.307  1.00  0.00     0.026 A 
HETATM    6  C6  UNL     1       5.145  15.314   1.190  1.00  0.00     0.005 A 
ENDROOT
BRANCH   6   7
HETATM    7  N1  UNL     1       6.183  15.972   0.521  1.00  0.00    -0.303 NA
HETATM    8  H5  UNL     1       6.898  16.341   1.141  1.00  0.00     0.124 HD
HETATM    9  H6  UNL     1       5.866  16.659  -0.154  1.00  0.00     0.124 HD
ENDBRANCH   6   7
BRANCH   3  10
HETATM   10  O1  UNL     1       2.278  13.400   3.517  1.00  0.00    -0.361 OA
HETATM   11  H7  UNL     1       1.413  13.763   3.269  1.00  0.00     0.217 HD
ENDBRANCH   3  10
TORSDOF 2
ENDMDL
MODEL 7
REMARK VINA RESULT:      -3.4      9.994     10.601
REMARK  2 active torsions:
REMARK  status: ('A' for Active; 'I' for Inactive)
REMARK    1  A    between atoms: C3_3  and  O1_8 
REMARK    2  A    between atoms: C6_6  and  N1_7 
ROOT
HETATM    1  C1  UNL     1       4.141  15.294   3.307  1.00  0.00     0.026 A 
HETATM    2  C2  UNL     1       5.242  16.152   3.276  1.00  0.00     0.038 A 
HETATM    3  C3  UNL     1       6.140  16.080   2.220  1.00  0.00     0.065 A 
HETATM    4  C4  UNL     1       5.945  15.172   1.185  1.00  0.00     0.038 A 
HETATM    5  C5  UNL     1       4.841  14.315   1.224  1.00  0.00     0.026 A 
HETATM    6  C6  UNL     1       3.957  14.333   2.308  1.00  0.00     0.005 A 
ENDROOT
BRANCH   6   7
HETATM    7  N1  UNL     1       2.792  13.558   2.281  1.00  0.00    -0.303 NA
HETATM    8  H5  UNL     1       2.888  12.662   2.748  1.00  0.00     0.124 HD
HETATM    9  H6  UNL     1       2.380  13.470   1.358  1.00  0.00     0.124 HD
ENDBRANCH   6   7
BRANCH   3  10
HETATM   10  O1  UNL     1       7.201  16.935   2.225  1.00  0.00    -0.361 OA
HETATM   11  H7  UNL     1       7.264  17.354   1.352  1.00  0.00     0.217 HD
ENDBRANCH   3  10
TORSDOF 2
ENDMDL
MODEL 8
REMARK VINA RESULT:      -3.3      9.167      9.778
REMARK  2 active torsions:
REMARK  status: ('A' for Active; 'I' for Inactive)
REMARK    1  A    between atoms: C3_3  and  O1_8 
REMARK    2  A    between atoms: C6_6  and  N1_7 
ROOT
HETATM    1  C1  UNL     1       4.693  13.369   3.986  1.00  0.00     0.026 A 
HETATM    2  C2  UNL     1       5.152  14.673   3.786  1.00  0.00     0.038 A 
HETATM    3  C3  UNL     1       5.187  15.200   2.503  1.00  0.00     0.065 A 
HETATM    4  C4  UNL     1       4.755  14.448   1.416  1.00  0.00     0.038 A 
HETATM    5  C5  UNL     1       4.298  13.144   1.624  1.00  0.00     0.026 A 
HETATM    6  C6  UNL     1       4.310  12.574   2.901  1.00  0.00     0.005 A 
ENDROOT
BRANCH   6   7
HETATM    7  N1  UNL     1       3.740  11.314   3.116  1.00  0.00    -0.303 NA
HETATM    8  H5  UNL     1       4.335  10.683   3.644  1.00  0.00     0.124 HD
HETATM    9  H6  UNL     1       3.368  10.883   2.277  1.00  0.00     0.124 HD
ENDBRANCH   6   7
BRANCH   3  10
HETATM   10  O1  UNL     1       5.639  16.477   2.349  1.00  0.00    -0.361 OA
HETATM   11  H7  UNL     1       5.312  17.012   3.090  1.00  0.00     0.217 HD
ENDBRANCH   3  10
TORSDOF 2
ENDMDL
MODEL 9
REMARK VINA RESULT:      -3.3     10.110     10.700
REMARK  2 active torsions:
REMARK  status: ('A' for Active; 'I' for Inactive)
REMARK    1  A    between atoms: C3_3  and  O1_8 
REMARK    2  A    between atoms: C6_6  and  N1_7 
ROOT
HETATM    1  C1  UNL     1       4.680  14.057   2.546  1.00  0.00     0.026 A 
HETATM    2  C2  UNL     1       4.963  14.510   1.256  1.00  0.00     0.038 A 
HETATM    3  C3  UNL     1       5.703  15.671   1.081  1.00  0.00     0.065 A 
HETATM    4  C4  UNL     1       6.179  16.379   2.180  1.00  0.00     0.038 A 
HETATM    5  C5  UNL     1       5.891  15.919   3.468  1.00  0.00     0.026 A 
HETATM    6  C6  UNL     1       5.098  14.784   3.664  1.00  0.00     0.005 A 
ENDROOT
BRANCH   6   7
HETATM    7  N1  UNL     1       4.915  14.266   4.952  1.00  0.00    -0.303 NA
HETATM    8  H5  UNL     1       4.619  13.295   4.962  1.00  0.00     0.124 HD
HETATM    9  H6  UNL     1       4.344  14.851   5.552  1.00  0.00     0.124 HD
ENDBRANCH   6   7
BRANCH   3  10
HETATM   10  O1  UNL     1       5.960  16.079  -0.193  1.00  0.00    -0.361 OA
HETATM   11  H7  UNL     1       5.691  15.375  -0.804  1.00  0.00     0.217 HD
ENDBRANCH   3  10
TORSDOF 2
ENDMDL
MODEL 10
REMARK VINA RESULT:      -3.2      9.928     10.289
REMARK  2 active torsions:
REMARK  status: ('A' for Active; 'I' for Inactive)
REMARK    1  A    between atoms: C3_3  and  O1_8 
REMARK    2  A    between atoms: C6_6  and  N1_7 
ROOT
HETATM    1  C1  UNL     1       2.628  13.328   4.018  1.00  0.00     0.026 A 
HETATM    2  C2  UNL     1       2.683  14.527   4.733  1.00  0.00     0.038 A 
HETATM    3  C3  UNL     1       3.911  15.028   5.141  1.00  0.00     0.065 A 
HETATM    4  C4  UNL     1       5.088  14.357   4.831  1.00  0.00     0.038 A 
HETATM    5  C5  UNL     1       5.025  13.157   4.116  1.00  0.00     0.026 A 
HETATM    6  C6  UNL     1       3.794  12.606   3.747  1.00  0.00     0.005 A 
ENDROOT
BRANCH   6   7
HETATM    7  N1  UNL     1       3.747  11.469   2.931  1.00  0.00    -0.303 NA
HETATM    8  H5  UNL     1       2.806  11.134   2.753  1.00  0.00     0.124 HD
HETATM    9  H6  UNL     1       4.372  10.727   3.225  1.00  0.00     0.124 HD
ENDBRANCH   6   7
BRANCH   3  10
HETATM   10  O1  UNL     1       3.922  16.202   5.834  1.00  0.00    -0.361 OA
HETATM   11  H7  UNL     1       3.427  16.865   5.327  1.00  0.00     0.217 HD
ENDBRANCH   3  10
TORSDOF 2
ENDMDL
MODEL 11
REMARK VINA RESULT:      -3.2      9.841     10.231
REMARK  2 active torsions:
REMARK  status: ('A' for Active; 'I' for Inactive)
REMARK    1  A    between atoms: C3_3  and  O1_8 
REMARK    2  A    between atoms: C6_6  and  N1_7 
ROOT
HETATM    1  C1  UNL     1       5.306  15.570   2.958  1.00  0.00     0.026 A 
HETATM    2  C2  UNL     1       4.351  14.919   2.175  1.00  0.00     0.038 A 
HETATM    3  C3  UNL     1       3.524  13.965   2.750  1.00  0.00     0.065 A 
HETATM    4  C4  UNL     1       3.627  13.662   4.103  1.00  0.00     0.038 A 
HETATM    5  C5  UNL     1       4.586  14.317   4.881  1.00  0.00     0.026 A 
HETATM    6  C6  UNL     1       5.468  15.239   4.307  1.00  0.00     0.005 A 
ENDROOT
BRANCH   6   7
HETATM    7  N1  UNL     1       6.343  15.975   5.114  1.00  0.00    -0.303 NA
HETATM    8  H5  UNL     1       6.346  15.680   6.086  1.00  0.00     0.124 HD
HETATM    9  H6  UNL     1       6.245  16.979   5.015  1.00  0.00     0.124 HD
ENDBRANCH   6   7
BRANCH   3  10
HETATM   10  O1  UNL     1       2.603  13.354   1.953  1.00  0.00    -0.361 OA
HETATM   11  H7  UNL     1       3.005  13.190   1.085  1.00  0.00     0.217 HD
ENDBRANCH   3  10
TORSDOF 2
ENDMDL
MODEL 12
REMARK VINA RESULT:      -3.1      9.394      9.700
REMARK  2 active torsions:
REMARK  status: ('A' for Active; 'I' for Inactive)
REMARK    1  A    between atoms: C3_3  and  O1_8 
REMARK    2  A    between atoms: C6_6  and  N1_7 
ROOT
HETATM    1  C1  UNL     1       2.162  14.823   4.595  1.00  0.00     0.026 A 
HETATM    2  C2  UNL     1       2.410  13.450   4.525  1.00  0.00     0.038 A 
HETATM    3  C3  UNL     1       3.128  12.935   3.454  1.00  0.00     0.065 A 
HETATM    4  C4  UNL     1       3.616  13.775   2.460  1.00  0.00     0.038 A 
HETATM    5  C5  UNL     1       3.363  15.148   2.536  1.00  0.00     0.026 A 
HETATM    6  C6  UNL     1       2.592  15.678   3.576  1.00  0.00     0.005 A 
ENDROOT
BRANCH   6   7
HETATM    7  N1  UNL     1       2.445  17.063   3.708  1.00  0.00    -0.303 NA
HETATM    8  H5  UNL     1       1.734  17.336   4.379  1.00  0.00     0.124 HD
HETATM    9  H6  UNL     1       2.351  17.552   2.825  1.00  0.00     0.124 HD
ENDBRANCH   6   7
BRANCH   3  10
HETATM   10  O1  UNL     1       3.351  11.591   3.423  1.00  0.00    -0.361 OA
HETATM   11  H7  UNL     1       3.617  11.342   2.524  1.00  0.00     0.217 HD
ENDBRANCH   3  10
TORSDOF 2
ENDMDL
MODEL 13
REMARK VINA RESULT:      -3.1      8.912      9.295
REMARK  2 active torsions:
REMARK  status: ('A' for Active; 'I' for Inactive)
REMARK    1  A    between atoms: C3_3  and  O1_8 
REMARK    2  A    between atoms: C6_6  and  N1_7 
ROOT
HETATM    1  C1  UNL     1       4.791  14.532   2.299  1.00  0.00     0.026 A 
HETATM    2  C2  UNL     1       4.707  13.138   2.307  1.00  0.00     0.038 A 
HETATM    3  C3  UNL     1       3.779  12.510   3.126  1.00  0.00     0.065 A 
HETATM    4  C4  UNL     1       2.922  13.256   3.927  1.00  0.00     0.038 A 
HETATM    5  C5  UNL     1       3.013  14.651   3.915  1.00  0.00     0.026 A 
HETATM    6  C6  UNL     1       3.981  15.300   3.141  1.00  0.00     0.005 A 
ENDROOT
BRANCH   6   7
HETATM    7  N1  UNL     1       3.986  16.696   3.044  1.00  0.00    -0.303 NA
HETATM    8  H5  UNL     1       3.325  17.150   3.666  1.00  0.00     0.124 HD
HETATM    9  H6  UNL     1       3.920  17.041   2.092  1.00  0.00     0.124 HD
ENDBRANCH   6   7
BRANCH   3  10
HETATM   10  O1  UNL     1       3.726  11.148   3.104  1.00  0.00    -0.361 OA
HETATM   11  H7  UNL     1       4.356  10.803   3.757  1.00  0.00     0.217 HD
ENDBRANCH   3  10
TORSDOF 2
ENDMDL
MODEL 14
REMARK VINA RESULT:      -3.1     10.330     10.777
REMARK  2 active torsions:
REMARK  status: ('A' for Active; 'I' for Inactive)
REMARK    1  A    between atoms: C3_3  and  O1_8 
REMARK    2  A    between atoms: C6_6  and  N1_7 
ROOT
HETATM    1  C1  UNL     1       4.569  13.426   3.753  1.00  0.00     0.026 A 
HETATM    2  C2  UNL     1       5.116  13.956   4.924  1.00  0.00     0.038 A 
HETATM    3  C3  UNL     1       4.475  15.003   5.570  1.00  0.00     0.065 A 
HETATM    4  C4  UNL     1       3.284  15.519   5.071  1.00  0.00     0.038 A 
HETATM    5  C5  UNL     1       2.743  14.984   3.898  1.00  0.00     0.026 A 
HETATM    6  C6  UNL     1       3.405  13.969   3.201  1.00  0.00     0.005 A 
ENDROOT
BRANCH   6   7
HETATM    7  N1  UNL     1       2.798  13.360   2.097  1.00  0.00    -0.303 NA
HETATM    8  H5  UNL     1       2.910  13.879   1.232  1.00  0.00     0.124 HD
HETATM    9  H6  UNL     1       1.835  13.084   2.258  1.00  0.00     0.124 HD
ENDBRANCH   6   7
BRANCH   3  10
HETATM   10  O1  UNL     1       5.039  15.490   6.710  1.00  0.00    -0.361 OA
HETATM   11  H7  UNL     1       5.952  15.167   6.767  1.00  0.00     0.217 HD
ENDBRANCH   3  10
TORSDOF 2
ENDMDL
MODEL 15
REMARK VINA RESULT:      -3.1     15.337     16.052
REMARK  2 active torsions:
REMARK  status: ('A' for Active; 'I' for Inactive)
REMARK    1  A    between atoms: C3_3  and  O1_8 
REMARK    2  A    between atoms: C6_6  and  N1_7 
ROOT
HETATM    1  C1  UNL     1      10.630  16.929   3.180  1.00  0.00     0.026 A 
HETATM    2  C2  UNL     1      11.474  16.358   4.135  1.00  0.00     0.038 A 
HETATM    3  C3  UNL     1      12.064  17.161   5.100  1.00  0.00     0.065 A 
HETATM    4  C4  UNL     1      11.810  18.528   5.135  1.00  0.00     0.038 A 
HETATM    5  C5  UNL     1      10.965  19.093   4.176  1.00  0.00     0.026 A 
HETATM    6  C6  UNL     1      10.408  18.310   3.160  1.00  0.00     0.005 A 
ENDROOT
BRANCH   6   7
HETATM    7  N1  UNL     1       9.472  18.861   2.278  1.00  0.00    -0.303 NA
HETATM    8  H5  UNL     1       9.123  18.202   1.588  1.00  0.00     0.124 HD
HETATM    9  H6  UNL     1       9.768  19.737   1.860  1.00  0.00     0.124 HD
ENDBRANCH   6   7
BRANCH   3  10
HETATM   10  O1  UNL     1      12.879  16.566   6.015  1.00  0.00    -0.361 OA
HETATM   11  H7  UNL     1      13.520  16.010   5.544  1.00  0.00     0.217 HD
ENDBRANCH   3  10
TORSDOF 2
ENDMDL
MODEL 16
REMARK VINA RESULT:      -3.0     15.398     16.119
REMARK  2 active torsions:
REMARK  status: ('A' for Active; 'I' for Inactive)
REMARK    1  A    between atoms: C3_3  and  O1_8 
REMARK    2  A    between atoms: C6_6  and  N1_7 
ROOT
HETATM    1  C1  UNL     1      11.860  18.465   5.182  1.00  0.00     0.026 A 
HETATM    2  C2  UNL     1      11.050  18.986   4.170  1.00  0.00     0.038 A 
HETATM    3  C3  UNL     1      10.523  18.137   3.206  1.00  0.00     0.065 A 
HETATM    4  C4  UNL     1      10.780  16.771   3.249  1.00  0.00     0.038 A 
HETATM    5  C5  UNL     1      11.593  16.258   4.264  1.00  0.00     0.026 A 
HETATM    6  C6  UNL     1      12.181  17.105   5.209  1.00  0.00     0.005 A 
ENDROOT
BRANCH   6   7
HETATM    7  N1  UNL     1      12.893  16.570   6.288  1.00  0.00    -0.303 NA
HETATM    8  H5  UNL     1      13.834  16.274   6.049  1.00  0.00     0.124 HD
HETATM    9  H6  UNL     1      12.384  15.860   6.804  1.00  0.00     0.124 HD
ENDBRANCH   6   7
BRANCH   3  10
HETATM   10  O1  UNL     1       9.735  18.683   2.237  1.00  0.00    -0.361 OA
HETATM   11  H7  UNL     1      10.301  19.165   1.614  1.00  0.00     0.217 HD
ENDBRANCH   3  10
TORSDOF 2
ENDMDL
MODEL 17
REMARK VINA RESULT:      -3.0     10.533     10.924
REMARK  2 active torsions:
REMARK  status: ('A' for Active; 'I' for Inactive)
REMARK    1  A    between atoms: C3_3  and  O1_8 
REMARK    2  A    between atoms: C6_6  and  N1_7 
ROOT
HETATM    1  C1  UNL     1       3.651  14.252   3.140  1.00  0.00     0.026 A 
HETATM    2  C2  UNL     1       4.698  13.782   3.935  1.00  0.00     0.038 A 
HETATM    3  C3  UNL     1       4.931  14.358   5.176  1.00  0.00     0.065 A 
HETATM    4  C4  UNL     1       4.122  15.388   5.642  1.00  0.00     0.038 A 
HETATM    5  C5  UNL     1       3.077  15.855   4.840  1.00  0.00     0.026 A 
HETATM    6  C6  UNL     1       2.862  15.327   3.562  1.00  0.00     0.005 A 
ENDROOT
BRANCH   6   7
HETATM    7  N1  UNL     1       1.744  15.717   2.818  1.00  0.00    -0.303 NA
HETATM    8  H5  UNL     1       0.863  15.587   3.306  1.00  0.00     0.124 HD
HETATM    9  H6  UNL     1       1.723  15.336   1.878  1.00  0.00     0.124 HD
ENDBRANCH   6   7
BRANCH   3  10
HETATM   10  O1  UNL     1       5.961  13.869   5.923  1.00  0.00    -0.361 OA
HETATM   11  H7  UNL     1       6.736  13.760   5.349  1.00  0.00     0.217 HD
ENDBRANCH   3  10
TORSDOF 2
ENDMDL
MODEL 18
REMARK VINA RESULT:      -2.8     10.976     11.264
REMARK  2 active torsions:
REMARK  status: ('A' for Active; 'I' for Inactive)
REMARK    1  A    between atoms: C3_3  and  O1_8 
REMARK    2  A    between atoms: C6_6  and  N1_7 
ROOT
HETATM    1  C1  UNL     1       3.750  14.120   4.657  1.00  0.00     0.026 A 
HETATM    2  C2  UNL     1       2.376  14.182   4.413  1.00  0.00     0.038 A 
HETATM    3  C3  UNL     1       1.702  15.383   4.577  1.00  0.00     0.065 A 
HETATM    4  C4  UNL     1       2.384  16.530   4.967  1.00  0.00     0.038 A 
HETATM    5  C5  UNL     1       3.759  16.461   5.211  1.00  0.00     0.026 A 
HETATM    6  C6  UNL     1       4.445  15.246   5.108  1.00  0.00     0.005 A 
ENDROOT
BRANCH   6   7
HETATM    7  N1  UNL     1       5.838  15.211   5.237  1.00  0.00    -0.303 NA
HETATM    8  H5  UNL     1       6.295  16.078   4.970  1.00  0.00     0.124 HD
HETATM    9  H6  UNL     1       6.270  14.399   4.808  1.00  0.00     0.124 HD
ENDBRANCH   6   7
BRANCH   3  10
HETATM   10  O1  UNL     1       0.363  15.403   4.327  1.00  0.00    -0.361 OA
HETATM   11  H7  UNL     1       0.225  15.659   3.401  1.00  0.00     0.217 HD
ENDBRANCH   3  10
TORSDOF 2
ENDMDL
MODEL 19
REMARK VINA RESULT:      -2.8     15.251     16.009
REMARK  2 active torsions:
REMARK  status: ('A' for Active; 'I' for Inactive)
REMARK    1  A    between atoms: C3_3  and  O1_8 
REMARK    2  A    between atoms: C6_6  and  N1_7 
ROOT
HETATM    1  C1  UNL     1      12.143  16.872   5.287  1.00  0.00     0.026 A 
HETATM    2  C2  UNL     1      11.740  16.044   4.237  1.00  0.00     0.038 A 
HETATM    3  C3  UNL     1      10.995  16.572   3.192  1.00  0.00     0.065 A 
HETATM    4  C4  UNL     1      10.661  17.922   3.172  1.00  0.00     0.038 A 
HETATM    5  C5  UNL     1      11.067  18.744   4.227  1.00  0.00     0.026 A 
HETATM    6  C6  UNL     1      11.767  18.219   5.317  1.00  0.00     0.005 A 
ENDROOT
BRANCH   6   7
HETATM    7  N1  UNL     1      12.271  19.070   6.307  1.00  0.00    -0.303 NA
HETATM    8  H5  UNL     1      11.571  19.378   6.975  1.00  0.00     0.124 HD
HETATM    9  H6  UNL     1      12.824  19.839   5.945  1.00  0.00     0.124 HD
ENDBRANCH   6   7
BRANCH   3  10
HETATM   10  O1  UNL     1      10.623  15.732   2.185  1.00  0.00    -0.361 OA
HETATM   11  H7  UNL     1      10.247  14.928   2.576  1.00  0.00     0.217 HD
ENDBRANCH   3  10
TORSDOF 2
ENDMDL
MODEL 20
REMARK VINA RESULT:      -2.8     10.554     11.007
REMARK  2 active torsions:
REMARK  status: ('A' for Active; 'I' for Inactive)
REMARK    1  A    between atoms: C3_3  and  O1_8 
REMARK    2  A    between atoms: C6_6  and  N1_7 
ROOT
HETATM    1  C1  UNL     1       3.821  14.671   2.276  1.00  0.00     0.026 A 
HETATM    2  C2  UNL     1       4.428  15.923   2.155  1.00  0.00     0.038 A 
HETATM    3  C3  UNL     1       4.293  16.855   3.174  1.00  0.00     0.065 A 
HETATM    4  C4  UNL     1       3.572  16.548   4.323  1.00  0.00     0.038 A 
HETATM    5  C5  UNL     1       2.966  15.293   4.437  1.00  0.00     0.026 A 
HETATM    6  C6  UNL     1       3.042  14.363   3.395  1.00  0.00     0.005 A 
ENDROOT
BRANCH   6   7
HETATM    7  N1  UNL     1       2.535  13.070   3.567  1.00  0.00    -0.303 NA
HETATM    8  H5  UNL     1       1.543  13.046   3.784  1.00  0.00     0.124 HD
HETATM    9  H6  UNL     1       3.083  12.494   4.197  1.00  0.00     0.124 HD
ENDBRANCH   6   7
BRANCH   3  10
HETATM   10  O1  UNL     1       4.902  18.064   3.019  1.00  0.00    -0.361 OA
HETATM   11  H7  UNL     1       5.295  18.101   2.133  1.00  0.00     0.217 HD
ENDBRANCH   3  10
TORSDOF 2
ENDMDL
