MODEL 1
REMARK VINA RESULT:      -5.0      0.000      0.000
REMARK  2 active torsions:
REMARK  status: ('A' for Active; 'I' for Inactive)
REMARK    1  A    between atoms: C3_3  and  O1_8 
REMARK    2  A    between atoms: C6_6  and  N1_7 
ROOT
HETATM    1  C1  UNL     1       2.262   4.864 -10.980  1.00  0.00     0.026 A 
HETATM    2  C2  UNL     1       2.455   5.768 -12.027  1.00  0.00     0.038 A 
HETATM    3  C3  UNL     1       1.917   5.498 -13.277  1.00  0.00     0.065 A 
HETATM    4  C4  UNL     1       1.173   4.343 -13.493  1.00  0.00     0.038 A 
HETATM    5  C5  UNL     1       0.985   3.443 -12.441  1.00  0.00     0.026 A 
HETATM    6  C6  UNL     1       1.569   3.668 -11.190  1.00  0.00     0.005 A 
ENDROOT
BRANCH   6   7
HETATM    7  N1  UNL     1       1.277   2.824 -10.113  1.00  0.00    -0.303 NA
HETATM    8  H5  UNL     1       0.844   3.300  -9.328  1.00  0.00     0.124 HD
HETATM    9  H6  UNL     1       2.054   2.238  -9.828  1.00  0.00     0.124 HD
ENDBRANCH   6   7
BRANCH   3  10
HETATM   10  O1  UNL     1       2.125   6.406 -14.272  1.00  0.00    -0.361 OA
HETATM   11  H7  UNL     1       1.288   6.548 -14.742  1.00  0.00     0.217 HD
ENDBRANCH   3  10
TORSDOF 2
ENDMDL
MODEL 2
REMARK VINA RESULT:      -5.0      0.086      1.706
REMARK  2 active torsions:
REMARK  status: ('A' for Active; 'I' for Inactive)
REMARK    1  A    between atoms: C3_3  and  O1_8 
REMARK    2  A    between atoms: C6_6  and  N1_7 
ROOT
HETATM    1  C1  UNL     1       0.938   3.503 -12.414  1.00  0.00     0.026 A 
HETATM    2  C2  UNL     1       1.173   4.401 -13.458  1.00  0.00     0.038 A 
HETATM    3  C3  UNL     1       1.930   5.541 -13.226  1.00  0.00     0.065 A 
HETATM    4  C4  UNL     1       2.471   5.789 -11.969  1.00  0.00     0.038 A 
HETATM    5  C5  UNL     1       2.229   4.886 -10.929  1.00  0.00     0.026 A 
HETATM    6  C6  UNL     1       1.420   3.763 -11.128  1.00  0.00     0.005 A 
ENDROOT
BRANCH   6   7
HETATM    7  N1  UNL     1       1.283   2.806 -10.116  1.00  0.00    -0.303 NA
HETATM    8  H5  UNL     1       0.507   2.985  -9.487  1.00  0.00     0.124 HD
HETATM    9  H6  UNL     1       2.145   2.607  -9.619  1.00  0.00     0.124 HD
ENDBRANCH   6   7
BRANCH   3  10
HETATM   10  O1  UNL     1       2.140   6.391 -14.271  1.00  0.00    -0.361 OA
HETATM   11  H7  UNL     1       3.095   6.457 -14.429  1.00  0.00     0.217 HD
ENDBRANCH   3  10
TORSDOF 2
ENDMDL
MODEL 3
REMARK VINA RESULT:      -5.0      2.780      3.265
REMARK  2 active torsions:
REMARK  status: ('A' for Active; 'I' for Inactive)
REMARK    1  A    between atoms: C3_3  and  O1_8 
REMARK    2  A    between atoms: C6_6  and  N1_7 
ROOT
HETATM    1  C1  UNL     1       2.395   5.730 -11.852  1.00  0.00     0.026 A 
HETATM    2  C2  UNL     1       2.159   4.793 -10.843  1.00  0.00     0.038 A 
HETATM    3  C3  UNL     1       1.493   3.614 -11.143  1.00  0.00     0.065 A 
HETATM    4  C4  UNL     1       1.071   3.348 -12.441  1.00  0.00     0.038 A 
HETATM    5  C5  UNL     1       1.309   4.292 -13.445  1.00  0.00     0.026 A 
HETATM    6  C6  UNL     1       1.927   5.511 -13.151  1.00  0.00     0.005 A 
ENDROOT
BRANCH   6   7
HETATM    7  N1  UNL     1       2.267   6.395 -14.182  1.00  0.00    -0.303 NA
HETATM    8  H5  UNL     1       1.472   6.702 -14.735  1.00  0.00     0.124 HD
HETATM    9  H6  UNL     1       3.039   6.077 -14.757  1.00  0.00     0.124 HD
ENDBRANCH   6   7
BRANCH   3  10
HETATM   10  O1  UNL     1       1.285   2.724 -10.132  1.00  0.00    -0.361 OA
HETATM   11  H7  UNL     1       1.916   1.992 -10.228  1.00  0.00     0.217 HD
ENDBRANCH   3  10
TORSDOF 2
ENDMDL
MODEL 4
REMARK VINA RESULT:      -4.9      2.791      3.687
REMARK  2 active torsions:
REMARK  status: ('A' for Active; 'I' for Inactive)
REMARK    1  A    between atoms: C3_3  and  O1_8 
REMARK    2  A    between atoms: C6_6  and  N1_7 
ROOT
HETATM    1  C1  UNL     1       1.609   4.327 -13.507  1.00  0.00     0.026 A 
HETATM    2  C2  UNL     1       1.323   3.419 -12.485  1.00  0.00     0.038 A 
HETATM    3  C3  UNL     1       1.700   3.709 -11.181  1.00  0.00     0.065 A 
HETATM    4  C4  UNL     1       2.346   4.903 -10.880  1.00  0.00     0.038 A 
HETATM    5  C5  UNL     1       2.631   5.806 -11.908  1.00  0.00     0.026 A 
HETATM    6  C6  UNL     1       2.311   5.506 -13.236  1.00  0.00     0.005 A 
ENDROOT
BRANCH   6   7
HETATM    7  N1  UNL     1       2.492   6.465 -14.239  1.00  0.00    -0.303 NA
HETATM    8  H5  UNL     1       2.600   7.410 -13.884  1.00  0.00     0.124 HD
HETATM    9  H6  UNL     1       1.809   6.410 -14.988  1.00  0.00     0.124 HD
ENDBRANCH   6   7
BRANCH   3  10
HETATM   10  O1  UNL     1       1.401   2.799 -10.213  1.00  0.00    -0.361 OA
HETATM   11  H7  UNL     1       0.442   2.645 -10.218  1.00  0.00     0.217 HD
ENDBRANCH   3  10
TORSDOF 2
ENDMDL
MODEL 5
REMARK VINA RESULT:      -4.6      1.575      1.894
REMARK  2 active torsions:
REMARK  status: ('A' for Active; 'I' for Inactive)
REMARK    1  A    between atoms: C3_3  and  O1_8 
REMARK    2  A    between atoms: C6_6  and  N1_7 
ROOT
HETATM    1  C1  UNL     1       2.324   3.770  -9.998  1.00  0.00     0.026 A 
HETATM    2  C2  UNL     1       2.357   4.541 -11.162  1.00  0.00     0.038 A 
HETATM    3  C3  UNL     1       1.184   4.777 -11.865  1.00  0.00     0.065 A 
HETATM    4  C4  UNL     1      -0.028   4.267 -11.411  1.00  0.00     0.038 A 
HETATM    5  C5  UNL     1      -0.053   3.495 -10.246  1.00  0.00     0.026 A 
HETATM    6  C6  UNL     1       1.127   3.197  -9.557  1.00  0.00     0.005 A 
ENDROOT
BRANCH   6   7
HETATM    7  N1  UNL     1       1.076   2.526  -8.330  1.00  0.00    -0.303 NA
HETATM    8  H5  UNL     1       0.231   1.979  -8.199  1.00  0.00     0.124 HD
HETATM    9  H6  UNL     1       1.283   3.116  -7.531  1.00  0.00     0.124 HD
ENDBRANCH   6   7
BRANCH   3  10
HETATM   10  O1  UNL     1       1.257   5.536 -12.994  1.00  0.00    -0.361 OA
HETATM   11  H7  UNL     1       1.201   6.472 -12.742  1.00  0.00     0.217 HD
ENDBRANCH   3  10
TORSDOF 2
ENDMDL
MODEL 6
REMARK VINA RESULT:      -4.6      3.136      3.702
REMARK  2 active torsions:
REMARK  status: ('A' for Active; 'I' for Inactive)
REMARK    1  A    between atoms: C3_3  and  O1_8 
REMARK    2  A    between atoms: C6_6  and  N1_7 
ROOT
HETATM    1  C1  UNL     1       2.413   4.473 -11.262  1.00  0.00     0.026 A 
HETATM    2  C2  UNL     1       2.338   3.697 -10.104  1.00  0.00     0.038 A 
HETATM    3  C3  UNL     1       1.105   3.240  -9.661  1.00  0.00     0.065 A 
HETATM    4  C4  UNL     1      -0.055   3.535 -10.369  1.00  0.00     0.038 A 
HETATM    5  C5  UNL     1       0.028   4.314 -11.527  1.00  0.00     0.026 A 
HETATM    6  C6  UNL     1       1.254   4.832 -11.956  1.00  0.00     0.005 A 
ENDROOT
BRANCH   6   7
HETATM    7  N1  UNL     1       1.343   5.509 -13.178  1.00  0.00    -0.303 NA
HETATM    8  H5  UNL     1       2.270   5.875 -13.374  1.00  0.00     0.124 HD
HETATM    9  H6  UNL     1       0.616   6.202 -13.317  1.00  0.00     0.124 HD
ENDBRANCH   6   7
BRANCH   3  10
HETATM   10  O1  UNL     1       1.074   2.483  -8.528  1.00  0.00    -0.361 OA
HETATM   11  H7  UNL     1       0.444   2.881  -7.907  1.00  0.00     0.217 HD
ENDBRANCH   3  10
TORSDOF 2
ENDMDL
MODEL 7
REMARK VINA RESULT:      -4.5      3.360      4.373
REMARK  2 active torsions:
REMARK  status: ('A' for Active; 'I' for Inactive)
REMARK    1  A    between atoms: C3_3  and  O1_8 
REMARK    2  A    between atoms: C6_6  and  N1_7 
ROOT
HETATM    1  C1  UNL     1       3.651   6.594 -13.820  1.00  0.00     0.026 A 
HETATM    2  C2  UNL     1       2.620   5.852 -13.242  1.00  0.00     0.038 A 
HETATM    3  C3  UNL     1       2.539   5.746 -11.860  1.00  0.00     0.065 A 
HETATM    4  C4  UNL     1       3.466   6.387 -11.046  1.00  0.00     0.038 A 
HETATM    5  C5  UNL     1       4.497   7.128 -11.633  1.00  0.00     0.026 A 
HETATM    6  C6  UNL     1       4.629   7.197 -13.023  1.00  0.00     0.005 A 
ENDROOT
BRANCH   6   7
HETATM    7  N1  UNL     1       5.590   8.036 -13.599  1.00  0.00    -0.303 NA
HETATM    8  H5  UNL     1       5.711   8.915 -13.106  1.00  0.00     0.124 HD
HETATM    9  H6  UNL     1       5.476   8.166 -14.598  1.00  0.00     0.124 HD
ENDBRANCH   6   7
BRANCH   3  10
HETATM   10  O1  UNL     1       1.517   5.015 -11.334  1.00  0.00    -0.361 OA
HETATM   11  H7  UNL     1       0.964   5.601 -10.793  1.00  0.00     0.217 HD
ENDBRANCH   3  10
TORSDOF 2
ENDMDL
MODEL 8
REMARK VINA RESULT:      -4.4      2.388      2.847
REMARK  2 active torsions:
REMARK  status: ('A' for Active; 'I' for Inactive)
REMARK    1  A    between atoms: C3_3  and  O1_8 
REMARK    2  A    between atoms: C6_6  and  N1_7 
ROOT
HETATM    1  C1  UNL     1       2.599   4.724 -10.936  1.00  0.00     0.026 A 
HETATM    2  C2  UNL     1       1.364   5.214 -11.365  1.00  0.00     0.038 A 
HETATM    3  C3  UNL     1       0.193   4.668 -10.857  1.00  0.00     0.065 A 
HETATM    4  C4  UNL     1       0.240   3.648  -9.913  1.00  0.00     0.038 A 
HETATM    5  C5  UNL     1       1.480   3.162  -9.490  1.00  0.00     0.026 A 
HETATM    6  C6  UNL     1       2.669   3.659 -10.033  1.00  0.00     0.005 A 
ENDROOT
BRANCH   6   7
HETATM    7  N1  UNL     1       3.904   3.251  -9.518  1.00  0.00    -0.303 NA
HETATM    8  H5  UNL     1       4.651   3.244 -10.206  1.00  0.00     0.124 HD
HETATM    9  H6  UNL     1       3.862   2.388  -8.985  1.00  0.00     0.124 HD
ENDBRANCH   6   7
BRANCH   3  10
HETATM   10  O1  UNL     1      -0.992   5.175 -11.298  1.00  0.00    -0.361 OA
HETATM   11  H7  UNL     1      -1.551   5.370 -10.529  1.00  0.00     0.217 HD
ENDBRANCH   3  10
TORSDOF 2
ENDMDL
MODEL 9
REMARK VINA RESULT:      -4.4      2.389      3.368
REMARK  2 active torsions:
REMARK  status: ('A' for Active; 'I' for Inactive)
REMARK    1  A    between atoms: C3_3  and  O1_8 
REMARK    2  A    between atoms: C6_6  and  N1_7 
ROOT
HETATM    1  C1  UNL     1       2.798   5.810 -13.208  1.00  0.00     0.026 A 
HETATM    2  C2  UNL     1       3.939   6.492 -13.636  1.00  0.00     0.038 A 
HETATM    3  C3  UNL     1       4.757   7.115 -12.705  1.00  0.00     0.065 A 
HETATM    4  C4  UNL     1       4.461   7.053 -11.347  1.00  0.00     0.038 A 
HETATM    5  C5  UNL     1       3.316   6.370 -10.927  1.00  0.00     0.026 A 
HETATM    6  C6  UNL     1       2.447   5.786 -11.855  1.00  0.00     0.005 A 
ENDROOT
BRANCH   6   7
HETATM    7  N1  UNL     1       1.371   5.005 -11.418  1.00  0.00    -0.303 NA
HETATM    8  H5  UNL     1       0.617   4.935 -12.095  1.00  0.00     0.124 HD
HETATM    9  H6  UNL     1       1.038   5.247 -10.491  1.00  0.00     0.124 HD
ENDBRANCH   6   7
BRANCH   3  10
HETATM   10  O1  UNL     1       5.863   7.767 -13.161  1.00  0.00    -0.361 OA
HETATM   11  H7  UNL     1       6.534   7.109 -13.402  1.00  0.00     0.217 HD
ENDBRANCH   3  10
TORSDOF 2
ENDMDL
MODEL 10
REMARK VINA RESULT:      -4.4      5.563      6.388
REMARK  2 active torsions:
REMARK  status: ('A' for Active; 'I' for Inactive)
REMARK    1  A    between atoms: C3_3  and  O1_8 
REMARK    2  A    between atoms: C6_6  and  N1_7 
ROOT
HETATM    1  C1  UNL     1       6.656   7.436 -13.964  1.00  0.00     0.026 A 
HETATM    2  C2  UNL     1       5.341   7.014 -13.758  1.00  0.00     0.038 A 
HETATM    3  C3  UNL     1       4.405   7.158 -14.772  1.00  0.00     0.065 A 
HETATM    4  C4  UNL     1       4.768   7.705 -15.998  1.00  0.00     0.038 A 
HETATM    5  C5  UNL     1       6.086   8.127 -16.197  1.00  0.00     0.026 A 
HETATM    6  C6  UNL     1       7.029   8.044 -15.167  1.00  0.00     0.005 A 
ENDROOT
BRANCH   6   7
HETATM    7  N1  UNL     1       8.370   8.357 -15.413  1.00  0.00    -0.303 NA
HETATM    8  H5  UNL     1       8.623   9.304 -15.148  1.00  0.00     0.124 HD
HETATM    9  H6  UNL     1       8.682   8.121 -16.349  1.00  0.00     0.124 HD
ENDBRANCH   6   7
BRANCH   3  10
HETATM   10  O1  UNL     1       3.133   6.732 -14.533  1.00  0.00    -0.361 OA
HETATM   11  H7  UNL     1       3.033   6.574 -13.580  1.00  0.00     0.217 HD
ENDBRANCH   3  10
TORSDOF 2
ENDMDL
MODEL 11
REMARK VINA RESULT:      -4.3      3.107      3.936
REMARK  2 active torsions:
REMARK  status: ('A' for Active; 'I' for Inactive)
REMARK    1  A    between atoms: C3_3  and  O1_8 
REMARK    2  A    between atoms: C6_6  and  N1_7 
ROOT
HETATM    1  C1  UNL     1       2.614   5.955 -11.875  1.00  0.00     0.026 A 
HETATM    2  C2  UNL     1       3.685   6.277 -11.038  1.00  0.00     0.038 A 
HETATM    3  C3  UNL     1       4.860   6.773 -11.585  1.00  0.00     0.065 A 
HETATM    4  C4  UNL     1       4.976   6.967 -12.957  1.00  0.00     0.038 A 
HETATM    5  C5  UNL     1       3.900   6.641 -13.788  1.00  0.00     0.026 A 
HETATM    6  C6  UNL     1       2.729   6.086 -13.262  1.00  0.00     0.005 A 
ENDROOT
BRANCH   6   7
HETATM    7  N1  UNL     1       1.617   5.875 -14.085  1.00  0.00    -0.303 NA
HETATM    8  H5  UNL     1       1.318   4.905 -14.127  1.00  0.00     0.124 HD
HETATM    9  H6  UNL     1       1.703   6.292 -15.006  1.00  0.00     0.124 HD
ENDBRANCH   6   7
BRANCH   3  10
HETATM   10  O1  UNL     1       5.881   7.078 -10.735  1.00  0.00    -0.361 OA
HETATM   11  H7  UNL     1       5.652   6.756  -9.849  1.00  0.00     0.217 HD
ENDBRANCH   3  10
TORSDOF 2
ENDMDL
MODEL 12
REMARK VINA RESULT:      -4.3      5.263      6.021
REMARK  2 active torsions:
REMARK  status: ('A' for Active; 'I' for Inactive)
REMARK    1  A    between atoms: C3_3  and  O1_8 
REMARK    2  A    between atoms: C6_6  and  N1_7 
ROOT
HETATM    1  C1  UNL     1       5.443   7.040 -13.734  1.00  0.00     0.026 A 
HETATM    2  C2  UNL     1       6.736   7.515 -13.963  1.00  0.00     0.038 A 
HETATM    3  C3  UNL     1       7.058   8.064 -15.196  1.00  0.00     0.065 A 
HETATM    4  C4  UNL     1       6.102   8.159 -16.201  1.00  0.00     0.038 A 
HETATM    5  C5  UNL     1       4.810   7.680 -15.964  1.00  0.00     0.026 A 
HETATM    6  C6  UNL     1       4.482   7.071 -14.749  1.00  0.00     0.005 A 
ENDROOT
BRANCH   6   7
HETATM    7  N1  UNL     1       3.158   6.704 -14.479  1.00  0.00    -0.303 NA
HETATM    8  H5  UNL     1       2.713   7.277 -13.769  1.00  0.00     0.124 HD
HETATM    9  H6  UNL     1       3.035   5.711 -14.308  1.00  0.00     0.124 HD
ENDBRANCH   6   7
BRANCH   3  10
HETATM   10  O1  UNL     1       8.330   8.519 -15.380  1.00  0.00    -0.361 OA
HETATM   11  H7  UNL     1       8.294   9.469 -15.572  1.00  0.00     0.217 HD
ENDBRANCH   3  10
TORSDOF 2
ENDMDL
MODEL 13
REMARK VINA RESULT:      -4.3      2.360      3.070
REMARK  2 active torsions:
REMARK  status: ('A' for Active; 'I' for Inactive)
REMARK    1  A    between atoms: C3_3  and  O1_8 
REMARK    2  A    between atoms: C6_6  and  N1_7 
ROOT
HETATM    1  C1  UNL     1       2.975   5.702 -13.725  1.00  0.00     0.026 A 
HETATM    2  C2  UNL     1       3.914   6.415 -12.977  1.00  0.00     0.038 A 
HETATM    3  C3  UNL     1       3.774   6.503 -11.599  1.00  0.00     0.065 A 
HETATM    4  C4  UNL     1       2.715   5.873 -10.954  1.00  0.00     0.038 A 
HETATM    5  C5  UNL     1       1.777   5.162 -11.710  1.00  0.00     0.026 A 
HETATM    6  C6  UNL     1       1.870   5.112 -13.104  1.00  0.00     0.005 A 
ENDROOT
BRANCH   6   7
HETATM    7  N1  UNL     1       0.998   4.301 -13.840  1.00  0.00    -0.303 NA
HETATM    8  H5  UNL     1       1.447   3.490 -14.254  1.00  0.00     0.124 HD
HETATM    9  H6  UNL     1       0.428   4.810 -14.507  1.00  0.00     0.124 HD
ENDBRANCH   6   7
BRANCH   3  10
HETATM   10  O1  UNL     1       4.712   7.205 -10.904  1.00  0.00    -0.361 OA
HETATM   11  H7  UNL     1       5.149   6.604 -10.280  1.00  0.00     0.217 HD
ENDBRANCH   3  10
TORSDOF 2
ENDMDL
MODEL 14
REMARK VINA RESULT:      -4.2      5.286      6.035
REMARK  2 active torsions:
REMARK  status: ('A' for Active; 'I' for Inactive)
REMARK    1  A    between atoms: C3_3  and  O1_8 
REMARK    2  A    between atoms: C6_6  and  N1_7 
ROOT
HETATM    1  C1  UNL     1       4.614   7.464 -15.319  1.00  0.00     0.026 A 
HETATM    2  C2  UNL     1       5.511   8.200 -16.098  1.00  0.00     0.038 A 
HETATM    3  C3  UNL     1       6.829   7.781 -16.210  1.00  0.00     0.065 A 
HETATM    4  C4  UNL     1       7.262   6.626 -15.567  1.00  0.00     0.038 A 
HETATM    5  C5  UNL     1       6.359   5.896 -14.788  1.00  0.00     0.026 A 
HETATM    6  C6  UNL     1       5.042   6.335 -14.616  1.00  0.00     0.005 A 
ENDROOT
BRANCH   6   7
HETATM    7  N1  UNL     1       4.117   5.536 -13.934  1.00  0.00    -0.303 NA
HETATM    8  H5  UNL     1       4.527   4.710 -13.509  1.00  0.00     0.124 HD
HETATM    9  H6  UNL     1       3.285   5.321 -14.472  1.00  0.00     0.124 HD
ENDBRANCH   6   7
BRANCH   3  10
HETATM   10  O1  UNL     1       7.671   8.524 -16.982  1.00  0.00    -0.361 OA
HETATM   11  H7  UNL     1       7.687   8.146 -17.875  1.00  0.00     0.217 HD
ENDBRANCH   3  10
TORSDOF 2
ENDMDL
MODEL 15
REMARK VINA RESULT:      -4.2      5.947      6.805
REMARK  2 active torsions:
REMARK  status: ('A' for Active; 'I' for Inactive)
REMARK    1  A    between atoms: C3_3  and  O1_8 
REMARK    2  A    between atoms: C6_6  and  N1_7 
ROOT
HETATM    1  C1  UNL     1       5.590   8.149 -16.082  1.00  0.00     0.026 A 
HETATM    2  C2  UNL     1       4.704   7.386 -15.320  1.00  0.00     0.038 A 
HETATM    3  C3  UNL     1       5.149   6.224 -14.705  1.00  0.00     0.065 A 
HETATM    4  C4  UNL     1       6.475   5.821 -14.829  1.00  0.00     0.038 A 
HETATM    5  C5  UNL     1       7.356   6.590 -15.595  1.00  0.00     0.026 A 
HETATM    6  C6  UNL     1       6.911   7.732 -16.269  1.00  0.00     0.005 A 
ENDROOT
BRANCH   6   7
HETATM    7  N1  UNL     1       7.825   8.558 -16.934  1.00  0.00    -0.303 NA
HETATM    8  H5  UNL     1       7.542   8.802 -17.878  1.00  0.00     0.124 HD
HETATM    9  H6  UNL     1       8.783   8.229 -16.890  1.00  0.00     0.124 HD
ENDBRANCH   6   7
BRANCH   3  10
HETATM   10  O1  UNL     1       4.255   5.508 -13.968  1.00  0.00    -0.361 OA
HETATM   11  H7  UNL     1       4.324   4.573 -14.219  1.00  0.00     0.217 HD
ENDBRANCH   3  10
TORSDOF 2
ENDMDL
MODEL 16
REMARK VINA RESULT:      -4.2      3.527      4.263
REMARK  2 active torsions:
REMARK  status: ('A' for Active; 'I' for Inactive)
REMARK    1  A    between atoms: C3_3  and  O1_8 
REMARK    2  A    between atoms: C6_6  and  N1_7 
ROOT
HETATM    1  C1  UNL     1       4.798   7.258 -13.127  1.00  0.00     0.026 A 
HETATM    2  C2  UNL     1       4.620   6.830 -11.809  1.00  0.00     0.038 A 
HETATM    3  C3  UNL     1       3.517   6.055 -11.480  1.00  0.00     0.065 A 
HETATM    4  C4  UNL     1       2.595   5.687 -12.454  1.00  0.00     0.038 A 
HETATM    5  C5  UNL     1       2.779   6.120 -13.771  1.00  0.00     0.026 A 
HETATM    6  C6  UNL     1       3.852   6.950 -14.110  1.00  0.00     0.005 A 
ENDROOT
BRANCH   6   7
HETATM    7  N1  UNL     1       4.094   7.278 -15.448  1.00  0.00    -0.303 NA
HETATM    8  H5  UNL     1       4.616   6.570 -15.955  1.00  0.00     0.124 HD
HETATM    9  H6  UNL     1       4.476   8.209 -15.580  1.00  0.00     0.124 HD
ENDBRANCH   6   7
BRANCH   3  10
HETATM   10  O1  UNL     1       3.381   5.656 -10.185  1.00  0.00    -0.361 OA
HETATM   11  H7  UNL     1       4.233   5.309  -9.876  1.00  0.00     0.217 HD
ENDBRANCH   3  10
TORSDOF 2
ENDMDL
MODEL 17
REMARK VINA RESULT:      -4.2      3.594      4.397
REMARK  2 active torsions:
REMARK  status: ('A' for Active; 'I' for Inactive)
REMARK    1  A    between atoms: C3_3  and  O1_8 
REMARK    2  A    between atoms: C6_6  and  N1_7 
ROOT
HETATM    1  C1  UNL     1       4.675   6.703 -11.510  1.00  0.00     0.026 A 
HETATM    2  C2  UNL     1       3.476   6.381 -12.150  1.00  0.00     0.038 A 
HETATM    3  C3  UNL     1       3.410   6.402 -13.536  1.00  0.00     0.065 A 
HETATM    4  C4  UNL     1       4.530   6.726 -14.294  1.00  0.00     0.038 A 
HETATM    5  C5  UNL     1       5.726   7.048 -13.646  1.00  0.00     0.026 A 
HETATM    6  C6  UNL     1       5.797   7.089 -12.250  1.00  0.00     0.005 A 
ENDROOT
BRANCH   6   7
HETATM    7  N1  UNL     1       7.025   7.296 -11.612  1.00  0.00    -0.303 NA
HETATM    8  H5  UNL     1       7.740   7.684 -12.220  1.00  0.00     0.124 HD
HETATM    9  H6  UNL     1       7.357   6.492 -11.090  1.00  0.00     0.124 HD
ENDBRANCH   6   7
BRANCH   3  10
HETATM   10  O1  UNL     1       2.223   6.079 -14.123  1.00  0.00    -0.361 OA
HETATM   11  H7  UNL     1       1.846   6.880 -14.521  1.00  0.00     0.217 HD
ENDBRANCH   3  10
TORSDOF 2
ENDMDL
MODEL 18
REMARK VINA RESULT:      -4.1      3.749      4.640
REMARK  2 active torsions:
REMARK  status: ('A' for Active; 'I' for Inactive)
REMARK    1  A    between atoms: C3_3  and  O1_8 
REMARK    2  A    between atoms: C6_6  and  N1_7 
ROOT
HETATM    1  C1  UNL     1       4.717   6.672 -14.108  1.00  0.00     0.026 A 
HETATM    2  C2  UNL     1       5.917   6.989 -13.467  1.00  0.00     0.038 A 
HETATM    3  C3  UNL     1       5.959   7.054 -12.081  1.00  0.00     0.065 A 
HETATM    4  C4  UNL     1       4.823   6.790 -11.325  1.00  0.00     0.038 A 
HETATM    5  C5  UNL     1       3.625   6.475 -11.974  1.00  0.00     0.026 A 
HETATM    6  C6  UNL     1       3.548   6.462 -13.370  1.00  0.00     0.005 A 
ENDROOT
BRANCH   6   7
HETATM    7  N1  UNL     1       2.380   6.030 -14.008  1.00  0.00    -0.303 NA
HETATM    8  H5  UNL     1       2.223   6.465 -14.912  1.00  0.00     0.124 HD
HETATM    9  H6  UNL     1       1.555   6.059 -13.417  1.00  0.00     0.124 HD
ENDBRANCH   6   7
BRANCH   3  10
HETATM   10  O1  UNL     1       7.149   7.363 -11.493  1.00  0.00    -0.361 OA
HETATM   11  H7  UNL     1       6.992   7.539 -10.551  1.00  0.00     0.217 HD
ENDBRANCH   3  10
TORSDOF 2
ENDMDL
MODEL 19
REMARK VINA RESULT:      -4.1      2.715      3.297
REMARK  2 active torsions:
REMARK  status: ('A' for Active; 'I' for Inactive)
REMARK    1  A    between atoms: C3_3  and  O1_8 
REMARK    2  A    between atoms: C6_6  and  N1_7 
ROOT
HETATM    1  C1  UNL     1       1.877   5.543 -11.349  1.00  0.00     0.026 A 
HETATM    2  C2  UNL     1       3.181   5.543 -10.849  1.00  0.00     0.038 A 
HETATM    3  C3  UNL     1       3.539   4.636  -9.861  1.00  0.00     0.065 A 
HETATM    4  C4  UNL     1       2.615   3.716  -9.377  1.00  0.00     0.038 A 
HETATM    5  C5  UNL     1       1.311   3.723  -9.881  1.00  0.00     0.026 A 
HETATM    6  C6  UNL     1       0.916   4.667 -10.834  1.00  0.00     0.005 A 
ENDROOT
BRANCH   6   7
HETATM    7  N1  UNL     1      -0.354   4.590 -11.418  1.00  0.00    -0.303 NA
HETATM    8  H5  UNL     1      -0.505   5.271 -12.156  1.00  0.00     0.124 HD
HETATM    9  H6  UNL     1      -1.114   4.572 -10.747  1.00  0.00     0.124 HD
ENDBRANCH   6   7
BRANCH   3  10
HETATM   10  O1  UNL     1       4.821   4.666  -9.402  1.00  0.00    -0.361 OA
HETATM   11  H7  UNL     1       5.273   3.858  -9.692  1.00  0.00     0.217 HD
ENDBRANCH   3  10
TORSDOF 2
ENDMDL
MODEL 20
REMARK VINA RESULT:      -3.8      6.672      7.482
REMARK  2 active torsions:
REMARK  status: ('A' for Active; 'I' for Inactive)
REMARK    1  A    between atoms: C3_3  and  O1_8 
REMARK    2  A    between atoms: C6_6  and  N1_7 
ROOT
HETATM    1  C1  UNL     1       5.819   6.980 -15.559  1.00  0.00     0.026 A 
HETATM    2  C2  UNL     1       6.171   5.756 -14.986  1.00  0.00     0.038 A 
HETATM    3  C3  UNL     1       7.511   5.414 -14.864  1.00  0.00     0.065 A 
HETATM    4  C4  UNL     1       8.506   6.286 -15.292  1.00  0.00     0.038 A 
HETATM    5  C5  UNL     1       8.146   7.509 -15.865  1.00  0.00     0.026 A 
HETATM    6  C6  UNL     1       6.801   7.846 -16.051  1.00  0.00     0.005 A 
ENDROOT
BRANCH   6   7
HETATM    7  N1  UNL     1       6.451   9.119 -16.515  1.00  0.00    -0.303 NA
HETATM    8  H5  UNL     1       7.162   9.551 -17.097  1.00  0.00     0.124 HD
HETATM    9  H6  UNL     1       6.114   9.742 -15.789  1.00  0.00     0.124 HD
ENDBRANCH   6   7
BRANCH   3  10
HETATM   10  O1  UNL     1       7.814   4.213 -14.297  1.00  0.00    -0.361 OA
HETATM   11  H7  UNL     1       7.567   3.507 -14.916  1.00  0.00     0.217 HD
ENDBRANCH   3  10
TORSDOF 2
ENDMDL
