MODEL 1
REMARK VINA RESULT:      -3.1      0.000      0.000
REMARK  2 active torsions:
REMARK  status: ('A' for Active; 'I' for Inactive)
REMARK    1  A    between atoms: C3_3  and  O1_8 
REMARK    2  A    between atoms: C6_6  and  N1_7 
ROOT
HETATM    1  C1  UNL     1      10.987   8.951  -7.802  1.00  0.00     0.026 A 
HETATM    2  C2  UNL     1      10.776   9.742  -8.934  1.00  0.00     0.038 A 
HETATM    3  C3  UNL     1      10.837  11.124  -8.829  1.00  0.00     0.065 A 
HETATM    4  C4  UNL     1      11.122  11.729  -7.610  1.00  0.00     0.038 A 
HETATM    5  C5  UNL     1      11.330  10.932  -6.481  1.00  0.00     0.026 A 
HETATM    6  C6  UNL     1      11.216   9.540  -6.554  1.00  0.00     0.005 A 
ENDROOT
BRANCH   6   7
HETATM    7  N1  UNL     1      11.543   8.746  -5.449  1.00  0.00    -0.303 NA
HETATM    8  H5  UNL     1      11.291   9.163  -4.559  1.00  0.00     0.124 HD
HETATM    9  H6  UNL     1      12.498   8.403  -5.459  1.00  0.00     0.124 HD
ENDBRANCH   6   7
BRANCH   3  10
HETATM   10  O1  UNL     1      10.628  11.860  -9.956  1.00  0.00    -0.361 OA
HETATM   11  H7  UNL     1      11.119  11.453 -10.688  1.00  0.00     0.217 HD
ENDBRANCH   3  10
TORSDOF 2
ENDMDL
MODEL 2
REMARK VINA RESULT:      -3.1      0.193      1.712
REMARK  2 active torsions:
REMARK  status: ('A' for Active; 'I' for Inactive)
REMARK    1  A    between atoms: C3_3  and  O1_8 
REMARK    2  A    between atoms: C6_6  and  N1_7 
ROOT
HETATM    1  C1  UNL     1      11.293  11.056  -6.466  1.00  0.00     0.026 A 
HETATM    2  C2  UNL     1      11.137  11.790  -7.644  1.00  0.00     0.038 A 
HETATM    3  C3  UNL     1      10.827  11.135  -8.827  1.00  0.00     0.065 A 
HETATM    4  C4  UNL     1      10.653   9.755  -8.847  1.00  0.00     0.038 A 
HETATM    5  C5  UNL     1      10.813   9.027  -7.665  1.00  0.00     0.026 A 
HETATM    6  C6  UNL     1      11.183   9.662  -6.475  1.00  0.00     0.005 A 
ENDROOT
BRANCH   6   7
HETATM    7  N1  UNL     1      11.223   8.943  -5.275  1.00  0.00    -0.303 NA
HETATM    8  H5  UNL     1      10.854   9.456  -4.480  1.00  0.00     0.124 HD
HETATM    9  H6  UNL     1      12.125   8.523  -5.079  1.00  0.00     0.124 HD
ENDBRANCH   6   7
BRANCH   3  10
HETATM   10  O1  UNL     1      10.680  11.887  -9.954  1.00  0.00    -0.361 OA
HETATM   11  H7  UNL     1      11.428  12.502 -10.015  1.00  0.00     0.217 HD
ENDBRANCH   3  10
TORSDOF 2
ENDMDL
MODEL 3
REMARK VINA RESULT:      -3.1      2.786      3.685
REMARK  2 active torsions:
REMARK  status: ('A' for Active; 'I' for Inactive)
REMARK    1  A    between atoms: C3_3  and  O1_8 
REMARK    2  A    between atoms: C6_6  and  N1_7 
ROOT
HETATM    1  C1  UNL     1      11.025  11.572  -7.423  1.00  0.00     0.026 A 
HETATM    2  C2  UNL     1      11.237  10.774  -6.296  1.00  0.00     0.038 A 
HETATM    3  C3  UNL     1      11.280   9.393  -6.429  1.00  0.00     0.065 A 
HETATM    4  C4  UNL     1      11.129   8.797  -7.676  1.00  0.00     0.038 A 
HETATM    5  C5  UNL     1      10.916   9.602  -8.799  1.00  0.00     0.026 A 
HETATM    6  C6  UNL     1      10.812  10.991  -8.677  1.00  0.00     0.005 A 
ENDROOT
BRANCH   6   7
HETATM    7  N1  UNL     1      10.718  11.794  -9.819  1.00  0.00    -0.303 NA
HETATM    8  H5  UNL     1      11.355  11.523 -10.562  1.00  0.00     0.124 HD
HETATM    9  H6  UNL     1      10.753  12.789  -9.625  1.00  0.00     0.124 HD
ENDBRANCH   6   7
BRANCH   3  10
HETATM   10  O1  UNL     1      11.491   8.650  -5.306  1.00  0.00    -0.361 OA
HETATM   11  H7  UNL     1      10.649   8.251  -5.036  1.00  0.00     0.217 HD
ENDBRANCH   3  10
TORSDOF 2
ENDMDL
MODEL 4
REMARK VINA RESULT:      -3.0      2.538      3.129
REMARK  2 active torsions:
REMARK  status: ('A' for Active; 'I' for Inactive)
REMARK    1  A    between atoms: C3_3  and  O1_8 
REMARK    2  A    between atoms: C6_6  and  N1_7 
ROOT
HETATM    1  C1  UNL     1      10.698  11.295  -9.228  1.00  0.00     0.026 A 
HETATM    2  C2  UNL     1      12.001  11.509  -8.773  1.00  0.00     0.038 A 
HETATM    3  C3  UNL     1      12.616  10.556  -7.973  1.00  0.00     0.065 A 
HETATM    4  C4  UNL     1      11.952   9.382  -7.634  1.00  0.00     0.038 A 
HETATM    5  C5  UNL     1      10.647   9.176  -8.092  1.00  0.00     0.026 A 
HETATM    6  C6  UNL     1       9.990  10.151  -8.849  1.00  0.00     0.005 A 
ENDROOT
BRANCH   6   7
HETATM    7  N1  UNL     1       8.732   9.885  -9.402  1.00  0.00    -0.303 NA
HETATM    8  H5  UNL     1       8.676  10.072 -10.398  1.00  0.00     0.124 HD
HETATM    9  H6  UNL     1       7.962  10.299  -8.887  1.00  0.00     0.124 HD
ENDBRANCH   6   7
BRANCH   3  10
HETATM   10  O1  UNL     1      13.888  10.800  -7.552  1.00  0.00    -0.361 OA
HETATM   11  H7  UNL     1      14.244   9.989  -7.154  1.00  0.00     0.217 HD
ENDBRANCH   3  10
TORSDOF 2
ENDMDL
MODEL 5
REMARK VINA RESULT:      -2.9      1.706      2.061
REMARK  2 active torsions:
REMARK  status: ('A' for Active; 'I' for Inactive)
REMARK    1  A    between atoms: C3_3  and  O1_8 
REMARK    2  A    between atoms: C6_6  and  N1_7 
ROOT
HETATM    1  C1  UNL     1      11.464   9.770  -7.089  1.00  0.00     0.026 A 
HETATM    2  C2  UNL     1      10.325   9.458  -7.835  1.00  0.00     0.038 A 
HETATM    3  C3  UNL     1       9.970  10.255  -8.914  1.00  0.00     0.065 A 
HETATM    4  C4  UNL     1      10.746  11.353  -9.269  1.00  0.00     0.038 A 
HETATM    5  C5  UNL     1      11.884  11.660  -8.517  1.00  0.00     0.026 A 
HETATM    6  C6  UNL     1      12.225  10.904  -7.392  1.00  0.00     0.005 A 
ENDROOT
BRANCH   6   7
HETATM    7  N1  UNL     1      13.428  11.146  -6.718  1.00  0.00    -0.303 NA
HETATM    8  H5  UNL     1      14.135  11.592  -7.294  1.00  0.00     0.124 HD
HETATM    9  H6  UNL     1      13.789  10.340  -6.219  1.00  0.00     0.124 HD
ENDBRANCH   6   7
BRANCH   3  10
HETATM   10  O1  UNL     1       8.853   9.916  -9.618  1.00  0.00    -0.361 OA
HETATM   11  H7  UNL     1       8.686   8.967  -9.495  1.00  0.00     0.217 HD
ENDBRANCH   3  10
TORSDOF 2
ENDMDL
MODEL 6
REMARK VINA RESULT:      -2.9      7.326      8.235
REMARK  2 active torsions:
REMARK  status: ('A' for Active; 'I' for Inactive)
REMARK    1  A    between atoms: C3_3  and  O1_8 
REMARK    2  A    between atoms: C6_6  and  N1_7 
ROOT
HETATM    1  C1  UNL     1      13.487   2.000  -8.091  1.00  0.00     0.026 A 
HETATM    2  C2  UNL     1      12.873   3.245  -8.244  1.00  0.00     0.038 A 
HETATM    3  C3  UNL     1      13.495   4.230  -8.999  1.00  0.00     0.065 A 
HETATM    4  C4  UNL     1      14.715   3.982  -9.618  1.00  0.00     0.038 A 
HETATM    5  C5  UNL     1      15.324   2.734  -9.459  1.00  0.00     0.026 A 
HETATM    6  C6  UNL     1      14.742   1.749  -8.655  1.00  0.00     0.005 A 
ENDROOT
BRANCH   6   7
HETATM    7  N1  UNL     1      15.297   0.466  -8.598  1.00  0.00    -0.303 NA
HETATM    8  H5  UNL     1      15.749   0.256  -7.714  1.00  0.00     0.124 HD
HETATM    9  H6  UNL     1      15.881   0.236  -9.395  1.00  0.00     0.124 HD
ENDBRANCH   6   7
BRANCH   3  10
HETATM   10  O1  UNL     1      12.863   5.430  -9.127  1.00  0.00    -0.361 OA
HETATM   11  H7  UNL     1      13.359   5.975  -9.759  1.00  0.00     0.217 HD
ENDBRANCH   3  10
TORSDOF 2
ENDMDL
MODEL 7
REMARK VINA RESULT:      -2.9      7.719      8.707
REMARK  2 active torsions:
REMARK  status: ('A' for Active; 'I' for Inactive)
REMARK    1  A    between atoms: C3_3  and  O1_8 
REMARK    2  A    between atoms: C6_6  and  N1_7 
ROOT
HETATM    1  C1  UNL     1      12.918   3.203  -8.253  1.00  0.00     0.026 A 
HETATM    2  C2  UNL     1      13.501   1.945  -8.084  1.00  0.00     0.038 A 
HETATM    3  C3  UNL     1      14.728   1.671  -8.673  1.00  0.00     0.065 A 
HETATM    4  C4  UNL     1      15.390   2.643  -9.415  1.00  0.00     0.038 A 
HETATM    5  C5  UNL     1      14.799   3.899  -9.580  1.00  0.00     0.026 A 
HETATM    6  C6  UNL     1      13.537   4.175  -9.044  1.00  0.00     0.005 A 
ENDROOT
BRANCH   6   7
HETATM    7  N1  UNL     1      13.009   5.469  -9.114  1.00  0.00    -0.303 NA
HETATM    8  H5  UNL     1      13.145   6.011  -8.265  1.00  0.00     0.124 HD
HETATM    9  H6  UNL     1      12.052   5.505  -9.446  1.00  0.00     0.124 HD
ENDBRANCH   6   7
BRANCH   3  10
HETATM   10  O1  UNL     1      15.265   0.433  -8.483  1.00  0.00    -0.361 OA
HETATM   11  H7  UNL     1      15.113   0.168  -7.561  1.00  0.00     0.217 HD
ENDBRANCH   3  10
TORSDOF 2
ENDMDL
MODEL 8
REMARK VINA RESULT:      -2.9      7.744      8.738
REMARK  2 active torsions:
REMARK  status: ('A' for Active; 'I' for Inactive)
REMARK    1  A    between atoms: C3_3  and  O1_8 
REMARK    2  A    between atoms: C6_6  and  N1_7 
ROOT
HETATM    1  C1  UNL     1      14.793   3.887  -9.575  1.00  0.00     0.026 A 
HETATM    2  C2  UNL     1      15.387   2.631  -9.434  1.00  0.00     0.038 A 
HETATM    3  C3  UNL     1      14.752   1.651  -8.685  1.00  0.00     0.065 A 
HETATM    4  C4  UNL     1      13.522   1.902  -8.087  1.00  0.00     0.038 A 
HETATM    5  C5  UNL     1      12.934   3.162  -8.231  1.00  0.00     0.026 A 
HETATM    6  C6  UNL     1      13.586   4.181  -8.933  1.00  0.00     0.005 A 
ENDROOT
BRANCH   6   7
HETATM    7  N1  UNL     1      12.937   5.398  -9.173  1.00  0.00    -0.303 NA
HETATM    8  H5  UNL     1      13.333   6.179  -8.659  1.00  0.00     0.124 HD
HETATM    9  H6  UNL     1      11.928   5.349  -9.084  1.00  0.00     0.124 HD
ENDBRANCH   6   7
BRANCH   3  10
HETATM   10  O1  UNL     1      15.363   0.437  -8.573  1.00  0.00    -0.361 OA
HETATM   11  H7  UNL     1      15.755   0.208  -9.430  1.00  0.00     0.217 HD
ENDBRANCH   3  10
TORSDOF 2
ENDMDL
MODEL 9
REMARK VINA RESULT:      -2.9      1.384      2.046
REMARK  2 active torsions:
REMARK  status: ('A' for Active; 'I' for Inactive)
REMARK    1  A    between atoms: C3_3  and  O1_8 
REMARK    2  A    between atoms: C6_6  and  N1_7 
ROOT
HETATM    1  C1  UNL     1      10.598   9.742  -6.157  1.00  0.00     0.026 A 
HETATM    2  C2  UNL     1       9.907  10.183  -7.288  1.00  0.00     0.038 A 
HETATM    3  C3  UNL     1      10.261   9.703  -8.541  1.00  0.00     0.065 A 
HETATM    4  C4  UNL     1      11.287   8.775  -8.680  1.00  0.00     0.038 A 
HETATM    5  C5  UNL     1      11.975   8.339  -7.543  1.00  0.00     0.026 A 
HETATM    6  C6  UNL     1      11.672   8.855  -6.279  1.00  0.00     0.005 A 
ENDROOT
BRANCH   6   7
HETATM    7  N1  UNL     1      12.284   8.326  -5.137  1.00  0.00    -0.303 NA
HETATM    8  H5  UNL     1      13.273   8.130  -5.258  1.00  0.00     0.124 HD
HETATM    9  H6  UNL     1      11.782   7.546  -4.727  1.00  0.00     0.124 HD
ENDBRANCH   6   7
BRANCH   3  10
HETATM   10  O1  UNL     1       9.561  10.156  -9.619  1.00  0.00    -0.361 OA
HETATM   11  H7  UNL     1       9.983  10.967  -9.944  1.00  0.00     0.217 HD
ENDBRANCH   3  10
TORSDOF 2
ENDMDL
MODEL 10
REMARK VINA RESULT:      -2.8      6.097      6.815
REMARK  2 active torsions:
REMARK  status: ('A' for Active; 'I' for Inactive)
REMARK    1  A    between atoms: C3_3  and  O1_8 
REMARK    2  A    between atoms: C6_6  and  N1_7 
ROOT
HETATM    1  C1  UNL     1      13.244   2.693  -7.000  1.00  0.00     0.026 A 
HETATM    2  C2  UNL     1      13.264   2.970  -8.369  1.00  0.00     0.038 A 
HETATM    3  C3  UNL     1      13.437   4.276  -8.805  1.00  0.00     0.065 A 
HETATM    4  C4  UNL     1      13.606   5.310  -7.890  1.00  0.00     0.038 A 
HETATM    5  C5  UNL     1      13.583   5.026  -6.522  1.00  0.00     0.026 A 
HETATM    6  C6  UNL     1      13.352   3.725  -6.063  1.00  0.00     0.005 A 
ENDROOT
BRANCH   6   7
HETATM    7  N1  UNL     1      13.449   3.431  -4.698  1.00  0.00    -0.303 NA
HETATM    8  H5  UNL     1      12.869   2.651  -4.407  1.00  0.00     0.124 HD
HETATM    9  H6  UNL     1      13.340   4.240  -4.096  1.00  0.00     0.124 HD
ENDBRANCH   6   7
BRANCH   3  10
HETATM   10  O1  UNL     1      13.454   4.505 -10.148  1.00  0.00    -0.361 OA
HETATM   11  H7  UNL     1      13.578   3.657 -10.605  1.00  0.00     0.217 HD
ENDBRANCH   3  10
TORSDOF 2
ENDMDL
MODEL 11
REMARK VINA RESULT:      -2.7      2.015      2.458
REMARK  2 active torsions:
REMARK  status: ('A' for Active; 'I' for Inactive)
REMARK    1  A    between atoms: C3_3  and  O1_8 
REMARK    2  A    between atoms: C6_6  and  N1_7 
ROOT
HETATM    1  C1  UNL     1       9.738  10.426  -7.841  1.00  0.00     0.026 A 
HETATM    2  C2  UNL     1      10.342   9.761  -8.910  1.00  0.00     0.038 A 
HETATM    3  C3  UNL     1      11.334   8.822  -8.664  1.00  0.00     0.065 A 
HETATM    4  C4  UNL     1      11.720   8.525  -7.362  1.00  0.00     0.038 A 
HETATM    5  C5  UNL     1      11.111   9.196  -6.297  1.00  0.00     0.026 A 
HETATM    6  C6  UNL     1      10.152  10.187  -6.527  1.00  0.00     0.005 A 
ENDROOT
BRANCH   6   7
HETATM    7  N1  UNL     1       9.465  10.766  -5.455  1.00  0.00    -0.303 NA
HETATM    8  H5  UNL     1      10.003  11.468  -4.956  1.00  0.00     0.124 HD
HETATM    9  H6  UNL     1       9.037  10.091  -4.830  1.00  0.00     0.124 HD
ENDBRANCH   6   7
BRANCH   3  10
HETATM   10  O1  UNL     1      11.898   8.193  -9.734  1.00  0.00    -0.361 OA
HETATM   11  H7  UNL     1      11.838   8.780 -10.505  1.00  0.00     0.217 HD
ENDBRANCH   3  10
TORSDOF 2
ENDMDL
MODEL 12
REMARK VINA RESULT:      -2.7      6.817      7.750
REMARK  2 active torsions:
REMARK  status: ('A' for Active; 'I' for Inactive)
REMARK    1  A    between atoms: C3_3  and  O1_8 
REMARK    2  A    between atoms: C6_6  and  N1_7 
ROOT
HETATM    1  C1  UNL     1      14.064   5.009  -8.177  1.00  0.00     0.026 A 
HETATM    2  C2  UNL     1      13.638   5.034  -6.847  1.00  0.00     0.038 A 
HETATM    3  C3  UNL     1      13.143   3.877  -6.262  1.00  0.00     0.065 A 
HETATM    4  C4  UNL     1      13.084   2.689  -6.982  1.00  0.00     0.038 A 
HETATM    5  C5  UNL     1      13.511   2.672  -8.313  1.00  0.00     0.026 A 
HETATM    6  C6  UNL     1      13.957   3.841  -8.938  1.00  0.00     0.005 A 
ENDROOT
BRANCH   6   7
HETATM    7  N1  UNL     1      14.493   3.789 -10.230  1.00  0.00    -0.303 NA
HETATM    8  H5  UNL     1      14.567   2.848 -10.603  1.00  0.00     0.124 HD
HETATM    9  H6  UNL     1      15.352   4.317 -10.339  1.00  0.00     0.124 HD
ENDBRANCH   6   7
BRANCH   3  10
HETATM   10  O1  UNL     1      12.740   3.941  -4.962  1.00  0.00    -0.361 OA
HETATM   11  H7  UNL     1      12.919   3.086  -4.539  1.00  0.00     0.217 HD
ENDBRANCH   3  10
TORSDOF 2
ENDMDL
MODEL 13
REMARK VINA RESULT:      -2.7      7.383      8.142
REMARK  2 active torsions:
REMARK  status: ('A' for Active; 'I' for Inactive)
REMARK    1  A    between atoms: C3_3  and  O1_8 
REMARK    2  A    between atoms: C6_6  and  N1_7 
ROOT
HETATM    1  C1  UNL     1       8.882   6.801   0.224  1.00  0.00     0.026 A 
HETATM    2  C2  UNL     1       8.492   8.086  -0.158  1.00  0.00     0.038 A 
HETATM    3  C3  UNL     1       7.990   8.302  -1.433  1.00  0.00     0.065 A 
HETATM    4  C4  UNL     1       7.856   7.248  -2.329  1.00  0.00     0.038 A 
HETATM    5  C5  UNL     1       8.249   5.964  -1.940  1.00  0.00     0.026 A 
HETATM    6  C6  UNL     1       8.812   5.737  -0.680  1.00  0.00     0.005 A 
ENDROOT
BRANCH   6   7
HETATM    7  N1  UNL     1       9.091   4.432  -0.258  1.00  0.00    -0.303 NA
HETATM    8  H5  UNL     1       8.911   3.727  -0.966  1.00  0.00     0.124 HD
HETATM    9  H6  UNL     1       8.679   4.194   0.638  1.00  0.00     0.124 HD
ENDBRANCH   6   7
BRANCH   3  10
HETATM   10  O1  UNL     1       7.618   9.570  -1.766  1.00  0.00    -0.361 OA
HETATM   11  H7  UNL     1       7.846  10.163  -1.033  1.00  0.00     0.217 HD
ENDBRANCH   3  10
TORSDOF 2
ENDMDL
MODEL 14
REMARK VINA RESULT:      -2.7      2.764      3.292
REMARK  2 active torsions:
REMARK  status: ('A' for Active; 'I' for Inactive)
REMARK    1  A    between atoms: C3_3  and  O1_8 
REMARK    2  A    between atoms: C6_6  and  N1_7 
ROOT
HETATM    1  C1  UNL     1      12.081   8.361  -7.303  1.00  0.00     0.026 A 
HETATM    2  C2  UNL     1      11.793   8.840  -6.023  1.00  0.00     0.038 A 
HETATM    3  C3  UNL     1      10.752   9.740  -5.843  1.00  0.00     0.065 A 
HETATM    4  C4  UNL     1       9.982  10.157  -6.924  1.00  0.00     0.038 A 
HETATM    5  C5  UNL     1      10.277   9.674  -8.202  1.00  0.00     0.026 A 
HETATM    6  C6  UNL     1      11.359   8.813  -8.412  1.00  0.00     0.005 A 
ENDROOT
BRANCH   6   7
HETATM    7  N1  UNL     1      11.572   8.243  -9.672  1.00  0.00    -0.303 NA
HETATM    8  H5  UNL     1      12.114   8.830 -10.299  1.00  0.00     0.124 HD
HETATM    9  H6  UNL     1      10.729   7.886 -10.109  1.00  0.00     0.124 HD
ENDBRANCH   6   7
BRANCH   3  10
HETATM   10  O1  UNL     1      10.501  10.182  -4.579  1.00  0.00    -0.361 OA
HETATM   11  H7  UNL     1       9.546  10.124  -4.415  1.00  0.00     0.217 HD
ENDBRANCH   3  10
TORSDOF 2
ENDMDL
MODEL 15
REMARK VINA RESULT:      -2.6      8.250      9.084
REMARK  2 active torsions:
REMARK  status: ('A' for Active; 'I' for Inactive)
REMARK    1  A    between atoms: C3_3  and  O1_8 
REMARK    2  A    between atoms: C6_6  and  N1_7 
ROOT
HETATM    1  C1  UNL     1      14.576   2.301  -5.763  1.00  0.00     0.026 A 
HETATM    2  C2  UNL     1      15.227   1.475  -6.682  1.00  0.00     0.038 A 
HETATM    3  C3  UNL     1      14.724   1.349  -7.969  1.00  0.00     0.065 A 
HETATM    4  C4  UNL     1      13.588   2.051  -8.357  1.00  0.00     0.038 A 
HETATM    5  C5  UNL     1      12.942   2.875  -7.431  1.00  0.00     0.026 A 
HETATM    6  C6  UNL     1      13.399   2.969  -6.113  1.00  0.00     0.005 A 
ENDROOT
BRANCH   6   7
HETATM    7  N1  UNL     1      12.818   3.886  -5.229  1.00  0.00    -0.303 NA
HETATM    8  H5  UNL     1      13.374   4.059  -4.398  1.00  0.00     0.124 HD
HETATM    9  H6  UNL     1      11.848   3.686  -5.010  1.00  0.00     0.124 HD
ENDBRANCH   6   7
BRANCH   3  10
HETATM   10  O1  UNL     1      15.388   0.536  -8.837  1.00  0.00    -0.361 OA
HETATM   11  H7  UNL     1      15.755   1.080  -9.552  1.00  0.00     0.217 HD
ENDBRANCH   3  10
TORSDOF 2
ENDMDL
MODEL 16
REMARK VINA RESULT:      -2.6      7.683      8.451
REMARK  2 active torsions:
REMARK  status: ('A' for Active; 'I' for Inactive)
REMARK    1  A    between atoms: C3_3  and  O1_8 
REMARK    2  A    between atoms: C6_6  and  N1_7 
ROOT
HETATM    1  C1  UNL     1       9.067   6.393   0.350  1.00  0.00     0.026 A 
HETATM    2  C2  UNL     1       9.085   5.390  -0.621  1.00  0.00     0.038 A 
HETATM    3  C3  UNL     1       8.594   5.653  -1.891  1.00  0.00     0.065 A 
HETATM    4  C4  UNL     1       8.098   6.912  -2.212  1.00  0.00     0.038 A 
HETATM    5  C5  UNL     1       8.081   7.911  -1.234  1.00  0.00     0.026 A 
HETATM    6  C6  UNL     1       8.518   7.648   0.068  1.00  0.00     0.005 A 
ENDROOT
BRANCH   6   7
HETATM    7  N1  UNL     1       8.609   8.684   1.004  1.00  0.00    -0.303 NA
HETATM    8  H5  UNL     1       8.333   9.590   0.638  1.00  0.00     0.124 HD
HETATM    9  H6  UNL     1       9.497   8.719   1.493  1.00  0.00     0.124 HD
ENDBRANCH   6   7
BRANCH   3  10
HETATM   10  O1  UNL     1       8.632   4.649  -2.812  1.00  0.00    -0.361 OA
HETATM   11  H7  UNL     1       9.377   4.064  -2.601  1.00  0.00     0.217 HD
ENDBRANCH   3  10
TORSDOF 2
ENDMDL
MODEL 17
REMARK VINA RESULT:      -2.5      6.793      7.686
REMARK  2 active torsions:
REMARK  status: ('A' for Active; 'I' for Inactive)
REMARK    1  A    between atoms: C3_3  and  O1_8 
REMARK    2  A    between atoms: C6_6  and  N1_7 
ROOT
HETATM    1  C1  UNL     1      10.029   7.874  -2.032  1.00  0.00     0.026 A 
HETATM    2  C2  UNL     1      10.002   6.621  -1.417  1.00  0.00     0.038 A 
HETATM    3  C3  UNL     1       8.825   5.885  -1.408  1.00  0.00     0.065 A 
HETATM    4  C4  UNL     1       7.678   6.376  -2.020  1.00  0.00     0.038 A 
HETATM    5  C5  UNL     1       7.712   7.633  -2.632  1.00  0.00     0.026 A 
HETATM    6  C6  UNL     1       8.872   8.415  -2.601  1.00  0.00     0.005 A 
ENDROOT
BRANCH   6   7
HETATM    7  N1  UNL     1       8.932   9.615  -3.317  1.00  0.00    -0.303 NA
HETATM    8  H5  UNL     1       9.863  10.016  -3.365  1.00  0.00     0.124 HD
HETATM    9  H6  UNL     1       8.233  10.295  -3.038  1.00  0.00     0.124 HD
ENDBRANCH   6   7
BRANCH   3  10
HETATM   10  O1  UNL     1       8.840   4.665  -0.800  1.00  0.00    -0.361 OA
HETATM   11  H7  UNL     1       9.687   4.232  -0.994  1.00  0.00     0.217 HD
ENDBRANCH   3  10
TORSDOF 2
ENDMDL
MODEL 18
REMARK VINA RESULT:      -2.5      2.332      2.860
REMARK  2 active torsions:
REMARK  status: ('A' for Active; 'I' for Inactive)
REMARK    1  A    between atoms: C3_3  and  O1_8 
REMARK    2  A    between atoms: C6_6  and  N1_7 
ROOT
HETATM    1  C1  UNL     1      12.132  12.109  -6.696  1.00  0.00     0.026 A 
HETATM    2  C2  UNL     1      11.168  12.107  -7.706  1.00  0.00     0.038 A 
HETATM    3  C3  UNL     1      11.545  11.843  -9.016  1.00  0.00     0.065 A 
HETATM    4  C4  UNL     1      12.871  11.564  -9.328  1.00  0.00     0.038 A 
HETATM    5  C5  UNL     1      13.830  11.569  -8.311  1.00  0.00     0.026 A 
HETATM    6  C6  UNL     1      13.480  11.890  -6.996  1.00  0.00     0.005 A 
ENDROOT
BRANCH   6   7
HETATM    7  N1  UNL     1      14.422  11.776  -5.967  1.00  0.00    -0.303 NA
HETATM    8  H5  UNL     1      15.370  11.995  -6.257  1.00  0.00     0.124 HD
HETATM    9  H6  UNL     1      14.366  10.902  -5.455  1.00  0.00     0.124 HD
ENDBRANCH   6   7
BRANCH   3  10
HETATM   10  O1  UNL     1      10.575  11.848  -9.973  1.00  0.00    -0.361 OA
HETATM   11  H7  UNL     1      10.758  12.569 -10.596  1.00  0.00     0.217 HD
ENDBRANCH   3  10
TORSDOF 2
ENDMDL
MODEL 19
REMARK VINA RESULT:      -2.5      8.257      8.989
REMARK  2 active torsions:
REMARK  status: ('A' for Active; 'I' for Inactive)
REMARK    1  A    between atoms: C3_3  and  O1_8 
REMARK    2  A    between atoms: C6_6  and  N1_7 
ROOT
HETATM    1  C1  UNL     1      15.505   2.135  -6.869  1.00  0.00     0.026 A 
HETATM    2  C2  UNL     1      14.732   2.856  -5.956  1.00  0.00     0.038 A 
HETATM    3  C3  UNL     1      13.411   3.156  -6.258  1.00  0.00     0.065 A 
HETATM    4  C4  UNL     1      12.845   2.730  -7.455  1.00  0.00     0.038 A 
HETATM    5  C5  UNL     1      13.625   2.010  -8.364  1.00  0.00     0.026 A 
HETATM    6  C6  UNL     1      14.974   1.749  -8.103  1.00  0.00     0.005 A 
ENDROOT
BRANCH   6   7
HETATM    7  N1  UNL     1      15.712   0.928  -8.963  1.00  0.00    -0.303 NA
HETATM    8  H5  UNL     1      15.954   1.371  -9.843  1.00  0.00     0.124 HD
HETATM    9  H6  UNL     1      15.311   0.005  -9.093  1.00  0.00     0.124 HD
ENDBRANCH   6   7
BRANCH   3  10
HETATM   10  O1  UNL     1      12.689   3.858  -5.340  1.00  0.00    -0.361 OA
HETATM   11  H7  UNL     1      11.877   3.366  -5.142  1.00  0.00     0.217 HD
ENDBRANCH   3  10
TORSDOF 2
ENDMDL
MODEL 20
REMARK VINA RESULT:      -2.4      2.930      3.852
REMARK  2 active torsions:
REMARK  status: ('A' for Active; 'I' for Inactive)
REMARK    1  A    between atoms: C3_3  and  O1_8 
REMARK    2  A    between atoms: C6_6  and  N1_7 
ROOT
HETATM    1  C1  UNL     1      12.598   8.115  -6.235  1.00  0.00     0.026 A 
HETATM    2  C2  UNL     1      11.984   8.534  -7.418  1.00  0.00     0.038 A 
HETATM    3  C3  UNL     1      12.114   7.770  -8.568  1.00  0.00     0.065 A 
HETATM    4  C4  UNL     1      12.837   6.582  -8.551  1.00  0.00     0.038 A 
HETATM    5  C5  UNL     1      13.449   6.169  -7.364  1.00  0.00     0.026 A 
HETATM    6  C6  UNL     1      13.379   6.955  -6.210  1.00  0.00     0.005 A 
ENDROOT
BRANCH   6   7
HETATM    7  N1  UNL     1      13.893   6.477  -4.999  1.00  0.00    -0.303 NA
HETATM    8  H5  UNL     1      13.179   6.161  -4.350  1.00  0.00     0.124 HD
HETATM    9  H6  UNL     1      14.563   7.102  -4.563  1.00  0.00     0.124 HD
ENDBRANCH   6   7
BRANCH   3  10
HETATM   10  O1  UNL     1      11.499   8.211  -9.701  1.00  0.00    -0.361 OA
HETATM   11  H7  UNL     1      10.755   8.781  -9.447  1.00  0.00     0.217 HD
ENDBRANCH   3  10
TORSDOF 2
ENDMDL
