MODEL 1
REMARK VINA RESULT:      -7.5      0.000      0.000
REMARK  27 active torsions:
REMARK  status: ('A' for Active; 'I' for Inactive)
REMARK    1  A    between atoms: C2_2  and  S1_4 
REMARK    2  A    between atoms: S1_4  and  C3_5 
REMARK    3  A    between atoms: C3_5  and  C4_6 
REMARK    4  A    between atoms: C4_6  and  N1_7 
REMARK       I    between atoms: N1_7  and  C5_8 
REMARK    5  A    between atoms: C5_8  and  C6_10 
REMARK    6  A    between atoms: C6_10  and  C7_11 
REMARK    7  A    between atoms: C7_11  and  N2_12 
REMARK       I    between atoms: N2_12  and  C8_13 
REMARK    8  A    between atoms: C8_13  and  C9_15 
REMARK    9  A    between atoms: C9_15  and  C10_16 
REMARK   10  A    between atoms: C9_15  and  O17_54 
REMARK   11  A    between atoms: C10_16  and  C13_19 
REMARK   12  A    between atoms: C13_19  and  O4_20 
REMARK   13  A    between atoms: O4_20  and  P1_21 
REMARK   14  A    between atoms: P1_21  and  O6_23 
REMARK   15  A    between atoms: P1_21  and  O7_24 
REMARK   16  A    between atoms: O7_24  and  P2_25 
REMARK   17  A    between atoms: P2_25  and  O9_27 
REMARK   18  A    between atoms: P2_25  and  O10_28 
REMARK   19  A    between atoms: O10_28  and  C14_29 
REMARK   20  A    between atoms: C14_29  and  C15_30 
REMARK   21  A    between atoms: C16_31  and  O13_49 
REMARK   22  A    between atoms: C17_32  and  O12_48 
REMARK   23  A    between atoms: C18_33  and  N3_35 
REMARK   24  A    between atoms: C21_40  and  N7_47 
REMARK   25  A    between atoms: O13_49  and  P3_50 
REMARK   26  A    between atoms: P3_50  and  O15_52 
REMARK   27  A    between atoms: P3_50  and  O16_53 
ROOT
HETATM    1  C1  UNL     1       9.925   4.790  -7.061  1.00  0.00     0.104 C 
HETATM    2  C2  UNL     1       9.611   5.789  -5.990  1.00  0.00     0.182 C 
HETATM    3  O1  UNL     1      10.267   5.899  -4.957  1.00  0.00    -0.286 OA
ENDROOT
BRANCH   2   4
HETATM    4  S1  UNL     1       8.191   6.776  -6.312  1.00  0.00    -0.091 SA
BRANCH   4   5
HETATM    5  C3  UNL     1       6.890   5.708  -5.615  1.00  0.00     0.102 C 
BRANCH   5   6
HETATM    6  C4  UNL     1       6.235   4.833  -6.687  1.00  0.00     0.133 C 
BRANCH   6   7
HETATM    7  N1  UNL     1       4.946   4.317  -6.276  1.00  0.00    -0.360 N 
HETATM    8  C5  UNL     1       4.364   3.240  -6.904  1.00  0.00     0.219 C 
HETATM    9  O2  UNL     1       4.857   2.707  -7.891  1.00  0.00    -0.274 OA
HETATM   10  H8  UNL     1       4.469   4.759  -5.502  1.00  0.00     0.162 HD
BRANCH   8  11
HETATM   11  C6  UNL     1       3.046   2.826  -6.286  1.00  0.00     0.122 C 
BRANCH  11  12
HETATM   12  C7  UNL     1       1.857   3.211  -7.165  1.00  0.00     0.132 C 
BRANCH  12  13
HETATM   13  N2  UNL     1       2.135   3.087  -8.581  1.00  0.00    -0.358 N 
HETATM   14  C8  UNL     1       1.104   3.149  -9.501  1.00  0.00     0.247 C 
HETATM   15  O3  UNL     1      -0.071   3.191  -9.161  1.00  0.00    -0.271 OA
HETATM   16  H13 UNL     1       3.047   3.425  -8.880  1.00  0.00     0.162 HD
BRANCH  14  17
HETATM   17  C9  UNL     1       1.553   3.183 -10.969  1.00  0.00     0.219 C 
BRANCH  17  18
HETATM   18  C10 UNL     1       1.123   4.456 -11.744  1.00  0.00     0.009 C 
HETATM   19  C11 UNL     1       0.888   4.174 -13.235  1.00  0.00     0.020 C 
HETATM   20  C12 UNL     1      -0.173   5.059 -11.165  1.00  0.00     0.020 C 
BRANCH  18  21
HETATM   21  C13 UNL     1       2.292   5.470 -11.582  1.00  0.00     0.192 C 
BRANCH  21  22
HETATM   22  O4  UNL     1       3.320   5.263 -12.530  1.00  0.00    -0.296 OA
BRANCH  22  23
HETATM   23  P1  UNL     1       4.024   6.463 -13.326  1.00  0.00     0.401 P 
HETATM   24  O5  UNL     1       4.436   7.612 -12.462  1.00  0.00    -0.631 OA
BRANCH  23  25
HETATM   25  O6  UNL     1       3.029   6.874 -14.523  1.00  0.00    -0.307 OA
HETATM   26  H23 UNL     1       2.525   7.671 -14.316  1.00  0.00     0.222 HD
ENDBRANCH  23  25
BRANCH  23  27
HETATM   27  O7  UNL     1       5.212   5.778 -14.134  1.00  0.00    -0.195 OA
BRANCH  27  28
HETATM   28  P2  UNL     1       5.841   6.549 -15.378  1.00  0.00     0.401 P 
HETATM   29  O8  UNL     1       4.933   6.824 -16.533  1.00  0.00    -0.631 OA
BRANCH  28  30
HETATM   30  O9  UNL     1       6.471   7.859 -14.719  1.00  0.00    -0.307 OA
HETATM   31  H24 UNL     1       5.826   8.400 -14.201  1.00  0.00     0.222 HD
ENDBRANCH  28  30
BRANCH  28  32
HETATM   32  O10 UNL     1       7.166   5.723 -15.714  1.00  0.00    -0.294 OA
BRANCH  32  33
HETATM   33  C14 UNL     1       8.426   6.271 -15.431  1.00  0.00     0.215 C 
BRANCH  33  34
HETATM   34  C15 UNL     1       9.085   5.329 -14.425  1.00  0.00     0.180 C 
HETATM   35  C16 UNL     1       9.379   6.078 -13.132  1.00  0.00     0.197 C 
HETATM   36  C17 UNL     1      10.889   6.029 -12.994  1.00  0.00     0.199 C 
HETATM   37  C18 UNL     1      11.245   4.772 -13.791  1.00  0.00     0.262 C 
HETATM   38  O11 UNL     1      10.320   4.779 -14.900  1.00  0.00    -0.353 OA
BRANCH  35  39
HETATM   39  O13 UNL     1       8.720   5.398 -12.069  1.00  0.00    -0.286 OA
BRANCH  39  40
HETATM   40  P3  UNL     1       7.804   6.312 -11.129  1.00  0.00     0.391 P 
HETATM   41  O14 UNL     1       6.777   5.546 -10.360  1.00  0.00    -0.632 OA
BRANCH  40  42
HETATM   42  O15 UNL     1       7.284   7.398 -12.183  1.00  0.00    -0.307 OA
HETATM   43  H36 UNL     1       6.598   7.008 -12.775  1.00  0.00     0.222 HD
ENDBRANCH  40  42
BRANCH  40  44
HETATM   44  O16 UNL     1       8.901   7.110 -10.300  1.00  0.00    -0.307 OA
HETATM   45  H37 UNL     1       9.804   6.951 -10.619  1.00  0.00     0.222 HD
ENDBRANCH  40  44
ENDBRANCH  39  40
ENDBRANCH  35  39
BRANCH  36  46
HETATM   46  O12 UNL     1      11.261   6.059 -11.613  1.00  0.00    -0.388 OA
HETATM   47  H35 UNL     1      11.804   5.250 -11.455  1.00  0.00     0.210 HD
ENDBRANCH  36  46
BRANCH  37  48
HETATM   48  N3  UNL     1      12.597   4.809 -14.312  1.00  0.00    -0.297 N 
HETATM   49  C19 UNL     1      13.649   5.561 -13.843  1.00  0.00     0.188 A 
HETATM   50  N4  UNL     1      14.778   5.273 -14.452  1.00  0.00    -0.346 N 
HETATM   51  C20 UNL     1      14.443   4.282 -15.358  1.00  0.00     0.116 A 
HETATM   52  H4  UNL     1      15.696   5.688 -14.292  1.00  0.00     0.167 HD
HETATM   53  C21 UNL     1      15.203   3.531 -16.272  1.00  0.00     0.109 A 
HETATM   54  C23 UNL     1      13.088   4.013 -15.309  1.00  0.00     0.142 A 
HETATM   55  N5  UNL     1      14.567   2.619 -17.047  1.00  0.00    -0.341 N 
HETATM   56  C22 UNL     1      13.234   2.480 -16.907  1.00  0.00     0.183 A 
HETATM   57  H5  UNL     1      15.085   2.052 -17.719  1.00  0.00     0.167 HD
HETATM   58  N6  UNL     1      12.408   3.133 -16.065  1.00  0.00    -0.336 N 
HETATM   59  H6  UNL     1      11.401   2.980 -16.009  1.00  0.00     0.168 HD
BRANCH  53  60
HETATM   60  N7  UNL     1      16.571   3.680 -16.430  1.00  0.00    -0.287 NA
HETATM   61  H33 UNL     1      16.933   3.316 -17.309  1.00  0.00     0.125 HD
HETATM   62  H34 UNL     1      17.092   3.454 -15.594  1.00  0.00     0.125 HD
ENDBRANCH  53  60
ENDBRANCH  37  48
ENDBRANCH  33  34
ENDBRANCH  32  33
ENDBRANCH  28  32
ENDBRANCH  27  28
ENDBRANCH  23  27
ENDBRANCH  22  23
ENDBRANCH  21  22
ENDBRANCH  18  21
ENDBRANCH  17  18
BRANCH  17  63
HETATM   63  O17 UNL     1       2.977   3.060 -11.052  1.00  0.00    -0.385 OA
HETATM   64  H38 UNL     1       3.351   3.294 -10.187  1.00  0.00     0.210 HD
ENDBRANCH  17  63
ENDBRANCH  14  17
ENDBRANCH  12  13
ENDBRANCH  11  12
ENDBRANCH   8  11
ENDBRANCH   6   7
ENDBRANCH   5   6
ENDBRANCH   4   5
ENDBRANCH   2   4
TORSDOF 27
ENDMDL
MODEL 2
REMARK VINA RESULT:      -7.4      2.070      3.224
REMARK  27 active torsions:
REMARK  status: ('A' for Active; 'I' for Inactive)
REMARK    1  A    between atoms: C2_2  and  S1_4 
REMARK    2  A    between atoms: S1_4  and  C3_5 
REMARK    3  A    between atoms: C3_5  and  C4_6 
REMARK    4  A    between atoms: C4_6  and  N1_7 
REMARK       I    between atoms: N1_7  and  C5_8 
REMARK    5  A    between atoms: C5_8  and  C6_10 
REMARK    6  A    between atoms: C6_10  and  C7_11 
REMARK    7  A    between atoms: C7_11  and  N2_12 
REMARK       I    between atoms: N2_12  and  C8_13 
REMARK    8  A    between atoms: C8_13  and  C9_15 
REMARK    9  A    between atoms: C9_15  and  C10_16 
REMARK   10  A    between atoms: C9_15  and  O17_54 
REMARK   11  A    between atoms: C10_16  and  C13_19 
REMARK   12  A    between atoms: C13_19  and  O4_20 
REMARK   13  A    between atoms: O4_20  and  P1_21 
REMARK   14  A    between atoms: P1_21  and  O6_23 
REMARK   15  A    between atoms: P1_21  and  O7_24 
REMARK   16  A    between atoms: O7_24  and  P2_25 
REMARK   17  A    between atoms: P2_25  and  O9_27 
REMARK   18  A    between atoms: P2_25  and  O10_28 
REMARK   19  A    between atoms: O10_28  and  C14_29 
REMARK   20  A    between atoms: C14_29  and  C15_30 
REMARK   21  A    between atoms: C16_31  and  O13_49 
REMARK   22  A    between atoms: C17_32  and  O12_48 
REMARK   23  A    between atoms: C18_33  and  N3_35 
REMARK   24  A    between atoms: C21_40  and  N7_47 
REMARK   25  A    between atoms: O13_49  and  P3_50 
REMARK   26  A    between atoms: P3_50  and  O15_52 
REMARK   27  A    between atoms: P3_50  and  O16_53 
ROOT
HETATM    1  C1  UNL     1      10.106   5.860  -8.291  1.00  0.00     0.104 C 
HETATM    2  C2  UNL     1       9.938   6.660  -9.546  1.00  0.00     0.182 C 
HETATM    3  O1  UNL     1      10.697   7.569  -9.874  1.00  0.00    -0.286 OA
ENDROOT
BRANCH   2   4
HETATM    4  S1  UNL     1       8.532   6.217 -10.506  1.00  0.00    -0.091 SA
BRANCH   4   5
HETATM    5  C3  UNL     1       7.267   6.119  -9.199  1.00  0.00     0.102 C 
BRANCH   5   6
HETATM    6  C4  UNL     1       6.762   4.688  -9.000  1.00  0.00     0.133 C 
BRANCH   6   7
HETATM    7  N1  UNL     1       5.614   4.617  -8.119  1.00  0.00    -0.360 N 
HETATM    8  C5  UNL     1       4.896   3.455  -7.958  1.00  0.00     0.219 C 
HETATM    9  O2  UNL     1       5.129   2.440  -8.604  1.00  0.00    -0.274 OA
HETATM   10  H8  UNL     1       5.343   5.445  -7.606  1.00  0.00     0.162 HD
BRANCH   8  11
HETATM   11  C6  UNL     1       3.772   3.580  -6.953  1.00  0.00     0.122 C 
BRANCH  11  12
HETATM   12  C7  UNL     1       2.406   3.323  -7.588  1.00  0.00     0.132 C 
BRANCH  12  13
HETATM   13  N2  UNL     1       2.462   3.220  -9.031  1.00  0.00    -0.358 N 
HETATM   14  C8  UNL     1       1.297   3.246  -9.777  1.00  0.00     0.247 C 
HETATM   15  O3  UNL     1       0.189   3.235  -9.256  1.00  0.00    -0.271 OA
HETATM   16  H13 UNL     1       3.301   3.599  -9.465  1.00  0.00     0.162 HD
BRANCH  14  17
HETATM   17  C9  UNL     1       1.508   3.308 -11.297  1.00  0.00     0.219 C 
BRANCH  17  18
HETATM   18  C10 UNL     1       1.174   4.682 -11.936  1.00  0.00     0.009 C 
HETATM   19  C11 UNL     1       0.937   4.573 -13.450  1.00  0.00     0.020 C 
HETATM   20  C12 UNL     1      -0.084   5.309 -11.302  1.00  0.00     0.020 C 
BRANCH  18  21
HETATM   21  C13 UNL     1       2.407   5.590 -11.665  1.00  0.00     0.192 C 
BRANCH  21  22
HETATM   22  O4  UNL     1       3.429   5.410 -12.625  1.00  0.00    -0.296 OA
BRANCH  22  23
HETATM   23  P1  UNL     1       4.275   6.629 -13.234  1.00  0.00     0.401 P 
HETATM   24  O5  UNL     1       4.494   7.760 -12.279  1.00  0.00    -0.631 OA
BRANCH  23  25
HETATM   25  O6  UNL     1       3.544   7.065 -14.600  1.00  0.00    -0.307 OA
HETATM   26  H23 UNL     1       4.112   7.614 -15.156  1.00  0.00     0.222 HD
ENDBRANCH  23  25
BRANCH  23  27
HETATM   27  O7  UNL     1       5.607   5.965 -13.795  1.00  0.00    -0.195 OA
BRANCH  27  28
HETATM   28  P2  UNL     1       6.524   6.802 -14.793  1.00  0.00     0.401 P 
HETATM   29  O8  UNL     1       6.226   6.676 -16.252  1.00  0.00    -0.631 OA
BRANCH  28  30
HETATM   30  O9  UNL     1       6.411   8.292 -14.232  1.00  0.00    -0.307 OA
HETATM   31  H24 UNL     1       6.900   8.964 -14.768  1.00  0.00     0.222 HD
ENDBRANCH  28  30
BRANCH  28  32
HETATM   32  O10 UNL     1       8.013   6.434 -14.351  1.00  0.00    -0.294 OA
BRANCH  32  33
HETATM   33  C14 UNL     1       8.682   5.360 -14.960  1.00  0.00     0.215 C 
BRANCH  33  34
HETATM   34  C15 UNL     1      10.071   5.877 -15.329  1.00  0.00     0.180 C 
HETATM   35  C16 UNL     1      10.165   6.073 -16.836  1.00  0.00     0.197 C 
HETATM   36  C17 UNL     1      11.253   5.114 -17.282  1.00  0.00     0.199 C 
HETATM   37  C18 UNL     1      12.091   4.963 -16.010  1.00  0.00     0.262 C 
HETATM   38  O11 UNL     1      11.121   4.984 -14.940  1.00  0.00    -0.353 OA
BRANCH  35  39
HETATM   39  O13 UNL     1      10.512   7.431 -17.084  1.00  0.00    -0.286 OA
BRANCH  39  40
HETATM   40  P3  UNL     1       9.313   8.372 -17.567  1.00  0.00     0.391 P 
HETATM   41  O14 UNL     1       8.415   7.733 -18.576  1.00  0.00    -0.632 OA
BRANCH  40  42
HETATM   42  O15 UNL     1      10.120   9.679 -18.016  1.00  0.00    -0.307 OA
HETATM   43  H36 UNL     1      10.801   9.916 -17.342  1.00  0.00     0.222 HD
ENDBRANCH  40  42
BRANCH  40  44
HETATM   44  O16 UNL     1       8.671   8.803 -16.178  1.00  0.00    -0.307 OA
HETATM   45  H37 UNL     1       8.098   8.118 -15.799  1.00  0.00     0.222 HD
ENDBRANCH  40  44
ENDBRANCH  39  40
ENDBRANCH  35  39
BRANCH  36  46
HETATM   46  O12 UNL     1      11.912   5.619 -18.447  1.00  0.00    -0.388 OA
HETATM   47  H35 UNL     1      11.699   4.993 -19.179  1.00  0.00     0.210 HD
ENDBRANCH  36  46
BRANCH  37  48
HETATM   48  N3  UNL     1      12.810   3.706 -15.964  1.00  0.00    -0.297 N 
HETATM   49  C19 UNL     1      12.677   2.640 -16.822  1.00  0.00     0.188 A 
HETATM   50  N4  UNL     1      13.564   1.697 -16.588  1.00  0.00    -0.346 N 
HETATM   51  C20 UNL     1      14.312   2.178 -15.528  1.00  0.00     0.116 A 
HETATM   52  H4  UNL     1      13.675   0.810 -17.078  1.00  0.00     0.167 HD
HETATM   53  C21 UNL     1      15.427   1.669 -14.840  1.00  0.00     0.109 A 
HETATM   54  C23 UNL     1      13.831   3.404 -15.106  1.00  0.00     0.142 A 
HETATM   55  N5  UNL     1      15.941   2.388 -13.813  1.00  0.00    -0.341 N 
HETATM   56  C22 UNL     1      15.352   3.559 -13.497  1.00  0.00     0.183 A 
HETATM   57  H5  UNL     1      16.751   2.053 -13.293  1.00  0.00     0.167 HD
HETATM   58  N6  UNL     1      14.292   4.149 -14.086  1.00  0.00    -0.336 N 
HETATM   59  H6  UNL     1      13.892   5.042 -13.796  1.00  0.00     0.168 HD
BRANCH  53  60
HETATM   60  N7  UNL     1      16.027   0.459 -15.151  1.00  0.00    -0.287 NA
HETATM   61  H33 UNL     1      17.023   0.524 -15.350  1.00  0.00     0.125 HD
HETATM   62  H34 UNL     1      15.473  -0.106 -15.780  1.00  0.00     0.125 HD
ENDBRANCH  53  60
ENDBRANCH  37  48
ENDBRANCH  33  34
ENDBRANCH  32  33
ENDBRANCH  28  32
ENDBRANCH  27  28
ENDBRANCH  23  27
ENDBRANCH  22  23
ENDBRANCH  21  22
ENDBRANCH  18  21
ENDBRANCH  17  18
BRANCH  17  63
HETATM   63  O17 UNL     1       2.861   2.973 -11.622  1.00  0.00    -0.385 OA
HETATM   64  H38 UNL     1       2.847   2.339 -12.359  1.00  0.00     0.210 HD
ENDBRANCH  17  63
ENDBRANCH  14  17
ENDBRANCH  12  13
ENDBRANCH  11  12
ENDBRANCH   8  11
ENDBRANCH   6   7
ENDBRANCH   5   6
ENDBRANCH   4   5
ENDBRANCH   2   4
TORSDOF 27
ENDMDL
MODEL 3
REMARK VINA RESULT:      -7.3      3.342     10.402
REMARK  27 active torsions:
REMARK  status: ('A' for Active; 'I' for Inactive)
REMARK    1  A    between atoms: C2_2  and  S1_4 
REMARK    2  A    between atoms: S1_4  and  C3_5 
REMARK    3  A    between atoms: C3_5  and  C4_6 
REMARK    4  A    between atoms: C4_6  and  N1_7 
REMARK       I    between atoms: N1_7  and  C5_8 
REMARK    5  A    between atoms: C5_8  and  C6_10 
REMARK    6  A    between atoms: C6_10  and  C7_11 
REMARK    7  A    between atoms: C7_11  and  N2_12 
REMARK       I    between atoms: N2_12  and  C8_13 
REMARK    8  A    between atoms: C8_13  and  C9_15 
REMARK    9  A    between atoms: C9_15  and  C10_16 
REMARK   10  A    between atoms: C9_15  and  O17_54 
REMARK   11  A    between atoms: C10_16  and  C13_19 
REMARK   12  A    between atoms: C13_19  and  O4_20 
REMARK   13  A    between atoms: O4_20  and  P1_21 
REMARK   14  A    between atoms: P1_21  and  O6_23 
REMARK   15  A    between atoms: P1_21  and  O7_24 
REMARK   16  A    between atoms: O7_24  and  P2_25 
REMARK   17  A    between atoms: P2_25  and  O9_27 
REMARK   18  A    between atoms: P2_25  and  O10_28 
REMARK   19  A    between atoms: O10_28  and  C14_29 
REMARK   20  A    between atoms: C14_29  and  C15_30 
REMARK   21  A    between atoms: C16_31  and  O13_49 
REMARK   22  A    between atoms: C17_32  and  O12_48 
REMARK   23  A    between atoms: C18_33  and  N3_35 
REMARK   24  A    between atoms: C21_40  and  N7_47 
REMARK   25  A    between atoms: O13_49  and  P3_50 
REMARK   26  A    between atoms: P3_50  and  O15_52 
REMARK   27  A    between atoms: P3_50  and  O16_53 
ROOT
HETATM    1  C1  UNL     1      15.680   3.790 -19.641  1.00  0.00     0.104 C 
HETATM    2  C2  UNL     1      15.325   4.467 -20.929  1.00  0.00     0.182 C 
HETATM    3  O1  UNL     1      16.003   4.375 -21.949  1.00  0.00    -0.286 OA
ENDROOT
BRANCH   2   4
HETATM    4  S1  UNL     1      13.866   5.446 -20.855  1.00  0.00    -0.091 SA
BRANCH   4   5
HETATM    5  C3  UNL     1      12.608   4.140 -20.679  1.00  0.00     0.102 C 
BRANCH   5   6
HETATM    6  C4  UNL     1      11.752   4.339 -19.426  1.00  0.00     0.133 C 
BRANCH   6   7
HETATM    7  N1  UNL     1      12.200   3.533 -18.309  1.00  0.00    -0.360 N 
HETATM    8  C5  UNL     1      12.873   4.084 -17.243  1.00  0.00     0.219 C 
HETATM    9  O2  UNL     1      13.203   5.263 -17.209  1.00  0.00    -0.274 OA
HETATM   10  H8  UNL     1      12.004   2.541 -18.315  1.00  0.00     0.162 HD
BRANCH   8  11
HETATM   11  C6  UNL     1      13.201   3.080 -16.159  1.00  0.00     0.122 C 
BRANCH  11  12
HETATM   12  C7  UNL     1      12.297   3.242 -14.937  1.00  0.00     0.132 C 
BRANCH  12  13
HETATM   13  N2  UNL     1      11.745   4.575 -14.813  1.00  0.00    -0.358 N 
HETATM   14  C8  UNL     1      10.396   4.750 -14.567  1.00  0.00     0.247 C 
HETATM   15  O3  UNL     1       9.607   3.814 -14.565  1.00  0.00    -0.271 OA
HETATM   16  H13 UNL     1      12.381   5.280 -14.444  1.00  0.00     0.162 HD
BRANCH  14  17
HETATM   17  C9  UNL     1       9.976   6.200 -14.282  1.00  0.00     0.219 C 
BRANCH  17  18
HETATM   18  C10 UNL     1       9.810   7.082 -15.547  1.00  0.00     0.009 C 
HETATM   19  C11 UNL     1      10.968   8.077 -15.714  1.00  0.00     0.020 C 
HETATM   20  C12 UNL     1       9.730   6.226 -16.827  1.00  0.00     0.020 C 
BRANCH  18  21
HETATM   21  C13 UNL     1       8.477   7.861 -15.352  1.00  0.00     0.192 C 
BRANCH  21  22
HETATM   22  O4  UNL     1       7.346   7.085 -15.694  1.00  0.00    -0.296 OA
BRANCH  22  23
HETATM   23  P1  UNL     1       5.923   7.732 -16.054  1.00  0.00     0.401 P 
HETATM   24  O5  UNL     1       5.076   6.886 -16.950  1.00  0.00    -0.631 OA
BRANCH  23  25
HETATM   25  O6  UNL     1       6.215   9.204 -16.635  1.00  0.00    -0.307 OA
HETATM   26  H23 UNL     1       7.018   9.228 -17.172  1.00  0.00     0.222 HD
ENDBRANCH  23  25
BRANCH  23  27
HETATM   27  O7  UNL     1       5.264   8.080 -14.648  1.00  0.00    -0.195 OA
BRANCH  27  28
HETATM   28  P2  UNL     1       4.538   6.921 -13.831  1.00  0.00     0.401 P 
HETATM   29  O8  UNL     1       3.149   6.565 -14.250  1.00  0.00    -0.631 OA
BRANCH  28  30
HETATM   30  O9  UNL     1       5.574   5.710 -13.913  1.00  0.00    -0.307 OA
HETATM   31  H24 UNL     1       5.632   5.171 -13.086  1.00  0.00     0.222 HD
ENDBRANCH  28  30
BRANCH  28  32
HETATM   32  O10 UNL     1       4.716   7.357 -12.304  1.00  0.00    -0.294 OA
BRANCH  32  33
HETATM   33  C14 UNL     1       3.780   6.944 -11.343  1.00  0.00     0.215 C 
BRANCH  33  34
HETATM   34  C15 UNL     1       4.106   5.485 -11.028  1.00  0.00     0.180 C 
HETATM   35  C16 UNL     1       2.839   4.753 -10.607  1.00  0.00     0.197 C 
HETATM   36  C17 UNL     1       3.107   4.311  -9.180  1.00  0.00     0.199 C 
HETATM   37  C18 UNL     1       4.636   4.236  -9.147  1.00  0.00     0.262 C 
HETATM   38  O11 UNL     1       5.064   5.342  -9.973  1.00  0.00    -0.353 OA
BRANCH  35  39
HETATM   39  O13 UNL     1       2.655   3.648 -11.485  1.00  0.00    -0.286 OA
BRANCH  39  40
HETATM   40  P3  UNL     1       1.484   3.811 -12.562  1.00  0.00     0.391 P 
HETATM   41  O14 UNL     1       0.650   5.035 -12.363  1.00  0.00    -0.632 OA
BRANCH  40  42
HETATM   42  O15 UNL     1       0.759   2.391 -12.432  1.00  0.00    -0.307 OA
HETATM   43  H36 UNL     1       1.421   1.671 -12.308  1.00  0.00     0.222 HD
ENDBRANCH  40  42
BRANCH  40  44
HETATM   44  O16 UNL     1       2.290   3.682 -13.926  1.00  0.00    -0.307 OA
HETATM   45  H37 UNL     1       1.949   4.266 -14.622  1.00  0.00     0.222 HD
ENDBRANCH  40  44
ENDBRANCH  39  40
ENDBRANCH  35  39
BRANCH  36  46
HETATM   46  O12 UNL     1       2.385   3.112  -8.889  1.00  0.00    -0.388 OA
HETATM   47  H35 UNL     1       2.852   2.683  -8.133  1.00  0.00     0.210 HD
ENDBRANCH  36  46
BRANCH  37  48
HETATM   48  N3  UNL     1       5.173   4.416  -7.813  1.00  0.00    -0.297 N 
HETATM   49  C19 UNL     1       4.493   4.307  -6.622  1.00  0.00     0.188 A 
HETATM   50  N4  UNL     1       5.293   4.402  -5.582  1.00  0.00    -0.346 N 
HETATM   51  C20 UNL     1       6.553   4.577  -6.125  1.00  0.00     0.116 A 
HETATM   52  H4  UNL     1       5.040   4.357  -4.595  1.00  0.00     0.167 HD
HETATM   53  C21 UNL     1       7.830   4.700  -5.551  1.00  0.00     0.109 A 
HETATM   54  C23 UNL     1       6.488   4.627  -7.506  1.00  0.00     0.142 A 
HETATM   55  N5  UNL     1       8.896   4.875  -6.369  1.00  0.00    -0.341 N 
HETATM   56  C22 UNL     1       8.678   4.928  -7.698  1.00  0.00     0.183 A 
HETATM   57  H5  UNL     1       9.838   4.965  -5.989  1.00  0.00     0.167 HD
HETATM   58  N6  UNL     1       7.509   4.814  -8.361  1.00  0.00    -0.336 N 
HETATM   59  H6  UNL     1       7.412   4.864  -9.375  1.00  0.00     0.168 HD
BRANCH  53  60
HETATM   60  N7  UNL     1       8.057   4.661  -4.184  1.00  0.00    -0.287 NA
HETATM   61  H33 UNL     1       8.216   5.573  -3.760  1.00  0.00     0.125 HD
HETATM   62  H34 UNL     1       8.682   3.916  -3.909  1.00  0.00     0.125 HD
ENDBRANCH  53  60
ENDBRANCH  37  48
ENDBRANCH  33  34
ENDBRANCH  32  33
ENDBRANCH  28  32
ENDBRANCH  27  28
ENDBRANCH  23  27
ENDBRANCH  22  23
ENDBRANCH  21  22
ENDBRANCH  18  21
ENDBRANCH  17  18
BRANCH  17  63
HETATM   63  O17 UNL     1       8.747   6.221 -13.548  1.00  0.00    -0.385 OA
HETATM   64  H38 UNL     1       8.065   5.786 -14.088  1.00  0.00     0.210 HD
ENDBRANCH  17  63
ENDBRANCH  14  17
ENDBRANCH  12  13
ENDBRANCH  11  12
ENDBRANCH   8  11
ENDBRANCH   6   7
ENDBRANCH   5   6
ENDBRANCH   4   5
ENDBRANCH   2   4
TORSDOF 27
ENDMDL
MODEL 4
REMARK VINA RESULT:      -6.9      3.401      7.222
REMARK  27 active torsions:
REMARK  status: ('A' for Active; 'I' for Inactive)
REMARK    1  A    between atoms: C2_2  and  S1_4 
REMARK    2  A    between atoms: S1_4  and  C3_5 
REMARK    3  A    between atoms: C3_5  and  C4_6 
REMARK    4  A    between atoms: C4_6  and  N1_7 
REMARK       I    between atoms: N1_7  and  C5_8 
REMARK    5  A    between atoms: C5_8  and  C6_10 
REMARK    6  A    between atoms: C6_10  and  C7_11 
REMARK    7  A    between atoms: C7_11  and  N2_12 
REMARK       I    between atoms: N2_12  and  C8_13 
REMARK    8  A    between atoms: C8_13  and  C9_15 
REMARK    9  A    between atoms: C9_15  and  C10_16 
REMARK   10  A    between atoms: C9_15  and  O17_54 
REMARK   11  A    between atoms: C10_16  and  C13_19 
REMARK   12  A    between atoms: C13_19  and  O4_20 
REMARK   13  A    between atoms: O4_20  and  P1_21 
REMARK   14  A    between atoms: P1_21  and  O6_23 
REMARK   15  A    between atoms: P1_21  and  O7_24 
REMARK   16  A    between atoms: O7_24  and  P2_25 
REMARK   17  A    between atoms: P2_25  and  O9_27 
REMARK   18  A    between atoms: P2_25  and  O10_28 
REMARK   19  A    between atoms: O10_28  and  C14_29 
REMARK   20  A    between atoms: C14_29  and  C15_30 
REMARK   21  A    between atoms: C16_31  and  O13_49 
REMARK   22  A    between atoms: C17_32  and  O12_48 
REMARK   23  A    between atoms: C18_33  and  N3_35 
REMARK   24  A    between atoms: C21_40  and  N7_47 
REMARK   25  A    between atoms: O13_49  and  P3_50 
REMARK   26  A    between atoms: P3_50  and  O15_52 
REMARK   27  A    between atoms: P3_50  and  O16_53 
ROOT
HETATM    1  C1  UNL     1      15.286   4.769 -13.214  1.00  0.00     0.104 C 
HETATM    2  C2  UNL     1      13.829   5.053 -13.004  1.00  0.00     0.182 C 
HETATM    3  O1  UNL     1      12.933   4.323 -13.420  1.00  0.00    -0.286 OA
ENDROOT
BRANCH   2   4
HETATM    4  S1  UNL     1      13.499   6.549 -12.142  1.00  0.00    -0.091 SA
BRANCH   4   5
HETATM    5  C3  UNL     1      12.651   5.894 -10.669  1.00  0.00     0.102 C 
BRANCH   5   6
HETATM    6  C4  UNL     1      13.546   4.944  -9.871  1.00  0.00     0.133 C 
BRANCH   6   7
HETATM    7  N1  UNL     1      13.516   5.210  -8.448  1.00  0.00    -0.360 N 
HETATM    8  C5  UNL     1      12.889   4.362  -7.565  1.00  0.00     0.219 C 
HETATM    9  O2  UNL     1      12.253   3.381  -7.932  1.00  0.00    -0.274 OA
HETATM   10  H8  UNL     1      13.977   6.040  -8.098  1.00  0.00     0.162 HD
BRANCH   8  11
HETATM   11  C6  UNL     1      13.022   4.794  -6.121  1.00  0.00     0.122 C 
BRANCH  11  12
HETATM   12  C7  UNL     1      11.820   5.616  -5.657  1.00  0.00     0.132 C 
BRANCH  12  13
HETATM   13  N2  UNL     1      10.551   5.009  -6.001  1.00  0.00    -0.358 N 
HETATM   14  C8  UNL     1       9.645   4.681  -5.010  1.00  0.00     0.247 C 
HETATM   15  O3  UNL     1       9.917   4.776  -3.820  1.00  0.00    -0.271 OA
HETATM   16  H13 UNL     1      10.174   5.268  -6.910  1.00  0.00     0.162 HD
BRANCH  14  17
HETATM   17  C9  UNL     1       8.274   4.211  -5.520  1.00  0.00     0.219 C 
BRANCH  17  18
HETATM   18  C10 UNL     1       7.118   5.215  -5.273  1.00  0.00     0.009 C 
HETATM   19  C11 UNL     1       5.815   4.778  -5.959  1.00  0.00     0.020 C 
HETATM   20  C12 UNL     1       6.828   5.384  -3.767  1.00  0.00     0.020 C 
BRANCH  18  21
HETATM   21  C13 UNL     1       7.593   6.570  -5.870  1.00  0.00     0.192 C 
BRANCH  21  22
HETATM   22  O4  UNL     1       7.280   6.693  -7.243  1.00  0.00    -0.296 OA
BRANCH  22  23
HETATM   23  P1  UNL     1       8.324   7.242  -8.329  1.00  0.00     0.401 P 
HETATM   24  O5  UNL     1       9.591   6.452  -8.413  1.00  0.00    -0.631 OA
BRANCH  23  25
HETATM   25  O6  UNL     1       8.552   8.803  -8.008  1.00  0.00    -0.307 OA
HETATM   26  H23 UNL     1       9.366   8.955  -7.511  1.00  0.00     0.222 HD
ENDBRANCH  23  25
BRANCH  23  27
HETATM   27  O7  UNL     1       7.499   7.323  -9.687  1.00  0.00    -0.195 OA
BRANCH  27  28
HETATM   28  P2  UNL     1       7.338   6.006 -10.569  1.00  0.00     0.401 P 
HETATM   29  O8  UNL     1       8.388   5.749 -11.600  1.00  0.00    -0.631 OA
BRANCH  28  30
HETATM   30  O9  UNL     1       7.198   4.849  -9.478  1.00  0.00    -0.307 OA
HETATM   31  H24 UNL     1       7.065   3.947  -9.861  1.00  0.00     0.222 HD
ENDBRANCH  28  30
BRANCH  28  32
HETATM   32  O10 UNL     1       5.836   6.084 -11.108  1.00  0.00    -0.294 OA
BRANCH  32  33
HETATM   33  C14 UNL     1       5.205   7.330 -11.251  1.00  0.00     0.215 C 
BRANCH  33  34
HETATM   34  C15 UNL     1       4.962   7.516 -12.748  1.00  0.00     0.180 C 
HETATM   35  C16 UNL     1       4.607   6.179 -13.383  1.00  0.00     0.197 C 
HETATM   36  C17 UNL     1       5.717   5.921 -14.384  1.00  0.00     0.199 C 
HETATM   37  C18 UNL     1       6.202   7.338 -14.699  1.00  0.00     0.262 C 
HETATM   38  O11 UNL     1       6.104   8.037 -13.438  1.00  0.00    -0.353 OA
BRANCH  35  39
HETATM   39  O13 UNL     1       3.337   6.313 -14.012  1.00  0.00    -0.286 OA
BRANCH  39  40
HETATM   40  P3  UNL     1       2.166   5.412 -13.400  1.00  0.00     0.391 P 
HETATM   41  O14 UNL     1       2.134   5.399 -11.906  1.00  0.00    -0.632 OA
BRANCH  40  42
HETATM   42  O15 UNL     1       2.435   4.024 -14.148  1.00  0.00    -0.307 OA
HETATM   43  H36 UNL     1       1.971   3.284 -13.688  1.00  0.00     0.222 HD
ENDBRANCH  40  42
BRANCH  40  44
HETATM   44  O16 UNL     1       0.894   5.991 -14.159  1.00  0.00    -0.307 OA
HETATM   45  H37 UNL     1       0.355   5.299 -14.573  1.00  0.00     0.222 HD
ENDBRANCH  40  44
ENDBRANCH  39  40
ENDBRANCH  35  39
BRANCH  36  46
HETATM   46  O12 UNL     1       5.228   5.137 -15.475  1.00  0.00    -0.388 OA
HETATM   47  H35 UNL     1       4.409   4.692 -15.152  1.00  0.00     0.210 HD
ENDBRANCH  36  46
BRANCH  37  48
HETATM   48  N3  UNL     1       7.582   7.368 -15.142  1.00  0.00    -0.297 N 
HETATM   49  C19 UNL     1       8.273   8.449 -15.636  1.00  0.00     0.188 A 
HETATM   50  N4  UNL     1       9.546   8.182 -15.830  1.00  0.00    -0.346 N 
HETATM   51  C20 UNL     1       9.689   6.862 -15.437  1.00  0.00     0.116 A 
HETATM   52  H4  UNL     1      10.268   8.806 -16.189  1.00  0.00     0.167 HD
HETATM   53  C21 UNL     1      10.800   6.006 -15.361  1.00  0.00     0.109 A 
HETATM   54  C23 UNL     1       8.472   6.335 -15.046  1.00  0.00     0.142 A 
HETATM   55  N5  UNL     1      10.611   4.733 -14.935  1.00  0.00    -0.341 N 
HETATM   56  C22 UNL     1       9.361   4.349 -14.609  1.00  0.00     0.183 A 
HETATM   57  H5  UNL     1      11.394   4.083 -14.864  1.00  0.00     0.167 HD
HETATM   58  N6  UNL     1       8.227   5.079 -14.632  1.00  0.00    -0.336 N 
HETATM   59  H6  UNL     1       7.307   4.725 -14.370  1.00  0.00     0.168 HD
BRANCH  53  60
HETATM   60  N7  UNL     1      12.085   6.391 -15.710  1.00  0.00    -0.287 NA
HETATM   61  H33 UNL     1      12.819   5.936 -15.173  1.00  0.00     0.125 HD
HETATM   62  H34 UNL     1      12.174   7.389 -15.849  1.00  0.00     0.125 HD
ENDBRANCH  53  60
ENDBRANCH  37  48
ENDBRANCH  33  34
ENDBRANCH  32  33
ENDBRANCH  28  32
ENDBRANCH  27  28
ENDBRANCH  23  27
ENDBRANCH  22  23
ENDBRANCH  21  22
ENDBRANCH  18  21
ENDBRANCH  17  18
BRANCH  17  63
HETATM   63  O17 UNL     1       8.340   3.931  -6.923  1.00  0.00    -0.385 OA
HETATM   64  H38 UNL     1       8.884   4.619  -7.343  1.00  0.00     0.210 HD
ENDBRANCH  17  63
ENDBRANCH  14  17
ENDBRANCH  12  13
ENDBRANCH  11  12
ENDBRANCH   8  11
ENDBRANCH   6   7
ENDBRANCH   5   6
ENDBRANCH   4   5
ENDBRANCH   2   4
TORSDOF 27
ENDMDL
MODEL 5
REMARK VINA RESULT:      -6.6      3.030      9.628
REMARK  27 active torsions:
REMARK  status: ('A' for Active; 'I' for Inactive)
REMARK    1  A    between atoms: C2_2  and  S1_4 
REMARK    2  A    between atoms: S1_4  and  C3_5 
REMARK    3  A    between atoms: C3_5  and  C4_6 
REMARK    4  A    between atoms: C4_6  and  N1_7 
REMARK       I    between atoms: N1_7  and  C5_8 
REMARK    5  A    between atoms: C5_8  and  C6_10 
REMARK    6  A    between atoms: C6_10  and  C7_11 
REMARK    7  A    between atoms: C7_11  and  N2_12 
REMARK       I    between atoms: N2_12  and  C8_13 
REMARK    8  A    between atoms: C8_13  and  C9_15 
REMARK    9  A    between atoms: C9_15  and  C10_16 
REMARK   10  A    between atoms: C9_15  and  O17_54 
REMARK   11  A    between atoms: C10_16  and  C13_19 
REMARK   12  A    between atoms: C13_19  and  O4_20 
REMARK   13  A    between atoms: O4_20  and  P1_21 
REMARK   14  A    between atoms: P1_21  and  O6_23 
REMARK   15  A    between atoms: P1_21  and  O7_24 
REMARK   16  A    between atoms: O7_24  and  P2_25 
REMARK   17  A    between atoms: P2_25  and  O9_27 
REMARK   18  A    between atoms: P2_25  and  O10_28 
REMARK   19  A    between atoms: O10_28  and  C14_29 
REMARK   20  A    between atoms: C14_29  and  C15_30 
REMARK   21  A    between atoms: C16_31  and  O13_49 
REMARK   22  A    between atoms: C17_32  and  O12_48 
REMARK   23  A    between atoms: C18_33  and  N3_35 
REMARK   24  A    between atoms: C21_40  and  N7_47 
REMARK   25  A    between atoms: O13_49  and  P3_50 
REMARK   26  A    between atoms: P3_50  and  O15_52 
REMARK   27  A    between atoms: P3_50  and  O16_53 
ROOT
HETATM    1  C1  UNL     1      16.598  10.206 -13.757  1.00  0.00     0.104 C 
HETATM    2  C2  UNL     1      15.190   9.861 -13.377  1.00  0.00     0.182 C 
HETATM    3  O1  UNL     1      14.209  10.459 -13.811  1.00  0.00    -0.286 OA
ENDROOT
BRANCH   2   4
HETATM    4  S1  UNL     1      15.053   8.545 -12.219  1.00  0.00    -0.091 SA
BRANCH   4   5
HETATM    5  C3  UNL     1      14.503   7.201 -13.320  1.00  0.00     0.102 C 
BRANCH   5   6
HETATM    6  C4  UNL     1      14.079   5.958 -12.535  1.00  0.00     0.133 C 
BRANCH   6   7
HETATM    7  N1  UNL     1      13.394   4.983 -13.359  1.00  0.00    -0.360 N 
HETATM    8  C5  UNL     1      12.052   5.087 -13.640  1.00  0.00     0.219 C 
HETATM    9  O2  UNL     1      11.341   5.957 -13.151  1.00  0.00    -0.274 OA
HETATM   10  H8  UNL     1      13.924   4.211 -13.740  1.00  0.00     0.162 HD
BRANCH   8  11
HETATM   11  C6  UNL     1      11.547   3.998 -14.562  1.00  0.00     0.122 C 
BRANCH  11  12
HETATM   12  C7  UNL     1      11.651   4.401 -16.032  1.00  0.00     0.132 C 
BRANCH  12  13
HETATM   13  N2  UNL     1      11.400   5.810 -16.254  1.00  0.00    -0.358 N 
HETATM   14  C8  UNL     1      11.449   6.333 -17.533  1.00  0.00     0.247 C 
HETATM   15  O3  UNL     1      11.816   5.670 -18.495  1.00  0.00    -0.271 OA
HETATM   16  H13 UNL     1      10.762   6.250 -15.595  1.00  0.00     0.162 HD
BRANCH  14  17
HETATM   17  C9  UNL     1      10.992   7.795 -17.649  1.00  0.00     0.219 C 
BRANCH  17  18
HETATM   18  C10 UNL     1       9.690   7.998 -18.467  1.00  0.00     0.009 C 
HETATM   19  C11 UNL     1       9.364   9.484 -18.676  1.00  0.00     0.020 C 
HETATM   20  C12 UNL     1       9.785   7.332 -19.855  1.00  0.00     0.020 C 
BRANCH  18  21
HETATM   21  C13 UNL     1       8.556   7.326 -17.640  1.00  0.00     0.192 C 
BRANCH  21  22
HETATM   22  O4  UNL     1       8.131   8.129 -16.558  1.00  0.00    -0.296 OA
BRANCH  22  23
HETATM   23  P1  UNL     1       6.789   7.835 -15.730  1.00  0.00     0.401 P 
HETATM   24  O5  UNL     1       5.562   8.464 -16.310  1.00  0.00    -0.631 OA
BRANCH  23  25
HETATM   25  O6  UNL     1       7.080   8.264 -14.206  1.00  0.00    -0.307 OA
HETATM   26  H23 UNL     1       8.022   8.399 -14.041  1.00  0.00     0.222 HD
ENDBRANCH  23  25
BRANCH  23  27
HETATM   27  O7  UNL     1       6.726   6.251 -15.599  1.00  0.00    -0.195 OA
BRANCH  27  28
HETATM   28  P2  UNL     1       7.801   5.510 -14.686  1.00  0.00     0.401 P 
HETATM   29  O8  UNL     1       8.118   4.091 -15.030  1.00  0.00    -0.631 OA
BRANCH  28  30
HETATM   30  O9  UNL     1       9.062   6.489 -14.737  1.00  0.00    -0.307 OA
HETATM   31  H24 UNL     1       8.849   7.432 -14.530  1.00  0.00     0.222 HD
ENDBRANCH  28  30
BRANCH  28  32
HETATM   32  O10 UNL     1       7.288   5.770 -13.197  1.00  0.00    -0.294 OA
BRANCH  32  33
HETATM   33  C14 UNL     1       8.200   5.775 -12.130  1.00  0.00     0.215 C 
BRANCH  33  34
HETATM   34  C15 UNL     1       7.478   6.430 -10.954  1.00  0.00     0.180 C 
HETATM   35  C16 UNL     1       8.264   6.196  -9.671  1.00  0.00     0.197 C 
HETATM   36  C17 UNL     1       7.330   5.387  -8.790  1.00  0.00     0.199 C 
HETATM   37  C18 UNL     1       5.954   5.782  -9.330  1.00  0.00     0.262 C 
HETATM   38  O11 UNL     1       6.155   5.917 -10.755  1.00  0.00    -0.353 OA
BRANCH  35  39
HETATM   39  O13 UNL     1       8.572   7.465  -9.104  1.00  0.00    -0.286 OA
BRANCH  39  40
HETATM   40  P3  UNL     1      10.128   7.818  -9.009  1.00  0.00     0.391 P 
HETATM   41  O14 UNL     1      10.801   7.253  -7.800  1.00  0.00    -0.632 OA
BRANCH  40  42
HETATM   42  O15 UNL     1      10.083   9.410  -9.155  1.00  0.00    -0.307 OA
HETATM   43  H36 UNL     1       9.822   9.832  -8.302  1.00  0.00     0.222 HD
ENDBRANCH  40  42
BRANCH  40  44
HETATM   44  O16 UNL     1      10.648   7.338 -10.433  1.00  0.00    -0.307 OA
HETATM   45  H37 UNL     1      10.170   6.562 -10.766  1.00  0.00     0.222 HD
ENDBRANCH  40  44
ENDBRANCH  39  40
ENDBRANCH  35  39
BRANCH  36  46
HETATM   46  O12 UNL     1       7.595   5.653  -7.410  1.00  0.00    -0.388 OA
HETATM   47  H35 UNL     1       8.487   5.276  -7.221  1.00  0.00     0.210 HD
ENDBRANCH  36  46
BRANCH  37  48
HETATM   48  N3  UNL     1       4.951   4.763  -9.096  1.00  0.00    -0.297 N 
HETATM   49  C19 UNL     1       5.004   3.739  -8.180  1.00  0.00     0.188 A 
HETATM   50  N4  UNL     1       3.880   3.059  -8.125  1.00  0.00    -0.346 N 
HETATM   51  C20 UNL     1       3.055   3.675  -9.049  1.00  0.00     0.116 A 
HETATM   52  H4  UNL     1       3.664   2.256  -7.534  1.00  0.00     0.167 HD
HETATM   53  C21 UNL     1       1.720   3.453  -9.433  1.00  0.00     0.109 A 
HETATM   54  C23 UNL     1       3.719   4.707  -9.686  1.00  0.00     0.142 A 
HETATM   55  N5  UNL     1       1.183   4.238 -10.398  1.00  0.00    -0.341 N 
HETATM   56  C22 UNL     1       1.959   5.193 -10.948  1.00  0.00     0.183 A 
HETATM   57  H5  UNL     1       0.218   4.110 -10.700  1.00  0.00     0.167 HD
HETATM   58  N6  UNL     1       3.239   5.503 -10.658  1.00  0.00    -0.336 N 
HETATM   59  H6  UNL     1       3.773   6.243 -11.115  1.00  0.00     0.168 HD
BRANCH  53  60
HETATM   60  N7  UNL     1       0.923   2.463  -8.880  1.00  0.00    -0.287 NA
HETATM   61  H33 UNL     1      -0.036   2.461  -9.219  1.00  0.00     0.125 HD
HETATM   62  H34 UNL     1       1.055   2.361  -7.883  1.00  0.00     0.125 HD
ENDBRANCH  53  60
ENDBRANCH  37  48
ENDBRANCH  33  34
ENDBRANCH  32  33
ENDBRANCH  28  32
ENDBRANCH  27  28
ENDBRANCH  23  27
ENDBRANCH  22  23
ENDBRANCH  21  22
ENDBRANCH  18  21
ENDBRANCH  17  18
BRANCH  17  63
HETATM   63  O17 UNL     1      10.802   8.356 -16.345  1.00  0.00    -0.385 OA
HETATM   64  H38 UNL     1      11.636   8.773 -16.072  1.00  0.00     0.210 HD
ENDBRANCH  17  63
ENDBRANCH  14  17
ENDBRANCH  12  13
ENDBRANCH  11  12
ENDBRANCH   8  11
ENDBRANCH   6   7
ENDBRANCH   5   6
ENDBRANCH   4   5
ENDBRANCH   2   4
TORSDOF 27
ENDMDL
MODEL 6
REMARK VINA RESULT:      -6.4      3.880      8.232
REMARK  27 active torsions:
REMARK  status: ('A' for Active; 'I' for Inactive)
REMARK    1  A    between atoms: C2_2  and  S1_4 
REMARK    2  A    between atoms: S1_4  and  C3_5 
REMARK    3  A    between atoms: C3_5  and  C4_6 
REMARK    4  A    between atoms: C4_6  and  N1_7 
REMARK       I    between atoms: N1_7  and  C5_8 
REMARK    5  A    between atoms: C5_8  and  C6_10 
REMARK    6  A    between atoms: C6_10  and  C7_11 
REMARK    7  A    between atoms: C7_11  and  N2_12 
REMARK       I    between atoms: N2_12  and  C8_13 
REMARK    8  A    between atoms: C8_13  and  C9_15 
REMARK    9  A    between atoms: C9_15  and  C10_16 
REMARK   10  A    between atoms: C9_15  and  O17_54 
REMARK   11  A    between atoms: C10_16  and  C13_19 
REMARK   12  A    between atoms: C13_19  and  O4_20 
REMARK   13  A    between atoms: O4_20  and  P1_21 
REMARK   14  A    between atoms: P1_21  and  O6_23 
REMARK   15  A    between atoms: P1_21  and  O7_24 
REMARK   16  A    between atoms: O7_24  and  P2_25 
REMARK   17  A    between atoms: P2_25  and  O9_27 
REMARK   18  A    between atoms: P2_25  and  O10_28 
REMARK   19  A    between atoms: O10_28  and  C14_29 
REMARK   20  A    between atoms: C14_29  and  C15_30 
REMARK   21  A    between atoms: C16_31  and  O13_49 
REMARK   22  A    between atoms: C17_32  and  O12_48 
REMARK   23  A    between atoms: C18_33  and  N3_35 
REMARK   24  A    between atoms: C21_40  and  N7_47 
REMARK   25  A    between atoms: O13_49  and  P3_50 
REMARK   26  A    between atoms: P3_50  and  O15_52 
REMARK   27  A    between atoms: P3_50  and  O16_53 
ROOT
HETATM    1  C1  UNL     1      -0.010   4.670 -11.498  1.00  0.00     0.104 C 
HETATM    2  C2  UNL     1       1.361   4.838 -10.919  1.00  0.00     0.182 C 
HETATM    3  O1  UNL     1       2.120   5.750 -11.238  1.00  0.00    -0.286 OA
ENDROOT
BRANCH   2   4
HETATM    4  S1  UNL     1       1.819   3.593  -9.766  1.00  0.00    -0.091 SA
BRANCH   4   5
HETATM    5  C3  UNL     1       3.417   4.255  -9.192  1.00  0.00     0.102 C 
BRANCH   5   6
HETATM    6  C4  UNL     1       4.481   3.161  -9.085  1.00  0.00     0.133 C 
BRANCH   6   7
HETATM    7  N1  UNL     1       5.468   3.440  -8.062  1.00  0.00    -0.360 N 
HETATM    8  C5  UNL     1       6.570   4.224  -8.313  1.00  0.00     0.219 C 
HETATM    9  O2  UNL     1       6.827   4.664  -9.428  1.00  0.00    -0.274 OA
HETATM   10  H8  UNL     1       5.334   3.051  -7.138  1.00  0.00     0.162 HD
BRANCH   8  11
HETATM   11  C6  UNL     1       7.445   4.436  -7.096  1.00  0.00     0.122 C 
BRANCH  11  12
HETATM   12  C7  UNL     1       7.732   5.917  -6.851  1.00  0.00     0.132 C 
BRANCH  12  13
HETATM   13  N2  UNL     1       8.501   6.530  -7.913  1.00  0.00    -0.358 N 
HETATM   14  C8  UNL     1       9.299   7.628  -7.651  1.00  0.00     0.247 C 
HETATM   15  O3  UNL     1       9.298   8.190  -6.563  1.00  0.00    -0.271 OA
HETATM   16  H13 UNL     1       8.804   5.901  -8.654  1.00  0.00     0.162 HD
BRANCH  14  17
HETATM   17  C9  UNL     1      10.194   8.068  -8.819  1.00  0.00     0.219 C 
BRANCH  17  18
HETATM   18  C10 UNL     1      11.566   7.347  -8.885  1.00  0.00     0.009 C 
HETATM   19  C11 UNL     1      12.736   8.338  -8.982  1.00  0.00     0.020 C 
HETATM   20  C12 UNL     1      11.797   6.458  -7.647  1.00  0.00     0.020 C 
BRANCH  18  21
HETATM   21  C13 UNL     1      11.522   6.464 -10.165  1.00  0.00     0.192 C 
BRANCH  21  22
HETATM   22  O4  UNL     1      11.928   7.170 -11.321  1.00  0.00    -0.296 OA
BRANCH  22  23
HETATM   23  P1  UNL     1      12.890   6.535 -12.435  1.00  0.00     0.401 P 
HETATM   24  O5  UNL     1      14.260   6.194 -11.939  1.00  0.00    -0.631 OA
BRANCH  23  25
HETATM   25  O6  UNL     1      12.887   7.550 -13.685  1.00  0.00    -0.307 OA
HETATM   26  H23 UNL     1      12.483   7.157 -14.469  1.00  0.00     0.222 HD
ENDBRANCH  23  25
BRANCH  23  27
HETATM   27  O7  UNL     1      12.074   5.307 -13.033  1.00  0.00    -0.195 OA
BRANCH  27  28
HETATM   28  P2  UNL     1      12.413   4.800 -14.504  1.00  0.00     0.401 P 
HETATM   29  O8  UNL     1      13.824   4.960 -14.967  1.00  0.00    -0.631 OA
BRANCH  28  30
HETATM   30  O9  UNL     1      11.897   3.289 -14.499  1.00  0.00    -0.307 OA
HETATM   31  H24 UNL     1      11.005   3.166 -14.905  1.00  0.00     0.222 HD
ENDBRANCH  28  30
BRANCH  28  32
HETATM   32  O10 UNL     1      11.297   5.488 -15.416  1.00  0.00    -0.294 OA
BRANCH  32  33
HETATM   33  C14 UNL     1      11.576   5.790 -16.758  1.00  0.00     0.215 C 
BRANCH  33  34
HETATM   34  C15 UNL     1      10.231   6.091 -17.416  1.00  0.00     0.180 C 
HETATM   35  C16 UNL     1      10.222   7.521 -17.942  1.00  0.00     0.197 C 
HETATM   36  C17 UNL     1       9.117   8.210 -17.163  1.00  0.00     0.199 C 
HETATM   37  C18 UNL     1       8.210   7.037 -16.783  1.00  0.00     0.262 C 
HETATM   38  O11 UNL     1       9.125   5.951 -16.517  1.00  0.00    -0.353 OA
BRANCH  35  39
HETATM   39  O13 UNL     1       9.947   7.475 -19.338  1.00  0.00    -0.286 OA
BRANCH  39  40
HETATM   40  P3  UNL     1      10.992   8.244 -20.272  1.00  0.00     0.391 P 
HETATM   41  O14 UNL     1      10.606   9.655 -20.576  1.00  0.00    -0.632 OA
BRANCH  40  42
HETATM   42  O15 UNL     1      11.102   7.225 -21.500  1.00  0.00    -0.307 OA
HETATM   43  H36 UNL     1      11.867   6.614 -21.380  1.00  0.00     0.222 HD
ENDBRANCH  40  42
BRANCH  40  44
HETATM   44  O16 UNL     1      12.353   8.006 -19.483  1.00  0.00    -0.307 OA
HETATM   45  H37 UNL     1      12.227   7.517 -18.655  1.00  0.00     0.222 HD
ENDBRANCH  40  44
ENDBRANCH  39  40
ENDBRANCH  35  39
BRANCH  36  46
HETATM   46  O12 UNL     1       8.541   9.260 -17.944  1.00  0.00    -0.388 OA
HETATM   47  H35 UNL     1       7.663   9.457 -17.540  1.00  0.00     0.210 HD
ENDBRANCH  36  46
BRANCH  37  48
HETATM   48  N3  UNL     1       7.436   7.298 -15.586  1.00  0.00    -0.297 N 
HETATM   49  C19 UNL     1       6.223   7.942 -15.505  1.00  0.00     0.188 A 
HETATM   50  N4  UNL     1       5.720   7.906 -14.290  1.00  0.00    -0.346 N 
HETATM   51  C20 UNL     1       6.651   7.200 -13.548  1.00  0.00     0.116 A 
HETATM   52  H4  UNL     1       4.841   8.308 -13.967  1.00  0.00     0.167 HD
HETATM   53  C21 UNL     1       6.683   6.787 -12.205  1.00  0.00     0.109 A 
HETATM   54  C23 UNL     1       7.737   6.852 -14.330  1.00  0.00     0.142 A 
HETATM   55  N5  UNL     1       7.766   6.102 -11.762  1.00  0.00    -0.341 N 
HETATM   56  C22 UNL     1       8.764   5.854 -12.634  1.00  0.00     0.183 A 
HETATM   57  H5  UNL     1       7.824   5.783 -10.795  1.00  0.00     0.167 HD
HETATM   58  N6  UNL     1       8.840   6.189 -13.938  1.00  0.00    -0.336 N 
HETATM   59  H6  UNL     1       9.629   5.970 -14.546  1.00  0.00     0.168 HD
BRANCH  53  60
HETATM   60  N7  UNL     1       5.667   7.053 -11.301  1.00  0.00    -0.287 NA
HETATM   61  H33 UNL     1       4.821   6.508 -11.450  1.00  0.00     0.125 HD
HETATM   62  H34 UNL     1       5.546   8.041 -11.122  1.00  0.00     0.125 HD
ENDBRANCH  53  60
ENDBRANCH  37  48
ENDBRANCH  33  34
ENDBRANCH  32  33
ENDBRANCH  28  32
ENDBRANCH  27  28
ENDBRANCH  23  27
ENDBRANCH  22  23
ENDBRANCH  21  22
ENDBRANCH  18  21
ENDBRANCH  17  18
BRANCH  17  63
HETATM   63  O17 UNL     1       9.514   7.867 -10.063  1.00  0.00    -0.385 OA
HETATM   64  H38 UNL     1       8.561   7.819  -9.882  1.00  0.00     0.210 HD
ENDBRANCH  17  63
ENDBRANCH  14  17
ENDBRANCH  12  13
ENDBRANCH  11  12
ENDBRANCH   8  11
ENDBRANCH   6   7
ENDBRANCH   5   6
ENDBRANCH   4   5
ENDBRANCH   2   4
TORSDOF 27
ENDMDL
MODEL 7
REMARK VINA RESULT:      -6.4      4.049      9.540
REMARK  27 active torsions:
REMARK  status: ('A' for Active; 'I' for Inactive)
REMARK    1  A    between atoms: C2_2  and  S1_4 
REMARK    2  A    between atoms: S1_4  and  C3_5 
REMARK    3  A    between atoms: C3_5  and  C4_6 
REMARK    4  A    between atoms: C4_6  and  N1_7 
REMARK       I    between atoms: N1_7  and  C5_8 
REMARK    5  A    between atoms: C5_8  and  C6_10 
REMARK    6  A    between atoms: C6_10  and  C7_11 
REMARK    7  A    between atoms: C7_11  and  N2_12 
REMARK       I    between atoms: N2_12  and  C8_13 
REMARK    8  A    between atoms: C8_13  and  C9_15 
REMARK    9  A    between atoms: C9_15  and  C10_16 
REMARK   10  A    between atoms: C9_15  and  O17_54 
REMARK   11  A    between atoms: C10_16  and  C13_19 
REMARK   12  A    between atoms: C13_19  and  O4_20 
REMARK   13  A    between atoms: O4_20  and  P1_21 
REMARK   14  A    between atoms: P1_21  and  O6_23 
REMARK   15  A    between atoms: P1_21  and  O7_24 
REMARK   16  A    between atoms: O7_24  and  P2_25 
REMARK   17  A    between atoms: P2_25  and  O9_27 
REMARK   18  A    between atoms: P2_25  and  O10_28 
REMARK   19  A    between atoms: O10_28  and  C14_29 
REMARK   20  A    between atoms: C14_29  and  C15_30 
REMARK   21  A    between atoms: C16_31  and  O13_49 
REMARK   22  A    between atoms: C17_32  and  O12_48 
REMARK   23  A    between atoms: C18_33  and  N3_35 
REMARK   24  A    between atoms: C21_40  and  N7_47 
REMARK   25  A    between atoms: O13_49  and  P3_50 
REMARK   26  A    between atoms: P3_50  and  O15_52 
REMARK   27  A    between atoms: P3_50  and  O16_53 
ROOT
HETATM    1  C1  UNL     1       1.006   3.706 -12.184  1.00  0.00     0.104 C 
HETATM    2  C2  UNL     1       1.798   4.162 -13.371  1.00  0.00     0.182 C 
HETATM    3  O1  UNL     1       2.252   3.393 -14.215  1.00  0.00    -0.286 OA
ENDROOT
BRANCH   2   4
HETATM    4  S1  UNL     1       2.063   5.899 -13.442  1.00  0.00    -0.091 SA
BRANCH   4   5
HETATM    5  C3  UNL     1       3.034   6.140 -11.919  1.00  0.00     0.102 C 
BRANCH   5   6
HETATM    6  C4  UNL     1       4.386   6.797 -12.204  1.00  0.00     0.133 C 
BRANCH   6   7
HETATM    7  N1  UNL     1       4.509   7.255 -13.572  1.00  0.00    -0.360 N 
HETATM    8  C5  UNL     1       5.178   6.520 -14.524  1.00  0.00     0.219 C 
HETATM    9  O2  UNL     1       5.775   5.483 -14.258  1.00  0.00    -0.274 OA
HETATM   10  H8  UNL     1       4.084   8.135 -13.831  1.00  0.00     0.162 HD
BRANCH   8  11
HETATM   11  C6  UNL     1       5.141   7.148 -15.901  1.00  0.00     0.122 C 
BRANCH  11  12
HETATM   12  C7  UNL     1       6.527   7.602 -16.358  1.00  0.00     0.132 C 
BRANCH  12  13
HETATM   13  N2  UNL     1       7.582   6.694 -15.960  1.00  0.00    -0.358 N 
HETATM   14  C8  UNL     1       8.802   7.186 -15.534  1.00  0.00     0.247 C 
HETATM   15  O3  UNL     1       9.078   8.378 -15.587  1.00  0.00    -0.271 OA
HETATM   16  H13 UNL     1       7.272   5.810 -15.562  1.00  0.00     0.162 HD
BRANCH  14  17
HETATM   17  C9  UNL     1       9.764   6.127 -14.976  1.00  0.00     0.219 C 
BRANCH  17  18
HETATM   18  C10 UNL     1      10.973   5.810 -15.894  1.00  0.00     0.009 C 
HETATM   19  C11 UNL     1      11.781   4.604 -15.391  1.00  0.00     0.020 C 
HETATM   20  C12 UNL     1      10.523   5.510 -17.338  1.00  0.00     0.020 C 
BRANCH  18  21
HETATM   21  C13 UNL     1      11.868   7.082 -15.877  1.00  0.00     0.192 C 
BRANCH  21  22
HETATM   22  O4  UNL     1      12.198   7.490 -14.565  1.00  0.00    -0.296 OA
BRANCH  22  23
HETATM   23  P1  UNL     1      13.709   7.711 -14.075  1.00  0.00     0.401 P 
HETATM   24  O5  UNL     1      14.445   8.777 -14.823  1.00  0.00    -0.631 OA
BRANCH  23  25
HETATM   25  O6  UNL     1      14.428   6.271 -14.121  1.00  0.00    -0.307 OA
HETATM   26  H23 UNL     1      13.793   5.547 -14.039  1.00  0.00     0.222 HD
ENDBRANCH  23  25
BRANCH  23  27
HETATM   27  O7  UNL     1      13.601   7.952 -12.506  1.00  0.00    -0.195 OA
BRANCH  27  28
HETATM   28  P2  UNL     1      13.381   6.698 -11.548  1.00  0.00     0.401 P 
HETATM   29  O8  UNL     1      12.622   5.541 -12.111  1.00  0.00    -0.631 OA
BRANCH  28  30
HETATM   30  O9  UNL     1      14.861   6.337 -11.071  1.00  0.00    -0.307 OA
HETATM   31  H24 UNL     1      14.924   6.062 -10.123  1.00  0.00     0.222 HD
ENDBRANCH  28  30
BRANCH  28  32
HETATM   32  O10 UNL     1      12.788   7.336 -10.209  1.00  0.00    -0.294 OA
BRANCH  32  33
HETATM   33  C14 UNL     1      11.922   6.587  -9.398  1.00  0.00     0.215 C 
BRANCH  33  34
HETATM   34  C15 UNL     1      10.556   7.264  -9.492  1.00  0.00     0.180 C 
HETATM   35  C16 UNL     1      10.486   8.423  -8.507  1.00  0.00     0.197 C 
HETATM   36  C17 UNL     1       9.369   8.048  -7.551  1.00  0.00     0.199 C 
HETATM   37  C18 UNL     1       8.512   7.112  -8.407  1.00  0.00     0.262 C 
HETATM   38  O11 UNL     1       9.471   6.377  -9.199  1.00  0.00    -0.353 OA
BRANCH  35  39
HETATM   39  O13 UNL     1      10.191   9.608  -9.239  1.00  0.00    -0.286 OA
BRANCH  39  40
HETATM   40  P3  UNL     1      11.206  10.824  -9.022  1.00  0.00     0.391 P 
HETATM   41  O14 UNL     1      12.640  10.454  -9.218  1.00  0.00    -0.632 OA
BRANCH  40  42
HETATM   42  O15 UNL     1      10.763  11.327  -7.569  1.00  0.00    -0.307 OA
HETATM   43  H36 UNL     1      11.463  11.130  -6.903  1.00  0.00     0.222 HD
ENDBRANCH  40  42
BRANCH  40  44
HETATM   44  O16 UNL     1      10.590  11.925  -9.990  1.00  0.00    -0.307 OA
HETATM   45  H37 UNL     1      11.215  12.220 -10.670  1.00  0.00     0.222 HD
ENDBRANCH  40  44
ENDBRANCH  39  40
ENDBRANCH  35  39
BRANCH  36  46
HETATM   46  O12 UNL     1       8.742   9.225  -7.035  1.00  0.00    -0.388 OA
HETATM   47  H35 UNL     1       9.461   9.772  -6.638  1.00  0.00     0.210 HD
ENDBRANCH  36  46
BRANCH  37  48
HETATM   48  N3  UNL     1       7.748   6.174  -7.610  1.00  0.00    -0.297 N 
HETATM   49  C19 UNL     1       7.861   5.946  -6.259  1.00  0.00     0.188 A 
HETATM   50  N4  UNL     1       6.937   5.123  -5.813  1.00  0.00    -0.346 N 
HETATM   51  C20 UNL     1       6.184   4.806  -6.930  1.00  0.00     0.116 A 
HETATM   52  H4  UNL     1       6.804   4.792  -4.857  1.00  0.00     0.167 HD
HETATM   53  C21 UNL     1       5.037   4.013  -7.112  1.00  0.00     0.109 A 
HETATM   54  C23 UNL     1       6.700   5.419  -8.057  1.00  0.00     0.142 A 
HETATM   55  N5  UNL     1       4.528   3.887  -8.362  1.00  0.00    -0.341 N 
HETATM   56  C22 UNL     1       5.152   4.525  -9.373  1.00  0.00     0.183 A 
HETATM   57  H5  UNL     1       3.695   3.323  -8.533  1.00  0.00     0.167 HD
HETATM   58  N6  UNL     1       6.244   5.314  -9.318  1.00  0.00    -0.336 N 
HETATM   59  H6  UNL     1       6.669   5.770 -10.125  1.00  0.00     0.168 HD
BRANCH  53  60
HETATM   60  N7  UNL     1       4.402   3.343  -6.079  1.00  0.00    -0.287 NA
HETATM   61  H33 UNL     1       3.446   3.061  -6.288  1.00  0.00     0.125 HD
HETATM   62  H34 UNL     1       4.564   3.766  -5.175  1.00  0.00     0.125 HD
ENDBRANCH  53  60
ENDBRANCH  37  48
ENDBRANCH  33  34
ENDBRANCH  32  33
ENDBRANCH  28  32
ENDBRANCH  27  28
ENDBRANCH  23  27
ENDBRANCH  22  23
ENDBRANCH  21  22
ENDBRANCH  18  21
ENDBRANCH  17  18
BRANCH  17  63
HETATM   63  O17 UNL     1      10.261   6.538 -13.697  1.00  0.00    -0.385 OA
HETATM   64  H38 UNL     1      10.721   5.782 -13.295  1.00  0.00     0.210 HD
ENDBRANCH  17  63
ENDBRANCH  14  17
ENDBRANCH  12  13
ENDBRANCH  11  12
ENDBRANCH   8  11
ENDBRANCH   6   7
ENDBRANCH   5   6
ENDBRANCH   4   5
ENDBRANCH   2   4
TORSDOF 27
ENDMDL
MODEL 8
REMARK VINA RESULT:      -6.2      3.516      9.683
REMARK  27 active torsions:
REMARK  status: ('A' for Active; 'I' for Inactive)
REMARK    1  A    between atoms: C2_2  and  S1_4 
REMARK    2  A    between atoms: S1_4  and  C3_5 
REMARK    3  A    between atoms: C3_5  and  C4_6 
REMARK    4  A    between atoms: C4_6  and  N1_7 
REMARK       I    between atoms: N1_7  and  C5_8 
REMARK    5  A    between atoms: C5_8  and  C6_10 
REMARK    6  A    between atoms: C6_10  and  C7_11 
REMARK    7  A    between atoms: C7_11  and  N2_12 
REMARK       I    between atoms: N2_12  and  C8_13 
REMARK    8  A    between atoms: C8_13  and  C9_15 
REMARK    9  A    between atoms: C9_15  and  C10_16 
REMARK   10  A    between atoms: C9_15  and  O17_54 
REMARK   11  A    between atoms: C10_16  and  C13_19 
REMARK   12  A    between atoms: C13_19  and  O4_20 
REMARK   13  A    between atoms: O4_20  and  P1_21 
REMARK   14  A    between atoms: P1_21  and  O6_23 
REMARK   15  A    between atoms: P1_21  and  O7_24 
REMARK   16  A    between atoms: O7_24  and  P2_25 
REMARK   17  A    between atoms: P2_25  and  O9_27 
REMARK   18  A    between atoms: P2_25  and  O10_28 
REMARK   19  A    between atoms: O10_28  and  C14_29 
REMARK   20  A    between atoms: C14_29  and  C15_30 
REMARK   21  A    between atoms: C16_31  and  O13_49 
REMARK   22  A    between atoms: C17_32  and  O12_48 
REMARK   23  A    between atoms: C18_33  and  N3_35 
REMARK   24  A    between atoms: C21_40  and  N7_47 
REMARK   25  A    between atoms: O13_49  and  P3_50 
REMARK   26  A    between atoms: P3_50  and  O15_52 
REMARK   27  A    between atoms: P3_50  and  O16_53 
ROOT
HETATM    1  C1  UNL     1      16.536   7.222 -19.821  1.00  0.00     0.104 C 
HETATM    2  C2  UNL     1      16.358   7.660 -18.399  1.00  0.00     0.182 C 
HETATM    3  O1  UNL     1      16.144   8.825 -18.074  1.00  0.00    -0.286 OA
ENDROOT
BRANCH   2   4
HETATM    4  S1  UNL     1      16.522   6.368 -17.218  1.00  0.00    -0.091 SA
BRANCH   4   5
HETATM    5  C3  UNL     1      16.054   7.259 -15.698  1.00  0.00     0.102 C 
BRANCH   5   6
HETATM    6  C4  UNL     1      15.379   6.336 -14.682  1.00  0.00     0.133 C 
BRANCH   6   7
HETATM    7  N1  UNL     1      14.873   5.118 -15.282  1.00  0.00    -0.360 N 
HETATM    8  C5  UNL     1      14.096   4.231 -14.573  1.00  0.00     0.219 C 
HETATM    9  O2  UNL     1      13.853   4.373 -13.381  1.00  0.00    -0.274 OA
HETATM   10  H8  UNL     1      15.094   4.924 -16.249  1.00  0.00     0.162 HD
BRANCH   8  11
HETATM   11  C6  UNL     1      13.626   3.054 -15.400  1.00  0.00     0.122 C 
BRANCH  11  12
HETATM   12  C7  UNL     1      12.249   3.302 -16.016  1.00  0.00     0.132 C 
BRANCH  12  13
HETATM   13  N2  UNL     1      11.515   4.361 -15.356  1.00  0.00    -0.358 N 
HETATM   14  C8  UNL     1      10.433   4.953 -15.982  1.00  0.00     0.247 C 
HETATM   15  O3  UNL     1      10.131   4.699 -17.141  1.00  0.00    -0.271 OA
HETATM   16  H13 UNL     1      11.495   4.312 -14.340  1.00  0.00     0.162 HD
BRANCH  14  17
HETATM   17  C9  UNL     1       9.638   5.932 -15.105  1.00  0.00     0.219 C 
BRANCH  17  18
HETATM   18  C10 UNL     1       8.442   5.293 -14.350  1.00  0.00     0.009 C 
HETATM   19  C11 UNL     1       8.524   3.760 -14.329  1.00  0.00     0.020 C 
HETATM   20  C12 UNL     1       8.367   5.785 -12.891  1.00  0.00     0.020 C 
BRANCH  18  21
HETATM   21  C13 UNL     1       7.166   5.738 -15.120  1.00  0.00     0.192 C 
BRANCH  21  22
HETATM   22  O4  UNL     1       6.037   5.842 -14.277  1.00  0.00    -0.296 OA
BRANCH  22  23
HETATM   23  P1  UNL     1       4.983   7.046 -14.376  1.00  0.00     0.401 P 
HETATM   24  O5  UNL     1       4.152   7.032 -15.620  1.00  0.00    -0.631 OA
BRANCH  23  25
HETATM   25  O6  UNL     1       5.813   8.409 -14.165  1.00  0.00    -0.307 OA
HETATM   26  H23 UNL     1       6.464   8.331 -13.456  1.00  0.00     0.222 HD
ENDBRANCH  23  25
BRANCH  23  27
HETATM   27  O7  UNL     1       4.152   6.978 -13.021  1.00  0.00    -0.195 OA
BRANCH  27  28
HETATM   28  P2  UNL     1       3.055   5.836 -12.847  1.00  0.00     0.401 P 
HETATM   29  O8  UNL     1       1.623   6.257 -12.921  1.00  0.00    -0.631 OA
BRANCH  28  30
HETATM   30  O9  UNL     1       3.473   4.755 -13.945  1.00  0.00    -0.307 OA
HETATM   31  H24 UNL     1       3.011   4.861 -14.812  1.00  0.00     0.222 HD
ENDBRANCH  28  30
BRANCH  28  32
HETATM   32  O10 UNL     1       3.492   5.081 -11.510  1.00  0.00    -0.294 OA
BRANCH  32  33
HETATM   33  C14 UNL     1       2.515   4.594 -10.627  1.00  0.00     0.215 C 
BRANCH  33  34
HETATM   34  C15 UNL     1       3.216   3.566  -9.740  1.00  0.00     0.180 C 
HETATM   35  C16 UNL     1       2.754   3.729  -8.298  1.00  0.00     0.197 C 
HETATM   36  C17 UNL     1       4.010   4.098  -7.532  1.00  0.00     0.199 C 
HETATM   37  C18 UNL     1       5.111   3.493  -8.406  1.00  0.00     0.262 C 
HETATM   38  O11 UNL     1       4.642   3.692  -9.758  1.00  0.00    -0.353 OA
BRANCH  35  39
HETATM   39  O13 UNL     1       2.207   2.488  -7.867  1.00  0.00    -0.286 OA
BRANCH  39  40
HETATM   40  P3  UNL     1       0.690   2.541  -7.363  1.00  0.00     0.391 P 
HETATM   41  O14 UNL     1       0.041   1.198  -7.266  1.00  0.00    -0.632 OA
BRANCH  40  42
HETATM   42  O15 UNL     1       0.068   3.592  -8.396  1.00  0.00    -0.307 OA
HETATM   43  H36 UNL     1       0.266   4.517  -8.114  1.00  0.00     0.222 HD
ENDBRANCH  40  42
BRANCH  40  44
HETATM   44  O16 UNL     1       0.832   3.389  -6.025  1.00  0.00    -0.307 OA
HETATM   45  H37 UNL     1       0.349   3.000  -5.280  1.00  0.00     0.222 HD
ENDBRANCH  40  44
ENDBRANCH  39  40
ENDBRANCH  35  39
BRANCH  36  46
HETATM   46  O12 UNL     1       3.919   3.639  -6.180  1.00  0.00    -0.388 OA
HETATM   47  H35 UNL     1       4.823   3.335  -5.928  1.00  0.00     0.210 HD
ENDBRANCH  36  46
BRANCH  37  48
HETATM   48  N3  UNL     1       6.382   4.171  -8.249  1.00  0.00    -0.297 N 
HETATM   49  C19 UNL     1       7.464   3.748  -7.512  1.00  0.00     0.188 A 
HETATM   50  N4  UNL     1       8.512   4.525  -7.675  1.00  0.00    -0.346 N 
HETATM   51  C20 UNL     1       8.091   5.498  -8.565  1.00  0.00     0.116 A 
HETATM   52  H4  UNL     1       9.431   4.432  -7.243  1.00  0.00     0.167 HD
HETATM   53  C21 UNL     1       8.746   6.585  -9.168  1.00  0.00     0.109 A 
HETATM   54  C23 UNL     1       6.761   5.313  -8.898  1.00  0.00     0.142 A 
HETATM   55  N5  UNL     1       8.041   7.382 -10.009  1.00  0.00    -0.341 N 
HETATM   56  C22 UNL     1       6.742   7.094 -10.222  1.00  0.00     0.183 A 
HETATM   57  H5  UNL     1       8.483   8.178 -10.468  1.00  0.00     0.167 HD
HETATM   58  N6  UNL     1       6.014   6.080  -9.711  1.00  0.00    -0.336 N 
HETATM   59  H6  UNL     1       5.027   5.917  -9.913  1.00  0.00     0.168 HD
BRANCH  53  60
HETATM   60  N7  UNL     1      10.077   6.895  -8.941  1.00  0.00    -0.287 NA
HETATM   61  H33 UNL     1      10.668   6.088  -8.749  1.00  0.00     0.125 HD
HETATM   62  H34 UNL     1      10.199   7.701  -8.343  1.00  0.00     0.125 HD
ENDBRANCH  53  60
ENDBRANCH  37  48
ENDBRANCH  33  34
ENDBRANCH  32  33
ENDBRANCH  28  32
ENDBRANCH  27  28
ENDBRANCH  23  27
ENDBRANCH  22  23
ENDBRANCH  21  22
ENDBRANCH  18  21
ENDBRANCH  17  18
BRANCH  17  63
HETATM   63  O17 UNL     1      10.504   6.548 -14.145  1.00  0.00    -0.385 OA
HETATM   64  H38 UNL     1      10.801   5.864 -13.523  1.00  0.00     0.210 HD
ENDBRANCH  17  63
ENDBRANCH  14  17
ENDBRANCH  12  13
ENDBRANCH  11  12
ENDBRANCH   8  11
ENDBRANCH   6   7
ENDBRANCH   5   6
ENDBRANCH   4   5
ENDBRANCH   2   4
TORSDOF 27
ENDMDL
MODEL 9
REMARK VINA RESULT:      -6.2      7.302     11.001
REMARK  27 active torsions:
REMARK  status: ('A' for Active; 'I' for Inactive)
REMARK    1  A    between atoms: C2_2  and  S1_4 
REMARK    2  A    between atoms: S1_4  and  C3_5 
REMARK    3  A    between atoms: C3_5  and  C4_6 
REMARK    4  A    between atoms: C4_6  and  N1_7 
REMARK       I    between atoms: N1_7  and  C5_8 
REMARK    5  A    between atoms: C5_8  and  C6_10 
REMARK    6  A    between atoms: C6_10  and  C7_11 
REMARK    7  A    between atoms: C7_11  and  N2_12 
REMARK       I    between atoms: N2_12  and  C8_13 
REMARK    8  A    between atoms: C8_13  and  C9_15 
REMARK    9  A    between atoms: C9_15  and  C10_16 
REMARK   10  A    between atoms: C9_15  and  O17_54 
REMARK   11  A    between atoms: C10_16  and  C13_19 
REMARK   12  A    between atoms: C13_19  and  O4_20 
REMARK   13  A    between atoms: O4_20  and  P1_21 
REMARK   14  A    between atoms: P1_21  and  O6_23 
REMARK   15  A    between atoms: P1_21  and  O7_24 
REMARK   16  A    between atoms: O7_24  and  P2_25 
REMARK   17  A    between atoms: P2_25  and  O9_27 
REMARK   18  A    between atoms: P2_25  and  O10_28 
REMARK   19  A    between atoms: O10_28  and  C14_29 
REMARK   20  A    between atoms: C14_29  and  C15_30 
REMARK   21  A    between atoms: C16_31  and  O13_49 
REMARK   22  A    between atoms: C17_32  and  O12_48 
REMARK   23  A    between atoms: C18_33  and  N3_35 
REMARK   24  A    between atoms: C21_40  and  N7_47 
REMARK   25  A    between atoms: O13_49  and  P3_50 
REMARK   26  A    between atoms: P3_50  and  O15_52 
REMARK   27  A    between atoms: P3_50  and  O16_53 
ROOT
HETATM    1  C1  UNL     1       0.742   3.634 -12.335  1.00  0.00     0.104 C 
HETATM    2  C2  UNL     1       1.685   4.119 -13.394  1.00  0.00     0.182 C 
HETATM    3  O1  UNL     1       2.252   3.370 -14.186  1.00  0.00    -0.286 OA
ENDROOT
BRANCH   2   4
HETATM    4  S1  UNL     1       1.949   5.857 -13.389  1.00  0.00    -0.091 SA
BRANCH   4   5
HETATM    5  C3  UNL     1       3.017   6.018 -11.921  1.00  0.00     0.102 C 
BRANCH   5   6
HETATM    6  C4  UNL     1       4.382   6.614 -12.271  1.00  0.00     0.133 C 
BRANCH   6   7
HETATM    7  N1  UNL     1       4.512   6.922 -13.681  1.00  0.00    -0.360 N 
HETATM    8  C5  UNL     1       5.437   6.289 -14.478  1.00  0.00     0.219 C 
HETATM    9  O2  UNL     1       6.255   5.491 -14.034  1.00  0.00    -0.274 OA
HETATM   10  H8  UNL     1       3.899   7.617 -14.085  1.00  0.00     0.162 HD
BRANCH   8  11
HETATM   11  C6  UNL     1       5.371   6.716 -15.928  1.00  0.00     0.122 C 
BRANCH  11  12
HETATM   12  C7  UNL     1       6.674   7.368 -16.391  1.00  0.00     0.132 C 
BRANCH  12  13
HETATM   13  N2  UNL     1       7.846   6.577 -16.080  1.00  0.00    -0.358 N 
HETATM   14  C8  UNL     1       9.010   7.193 -15.658  1.00  0.00     0.247 C 
HETATM   15  O3  UNL     1       9.135   8.411 -15.645  1.00  0.00    -0.271 OA
HETATM   16  H13 UNL     1       7.662   5.640 -15.729  1.00  0.00     0.162 HD
BRANCH  14  17
HETATM   17  C9  UNL     1      10.115   6.232 -15.194  1.00  0.00     0.219 C 
BRANCH  17  18
HETATM   18  C10 UNL     1      11.145   5.858 -16.292  1.00  0.00     0.009 C 
HETATM   19  C11 UNL     1      12.162   4.817 -15.800  1.00  0.00     0.020 C 
HETATM   20  C12 UNL     1      10.452   5.290 -17.547  1.00  0.00     0.020 C 
BRANCH  18  21
HETATM   21  C13 UNL     1      11.883   7.179 -16.652  1.00  0.00     0.192 C 
BRANCH  21  22
HETATM   22  O4  UNL     1      11.680   7.559 -17.999  1.00  0.00    -0.296 OA
BRANCH  22  23
HETATM   23  P1  UNL     1      11.588   9.089 -18.467  1.00  0.00     0.401 P 
HETATM   24  O5  UNL     1      12.904   9.799 -18.502  1.00  0.00    -0.631 OA
BRANCH  23  25
HETATM   25  O6  UNL     1      10.492   9.799 -17.525  1.00  0.00    -0.307 OA
HETATM   26  H23 UNL     1      10.270   9.257 -16.757  1.00  0.00     0.222 HD
ENDBRANCH  23  25
BRANCH  23  27
HETATM   27  O7  UNL     1      10.818   9.047 -19.859  1.00  0.00    -0.195 OA
BRANCH  27  28
HETATM   28  P2  UNL     1       9.244   8.802 -19.861  1.00  0.00     0.401 P 
HETATM   29  O8  UNL     1       8.738   7.641 -19.068  1.00  0.00    -0.631 OA
BRANCH  28  30
HETATM   30  O9  UNL     1       8.653  10.212 -19.400  1.00  0.00    -0.307 OA
HETATM   31  H24 UNL     1       8.689  10.365 -18.424  1.00  0.00     0.222 HD
ENDBRANCH  28  30
BRANCH  28  32
HETATM   32  O10 UNL     1       8.853   8.813 -21.409  1.00  0.00    -0.294 OA
BRANCH  32  33
HETATM   33  C14 UNL     1       7.958   7.857 -21.914  1.00  0.00     0.215 C 
BRANCH  33  34
HETATM   34  C15 UNL     1       8.723   7.079 -22.984  1.00  0.00     0.180 C 
HETATM   35  C16 UNL     1       8.465   7.696 -24.353  1.00  0.00     0.197 C 
HETATM   36  C17 UNL     1       7.782   6.598 -25.147  1.00  0.00     0.199 C 
HETATM   37  C18 UNL     1       8.285   5.333 -24.446  1.00  0.00     0.262 C 
HETATM   38  O11 UNL     1       8.345   5.699 -23.050  1.00  0.00    -0.353 OA
BRANCH  35  39
HETATM   39  O13 UNL     1       9.720   8.064 -24.915  1.00  0.00    -0.286 OA
BRANCH  39  40
HETATM   40  P3  UNL     1       9.849   9.590 -25.374  1.00  0.00     0.391 P 
HETATM   41  O14 UNL     1      11.260  10.057 -25.526  1.00  0.00    -0.632 OA
BRANCH  40  42
HETATM   42  O15 UNL     1       8.945  10.312 -24.269  1.00  0.00    -0.307 OA
HETATM   43  H36 UNL     1       8.043  10.500 -24.624  1.00  0.00     0.222 HD
ENDBRANCH  40  42
BRANCH  40  44
HETATM   44  O16 UNL     1       8.923   9.609 -26.667  1.00  0.00    -0.307 OA
HETATM   45  H37 UNL     1       9.383   9.942 -27.454  1.00  0.00     0.222 HD
ENDBRANCH  40  44
ENDBRANCH  39  40
ENDBRANCH  35  39
BRANCH  36  46
HETATM   46  O12 UNL     1       8.075   6.738 -26.539  1.00  0.00    -0.388 OA
HETATM   47  H35 UNL     1       8.410   7.658 -26.662  1.00  0.00     0.210 HD
ENDBRANCH  36  46
BRANCH  37  48
HETATM   48  N3  UNL     1       7.375   4.216 -24.596  1.00  0.00    -0.297 N 
HETATM   49  C19 UNL     1       7.657   2.980 -25.129  1.00  0.00     0.188 A 
HETATM   50  N4  UNL     1       6.651   2.142 -25.006  1.00  0.00    -0.346 N 
HETATM   51  C20 UNL     1       5.669   2.869 -24.357  1.00  0.00     0.116 A 
HETATM   52  H4  UNL     1       6.604   1.173 -25.320  1.00  0.00     0.167 HD
HETATM   53  C21 UNL     1       4.382   2.536 -23.899  1.00  0.00     0.109 A 
HETATM   54  C23 UNL     1       6.090   4.167 -24.132  1.00  0.00     0.142 A 
HETATM   55  N5  UNL     1       3.640   3.495 -23.294  1.00  0.00    -0.341 N 
HETATM   56  C22 UNL     1       4.172   4.727 -23.164  1.00  0.00     0.183 A 
HETATM   57  H5  UNL     1       2.703   3.290 -22.946  1.00  0.00     0.167 HD
HETATM   58  N6  UNL     1       5.390   5.158 -23.552  1.00  0.00    -0.336 N 
HETATM   59  H6  UNL     1       5.734   6.110 -23.424  1.00  0.00     0.168 HD
BRANCH  53  60
HETATM   60  N7  UNL     1       3.824   1.276 -24.044  1.00  0.00    -0.287 NA
HETATM   61  H33 UNL     1       3.014   1.244 -24.659  1.00  0.00     0.125 HD
HETATM   62  H34 UNL     1       3.751   0.774 -23.169  1.00  0.00     0.125 HD
ENDBRANCH  53  60
ENDBRANCH  37  48
ENDBRANCH  33  34
ENDBRANCH  32  33
ENDBRANCH  28  32
ENDBRANCH  27  28
ENDBRANCH  23  27
ENDBRANCH  22  23
ENDBRANCH  21  22
ENDBRANCH  18  21
ENDBRANCH  17  18
BRANCH  17  63
HETATM   63  O17 UNL     1      10.820   6.793 -14.081  1.00  0.00    -0.385 OA
HETATM   64  H38 UNL     1      11.337   7.551 -14.403  1.00  0.00     0.210 HD
ENDBRANCH  17  63
ENDBRANCH  14  17
ENDBRANCH  12  13
ENDBRANCH  11  12
ENDBRANCH   8  11
ENDBRANCH   6   7
ENDBRANCH   5   6
ENDBRANCH   4   5
ENDBRANCH   2   4
TORSDOF 27
ENDMDL
MODEL 10
REMARK VINA RESULT:      -6.1      6.523     10.431
REMARK  27 active torsions:
REMARK  status: ('A' for Active; 'I' for Inactive)
REMARK    1  A    between atoms: C2_2  and  S1_4 
REMARK    2  A    between atoms: S1_4  and  C3_5 
REMARK    3  A    between atoms: C3_5  and  C4_6 
REMARK    4  A    between atoms: C4_6  and  N1_7 
REMARK       I    between atoms: N1_7  and  C5_8 
REMARK    5  A    between atoms: C5_8  and  C6_10 
REMARK    6  A    between atoms: C6_10  and  C7_11 
REMARK    7  A    between atoms: C7_11  and  N2_12 
REMARK       I    between atoms: N2_12  and  C8_13 
REMARK    8  A    between atoms: C8_13  and  C9_15 
REMARK    9  A    between atoms: C9_15  and  C10_16 
REMARK   10  A    between atoms: C9_15  and  O17_54 
REMARK   11  A    between atoms: C10_16  and  C13_19 
REMARK   12  A    between atoms: C13_19  and  O4_20 
REMARK   13  A    between atoms: O4_20  and  P1_21 
REMARK   14  A    between atoms: P1_21  and  O6_23 
REMARK   15  A    between atoms: P1_21  and  O7_24 
REMARK   16  A    between atoms: O7_24  and  P2_25 
REMARK   17  A    between atoms: P2_25  and  O9_27 
REMARK   18  A    between atoms: P2_25  and  O10_28 
REMARK   19  A    between atoms: O10_28  and  C14_29 
REMARK   20  A    between atoms: C14_29  and  C15_30 
REMARK   21  A    between atoms: C16_31  and  O13_49 
REMARK   22  A    between atoms: C17_32  and  O12_48 
REMARK   23  A    between atoms: C18_33  and  N3_35 
REMARK   24  A    between atoms: C21_40  and  N7_47 
REMARK   25  A    between atoms: O13_49  and  P3_50 
REMARK   26  A    between atoms: P3_50  and  O15_52 
REMARK   27  A    between atoms: P3_50  and  O16_53 
ROOT
HETATM    1  C1  UNL     1       0.733   3.739 -12.372  1.00  0.00     0.104 C 
HETATM    2  C2  UNL     1       1.701   4.182 -13.426  1.00  0.00     0.182 C 
HETATM    3  O1  UNL     1       2.246   3.408 -14.209  1.00  0.00    -0.286 OA
ENDROOT
BRANCH   2   4
HETATM    4  S1  UNL     1       2.030   5.909 -13.428  1.00  0.00    -0.091 SA
BRANCH   4   5
HETATM    5  C3  UNL     1       3.047   6.047 -11.922  1.00  0.00     0.102 C 
BRANCH   5   6
HETATM    6  C4  UNL     1       4.384   6.738 -12.198  1.00  0.00     0.133 C 
BRANCH   6   7
HETATM    7  N1  UNL     1       4.476   7.260 -13.547  1.00  0.00    -0.360 N 
HETATM    8  C5  UNL     1       5.159   6.592 -14.536  1.00  0.00     0.219 C 
HETATM    9  O2  UNL     1       5.794   5.566 -14.323  1.00  0.00    -0.274 OA
HETATM   10  H8  UNL     1       4.017   8.135 -13.762  1.00  0.00     0.162 HD
BRANCH   8  11
HETATM   11  C6  UNL     1       5.086   7.279 -15.883  1.00  0.00     0.122 C 
BRANCH  11  12
HETATM   12  C7  UNL     1       6.227   8.276 -16.078  1.00  0.00     0.132 C 
BRANCH  12  13
HETATM   13  N2  UNL     1       7.446   7.883 -15.403  1.00  0.00    -0.358 N 
HETATM   14  C8  UNL     1       8.560   7.516 -16.135  1.00  0.00     0.247 C 
HETATM   15  O3  UNL     1       8.529   7.395 -17.353  1.00  0.00    -0.271 OA
HETATM   16  H13 UNL     1       7.607   8.321 -14.498  1.00  0.00     0.162 HD
BRANCH  14  17
HETATM   17  C9  UNL     1       9.833   7.295 -15.303  1.00  0.00     0.219 C 
BRANCH  17  18
HETATM   18  C10 UNL     1      10.185   5.805 -15.051  1.00  0.00     0.009 C 
HETATM   19  C11 UNL     1      10.735   5.573 -13.636  1.00  0.00     0.020 C 
HETATM   20  C12 UNL     1       8.955   4.894 -15.237  1.00  0.00     0.020 C 
BRANCH  18  21
HETATM   21  C13 UNL     1      11.273   5.440 -16.101  1.00  0.00     0.192 C 
BRANCH  21  22
HETATM   22  O4  UNL     1      11.348   4.048 -16.335  1.00  0.00    -0.296 OA
BRANCH  22  23
HETATM   23  P1  UNL     1      12.671   3.188 -16.049  1.00  0.00     0.401 P 
HETATM   24  O5  UNL     1      12.818   2.747 -14.627  1.00  0.00    -0.631 OA
BRANCH  23  25
HETATM   25  O6  UNL     1      13.915   4.052 -16.594  1.00  0.00    -0.307 OA
HETATM   26  H23 UNL     1      13.670   4.605 -17.347  1.00  0.00     0.222 HD
ENDBRANCH  23  25
BRANCH  23  27
HETATM   27  O7  UNL     1      12.629   2.004 -17.112  1.00  0.00    -0.195 OA
BRANCH  27  28
HETATM   28  P2  UNL     1      13.297   2.228 -18.541  1.00  0.00     0.401 P 
HETATM   29  O8  UNL     1      13.004   3.520 -19.230  1.00  0.00    -0.631 OA
BRANCH  28  30
HETATM   30  O9  UNL     1      14.849   1.975 -18.263  1.00  0.00    -0.307 OA
HETATM   31  H24 UNL     1      15.281   1.368 -18.912  1.00  0.00     0.222 HD
ENDBRANCH  28  30
BRANCH  28  32
HETATM   32  O10 UNL     1      12.924   0.904 -19.352  1.00  0.00    -0.294 OA
BRANCH  32  33
HETATM   33  C14 UNL     1      12.923  -0.341 -18.704  1.00  0.00     0.215 C 
BRANCH  33  34
HETATM   34  C15 UNL     1      11.530  -0.932 -18.918  1.00  0.00     0.180 C 
HETATM   35  C16 UNL     1      11.600  -2.058 -19.940  1.00  0.00     0.197 C 
HETATM   36  C17 UNL     1      10.729  -1.588 -21.090  1.00  0.00     0.199 C 
HETATM   37  C18 UNL     1       9.768  -0.622 -20.393  1.00  0.00     0.262 C 
HETATM   38  O11 UNL     1      10.582   0.030 -19.393  1.00  0.00    -0.353 OA
BRANCH  35  39
HETATM   39  O13 UNL     1      11.092  -3.240 -19.330  1.00  0.00    -0.286 OA
BRANCH  39  40
HETATM   40  P3  UNL     1      12.131  -4.448 -19.198  1.00  0.00     0.391 P 
HETATM   41  O14 UNL     1      12.874  -4.745 -20.460  1.00  0.00    -0.632 OA
BRANCH  40  42
HETATM   42  O15 UNL     1      11.183  -5.595 -18.610  1.00  0.00    -0.307 OA
HETATM   43  H36 UNL     1      10.972  -5.420 -17.662  1.00  0.00     0.222 HD
ENDBRANCH  40  42
BRANCH  40  44
HETATM   44  O16 UNL     1      12.980  -3.996 -17.932  1.00  0.00    -0.307 OA
HETATM   45  H37 UNL     1      12.522  -4.162 -17.093  1.00  0.00     0.222 HD
ENDBRANCH  40  44
ENDBRANCH  39  40
ENDBRANCH  35  39
BRANCH  36  46
HETATM   46  O12 UNL     1      10.156  -2.709 -21.768  1.00  0.00    -0.388 OA
HETATM   47  H35 UNL     1       9.331  -2.380 -22.200  1.00  0.00     0.210 HD
ENDBRANCH  36  46
BRANCH  37  48
HETATM   48  N3  UNL     1       9.240   0.384 -21.293  1.00  0.00    -0.297 N 
HETATM   49  C19 UNL     1       9.777   1.621 -21.563  1.00  0.00     0.188 A 
HETATM   50  N4  UNL     1       9.128   2.247 -22.521  1.00  0.00    -0.346 N 
HETATM   51  C20 UNL     1       8.124   1.371 -22.893  1.00  0.00     0.116 A 
HETATM   52  H4  UNL     1       9.322   3.172 -22.904  1.00  0.00     0.167 HD
HETATM   53  C21 UNL     1       7.127   1.429 -23.882  1.00  0.00     0.109 A 
HETATM   54  C23 UNL     1       8.158   0.229 -22.113  1.00  0.00     0.142 A 
HETATM   55  N5  UNL     1       6.265   0.389 -23.996  1.00  0.00    -0.341 N 
HETATM   56  C22 UNL     1       6.403  -0.650 -23.149  1.00  0.00     0.183 A 
HETATM   57  H5  UNL     1       5.531   0.394 -24.704  1.00  0.00     0.167 HD
HETATM   58  N6  UNL     1       7.319  -0.820 -22.174  1.00  0.00    -0.336 N 
HETATM   59  H6  UNL     1       7.369  -1.636 -21.563  1.00  0.00     0.168 HD
BRANCH  53  60
HETATM   60  N7  UNL     1       6.972   2.501 -24.746  1.00  0.00    -0.287 NA
HETATM   61  H33 UNL     1       7.808   2.737 -25.276  1.00  0.00     0.125 HD
HETATM   62  H34 UNL     1       6.463   3.271 -24.331  1.00  0.00     0.125 HD
ENDBRANCH  53  60
ENDBRANCH  37  48
ENDBRANCH  33  34
ENDBRANCH  32  33
ENDBRANCH  28  32
ENDBRANCH  27  28
ENDBRANCH  23  27
ENDBRANCH  22  23
ENDBRANCH  21  22
ENDBRANCH  18  21
ENDBRANCH  17  18
BRANCH  17  63
HETATM   63  O17 UNL     1      10.951   7.925 -15.937  1.00  0.00    -0.385 OA
HETATM   64  H38 UNL     1      11.257   8.646 -15.362  1.00  0.00     0.210 HD
ENDBRANCH  17  63
ENDBRANCH  14  17
ENDBRANCH  12  13
ENDBRANCH  11  12
ENDBRANCH   8  11
ENDBRANCH   6   7
ENDBRANCH   5   6
ENDBRANCH   4   5
ENDBRANCH   2   4
TORSDOF 27
ENDMDL
MODEL 11
REMARK VINA RESULT:      -5.8      5.563      8.415
REMARK  27 active torsions:
REMARK  status: ('A' for Active; 'I' for Inactive)
REMARK    1  A    between atoms: C2_2  and  S1_4 
REMARK    2  A    between atoms: S1_4  and  C3_5 
REMARK    3  A    between atoms: C3_5  and  C4_6 
REMARK    4  A    between atoms: C4_6  and  N1_7 
REMARK       I    between atoms: N1_7  and  C5_8 
REMARK    5  A    between atoms: C5_8  and  C6_10 
REMARK    6  A    between atoms: C6_10  and  C7_11 
REMARK    7  A    between atoms: C7_11  and  N2_12 
REMARK       I    between atoms: N2_12  and  C8_13 
REMARK    8  A    between atoms: C8_13  and  C9_15 
REMARK    9  A    between atoms: C9_15  and  C10_16 
REMARK   10  A    between atoms: C9_15  and  O17_54 
REMARK   11  A    between atoms: C10_16  and  C13_19 
REMARK   12  A    between atoms: C13_19  and  O4_20 
REMARK   13  A    between atoms: O4_20  and  P1_21 
REMARK   14  A    between atoms: P1_21  and  O6_23 
REMARK   15  A    between atoms: P1_21  and  O7_24 
REMARK   16  A    between atoms: O7_24  and  P2_25 
REMARK   17  A    between atoms: P2_25  and  O9_27 
REMARK   18  A    between atoms: P2_25  and  O10_28 
REMARK   19  A    between atoms: O10_28  and  C14_29 
REMARK   20  A    between atoms: C14_29  and  C15_30 
REMARK   21  A    between atoms: C16_31  and  O13_49 
REMARK   22  A    between atoms: C17_32  and  O12_48 
REMARK   23  A    between atoms: C18_33  and  N3_35 
REMARK   24  A    between atoms: C21_40  and  N7_47 
REMARK   25  A    between atoms: O13_49  and  P3_50 
REMARK   26  A    between atoms: P3_50  and  O15_52 
REMARK   27  A    between atoms: P3_50  and  O16_53 
ROOT
HETATM    1  C1  UNL     1       9.253   5.032  -7.728  1.00  0.00     0.104 C 
HETATM    2  C2  UNL     1       8.185   5.932  -7.187  1.00  0.00     0.182 C 
HETATM    3  O1  UNL     1       8.296   7.155  -7.134  1.00  0.00    -0.286 OA
ENDROOT
BRANCH   2   4
HETATM    4  S1  UNL     1       6.761   5.091  -6.590  1.00  0.00    -0.091 SA
BRANCH   4   5
HETATM    5  C3  UNL     1       6.631   3.759  -7.826  1.00  0.00     0.102 C 
BRANCH   5   6
HETATM    6  C4  UNL     1       5.302   3.812  -8.583  1.00  0.00     0.133 C 
BRANCH   6   7
HETATM    7  N1  UNL     1       5.131   5.043  -9.327  1.00  0.00    -0.360 N 
HETATM    8  C5  UNL     1       4.081   5.223 -10.197  1.00  0.00     0.219 C 
HETATM    9  O2  UNL     1       3.279   4.333 -10.457  1.00  0.00    -0.274 OA
HETATM   10  H8  UNL     1       5.799   5.789  -9.192  1.00  0.00     0.162 HD
BRANCH   8  11
HETATM   11  C6  UNL     1       4.055   6.598 -10.829  1.00  0.00     0.122 C 
BRANCH  11  12
HETATM   12  C7  UNL     1       4.115   6.527 -12.354  1.00  0.00     0.132 C 
BRANCH  12  13
HETATM   13  N2  UNL     1       5.441   6.771 -12.881  1.00  0.00    -0.358 N 
HETATM   14  C8  UNL     1       5.820   6.226 -14.094  1.00  0.00     0.247 C 
HETATM   15  O3  UNL     1       5.111   5.435 -14.703  1.00  0.00    -0.271 OA
HETATM   16  H13 UNL     1       5.859   7.662 -12.620  1.00  0.00     0.162 HD
BRANCH  14  17
HETATM   17  C9  UNL     1       7.181   6.707 -14.620  1.00  0.00     0.219 C 
BRANCH  17  18
HETATM   18  C10 UNL     1       8.358   5.736 -14.338  1.00  0.00     0.009 C 
HETATM   19  C11 UNL     1       8.688   5.647 -12.840  1.00  0.00     0.020 C 
HETATM   20  C12 UNL     1       8.050   4.312 -14.842  1.00  0.00     0.020 C 
BRANCH  18  21
HETATM   21  C13 UNL     1       9.580   6.313 -15.109  1.00  0.00     0.192 C 
BRANCH  21  22
HETATM   22  O4  UNL     1      10.760   5.567 -14.882  1.00  0.00    -0.296 OA
BRANCH  22  23
HETATM   23  P1  UNL     1      11.893   5.370 -15.999  1.00  0.00     0.401 P 
HETATM   24  O5  UNL     1      13.289   5.552 -15.493  1.00  0.00    -0.631 OA
BRANCH  23  25
HETATM   25  O6  UNL     1      11.514   6.344 -17.224  1.00  0.00    -0.307 OA
HETATM   26  H23 UNL     1      12.039   7.155 -17.217  1.00  0.00     0.222 HD
ENDBRANCH  23  25
BRANCH  23  27
HETATM   27  O7  UNL     1      11.597   3.943 -16.637  1.00  0.00    -0.195 OA
BRANCH  27  28
HETATM   28  P2  UNL     1      12.491   3.445 -17.858  1.00  0.00     0.401 P 
HETATM   29  O8  UNL     1      12.545   4.328 -19.062  1.00  0.00    -0.631 OA
BRANCH  28  30
HETATM   30  O9  UNL     1      13.914   3.175 -17.185  1.00  0.00    -0.307 OA
HETATM   31  H24 UNL     1      14.424   2.438 -17.601  1.00  0.00     0.222 HD
ENDBRANCH  28  30
BRANCH  28  32
HETATM   32  O10 UNL     1      11.998   1.947 -18.112  1.00  0.00    -0.294 OA
BRANCH  32  33
HETATM   33  C14 UNL     1      12.914   0.886 -18.047  1.00  0.00     0.215 C 
BRANCH  33  34
HETATM   34  C15 UNL     1      12.634   0.006 -19.264  1.00  0.00     0.180 C 
HETATM   35  C16 UNL     1      11.131  -0.159 -19.447  1.00  0.00     0.197 C 
HETATM   36  C17 UNL     1      10.884  -1.646 -19.284  1.00  0.00     0.199 C 
HETATM   37  C18 UNL     1      12.240  -2.243 -19.672  1.00  0.00     0.262 C 
HETATM   38  O11 UNL     1      13.205  -1.303 -19.150  1.00  0.00    -0.353 OA
BRANCH  35  39
HETATM   39  O13 UNL     1      10.793   0.302 -20.751  1.00  0.00    -0.286 OA
BRANCH  39  40
HETATM   40  P3  UNL     1       9.527   1.276 -20.830  1.00  0.00     0.391 P 
HETATM   41  O14 UNL     1       8.965   1.423 -22.207  1.00  0.00    -0.632 OA
BRANCH  40  42
HETATM   42  O15 UNL     1      10.112   2.587 -20.125  1.00  0.00    -0.307 OA
HETATM   43  H36 UNL     1      10.447   2.376 -19.221  1.00  0.00     0.222 HD
ENDBRANCH  40  42
BRANCH  40  44
HETATM   44  O16 UNL     1       8.581   0.655 -19.712  1.00  0.00    -0.307 OA
HETATM   45  H37 UNL     1       7.654   0.922 -19.813  1.00  0.00     0.222 HD
ENDBRANCH  40  44
ENDBRANCH  39  40
ENDBRANCH  35  39
BRANCH  36  46
HETATM   46  O12 UNL     1       9.747  -2.047 -20.052  1.00  0.00    -0.388 OA
HETATM   47  H35 UNL     1       9.350  -2.818 -19.581  1.00  0.00     0.210 HD
ENDBRANCH  36  46
BRANCH  37  48
HETATM   48  N3  UNL     1      12.473  -3.537 -19.063  1.00  0.00    -0.297 N 
HETATM   49  C19 UNL     1      13.263  -3.812 -17.971  1.00  0.00     0.188 A 
HETATM   50  N4  UNL     1      13.165  -5.066 -17.588  1.00  0.00    -0.346 N 
HETATM   51  C20 UNL     1      12.263  -5.631 -18.472  1.00  0.00     0.116 A 
HETATM   52  H4  UNL     1      13.646  -5.521 -16.812  1.00  0.00     0.167 HD
HETATM   53  C21 UNL     1      11.707  -6.918 -18.573  1.00  0.00     0.109 A 
HETATM   54  C23 UNL     1      11.856  -4.705 -19.415  1.00  0.00     0.142 A 
HETATM   55  N5  UNL     1      10.837  -7.172 -19.580  1.00  0.00    -0.341 N 
HETATM   56  C22 UNL     1      10.550  -6.177 -20.442  1.00  0.00     0.183 A 
HETATM   57  H5  UNL     1      10.410  -8.093 -19.683  1.00  0.00     0.167 HD
HETATM   58  N6  UNL     1      11.011  -4.909 -20.441  1.00  0.00    -0.336 N 
HETATM   59  H6  UNL     1      10.753  -4.199 -21.127  1.00  0.00     0.168 HD
BRANCH  53  60
HETATM   60  N7  UNL     1      12.009  -7.950 -17.698  1.00  0.00    -0.287 NA
HETATM   61  H33 UNL     1      12.814  -8.509 -17.972  1.00  0.00     0.125 HD
HETATM   62  H34 UNL     1      11.191  -8.453 -17.383  1.00  0.00     0.125 HD
ENDBRANCH  53  60
ENDBRANCH  37  48
ENDBRANCH  33  34
ENDBRANCH  32  33
ENDBRANCH  28  32
ENDBRANCH  27  28
ENDBRANCH  23  27
ENDBRANCH  22  23
ENDBRANCH  21  22
ENDBRANCH  18  21
ENDBRANCH  17  18
BRANCH  17  63
HETATM   63  O17 UNL     1       7.111   6.938 -16.031  1.00  0.00    -0.385 OA
HETATM   64  H38 UNL     1       7.032   6.077 -16.474  1.00  0.00     0.210 HD
ENDBRANCH  17  63
ENDBRANCH  14  17
ENDBRANCH  12  13
ENDBRANCH  11  12
ENDBRANCH   8  11
ENDBRANCH   6   7
ENDBRANCH   5   6
ENDBRANCH   4   5
ENDBRANCH   2   4
TORSDOF 27
ENDMDL
MODEL 12
REMARK VINA RESULT:      -5.6      5.177     11.573
REMARK  27 active torsions:
REMARK  status: ('A' for Active; 'I' for Inactive)
REMARK    1  A    between atoms: C2_2  and  S1_4 
REMARK    2  A    between atoms: S1_4  and  C3_5 
REMARK    3  A    between atoms: C3_5  and  C4_6 
REMARK    4  A    between atoms: C4_6  and  N1_7 
REMARK       I    between atoms: N1_7  and  C5_8 
REMARK    5  A    between atoms: C5_8  and  C6_10 
REMARK    6  A    between atoms: C6_10  and  C7_11 
REMARK    7  A    between atoms: C7_11  and  N2_12 
REMARK       I    between atoms: N2_12  and  C8_13 
REMARK    8  A    between atoms: C8_13  and  C9_15 
REMARK    9  A    between atoms: C9_15  and  C10_16 
REMARK   10  A    between atoms: C9_15  and  O17_54 
REMARK   11  A    between atoms: C10_16  and  C13_19 
REMARK   12  A    between atoms: C13_19  and  O4_20 
REMARK   13  A    between atoms: O4_20  and  P1_21 
REMARK   14  A    between atoms: P1_21  and  O6_23 
REMARK   15  A    between atoms: P1_21  and  O7_24 
REMARK   16  A    between atoms: O7_24  and  P2_25 
REMARK   17  A    between atoms: P2_25  and  O9_27 
REMARK   18  A    between atoms: P2_25  and  O10_28 
REMARK   19  A    between atoms: O10_28  and  C14_29 
REMARK   20  A    between atoms: C14_29  and  C15_30 
REMARK   21  A    between atoms: C16_31  and  O13_49 
REMARK   22  A    between atoms: C17_32  and  O12_48 
REMARK   23  A    between atoms: C18_33  and  N3_35 
REMARK   24  A    between atoms: C21_40  and  N7_47 
REMARK   25  A    between atoms: O13_49  and  P3_50 
REMARK   26  A    between atoms: P3_50  and  O15_52 
REMARK   27  A    between atoms: P3_50  and  O16_53 
ROOT
HETATM    1  C1  UNL     1       5.332   5.467 -23.559  1.00  0.00     0.104 C 
HETATM    2  C2  UNL     1       6.345   5.590 -24.657  1.00  0.00     0.182 C 
HETATM    3  O1  UNL     1       6.188   5.108 -25.776  1.00  0.00    -0.286 OA
ENDROOT
BRANCH   2   4
HETATM    4  S1  UNL     1       7.807   6.452 -24.201  1.00  0.00    -0.091 SA
BRANCH   4   5
HETATM    5  C3  UNL     1       7.297   7.125 -22.586  1.00  0.00     0.102 C 
BRANCH   5   6
HETATM    6  C4  UNL     1       7.886   8.514 -22.335  1.00  0.00     0.133 C 
BRANCH   6   7
HETATM    7  N1  UNL     1       9.223   8.462 -21.778  1.00  0.00    -0.360 N 
HETATM    8  C5  UNL     1       9.471   8.776 -20.462  1.00  0.00     0.219 C 
HETATM    9  O2  UNL     1       8.600   9.192 -19.707  1.00  0.00    -0.274 OA
HETATM   10  H8  UNL     1       9.988   8.180 -22.376  1.00  0.00     0.162 HD
BRANCH   8  11
HETATM   11  C6  UNL     1      10.923   8.604 -20.069  1.00  0.00     0.122 C 
BRANCH  11  12
HETATM   12  C7  UNL     1      11.564   7.404 -20.765  1.00  0.00     0.132 C 
BRANCH  12  13
HETATM   13  N2  UNL     1      11.332   6.154 -20.071  1.00  0.00    -0.358 N 
HETATM   14  C8  UNL     1      11.643   4.952 -20.678  1.00  0.00     0.247 C 
HETATM   15  O3  UNL     1      12.005   4.886 -21.846  1.00  0.00    -0.271 OA
HETATM   16  H13 UNL     1      11.407   6.197 -19.056  1.00  0.00     0.162 HD
BRANCH  14  17
HETATM   17  C9  UNL     1      11.515   3.720 -19.770  1.00  0.00     0.219 C 
BRANCH  17  18
HETATM   18  C10 UNL     1      12.790   3.391 -18.950  1.00  0.00     0.009 C 
HETATM   19  C11 UNL     1      12.731   1.989 -18.325  1.00  0.00     0.020 C 
HETATM   20  C12 UNL     1      14.059   3.468 -19.823  1.00  0.00     0.020 C 
BRANCH  18  21
HETATM   21  C13 UNL     1      12.861   4.462 -17.824  1.00  0.00     0.192 C 
BRANCH  21  22
HETATM   22  O4  UNL     1      12.049   4.133 -16.716  1.00  0.00    -0.296 OA
BRANCH  22  23
HETATM   23  P1  UNL     1      12.239   4.798 -15.269  1.00  0.00     0.401 P 
HETATM   24  O5  UNL     1      13.652   5.172 -14.948  1.00  0.00    -0.631 OA
BRANCH  23  25
HETATM   25  O6  UNL     1      11.576   3.790 -14.203  1.00  0.00    -0.307 OA
HETATM   26  H23 UNL     1      12.037   3.807 -13.354  1.00  0.00     0.222 HD
ENDBRANCH  23  25
BRANCH  23  27
HETATM   27  O7  UNL     1      11.207   6.008 -15.234  1.00  0.00    -0.195 OA
BRANCH  27  28
HETATM   28  P2  UNL     1       9.810   5.850 -15.984  1.00  0.00     0.401 P 
HETATM   29  O8  UNL     1       9.731   6.369 -17.383  1.00  0.00    -0.631 OA
BRANCH  28  30
HETATM   30  O9  UNL     1       9.495   4.291 -15.849  1.00  0.00    -0.307 OA
HETATM   31  H24 UNL     1       8.674   4.003 -16.318  1.00  0.00     0.222 HD
ENDBRANCH  28  30
BRANCH  28  32
HETATM   32  O10 UNL     1       8.749   6.455 -14.955  1.00  0.00    -0.294 OA
BRANCH  32  33
HETATM   33  C14 UNL     1       9.056   6.521 -13.587  1.00  0.00     0.215 C 
BRANCH  33  34
HETATM   34  C15 UNL     1       7.911   5.821 -12.858  1.00  0.00     0.180 C 
HETATM   35  C16 UNL     1       6.698   6.739 -12.800  1.00  0.00     0.197 C 
HETATM   36  C17 UNL     1       6.465   6.975 -11.320  1.00  0.00     0.199 C 
HETATM   37  C18 UNL     1       7.090   5.727 -10.692  1.00  0.00     0.262 C 
HETATM   38  O11 UNL     1       8.245   5.454 -11.514  1.00  0.00    -0.353 OA
BRANCH  35  39
HETATM   39  O13 UNL     1       5.605   6.066 -13.415  1.00  0.00    -0.286 OA
BRANCH  39  40
HETATM   40  P3  UNL     1       4.797   6.914 -14.503  1.00  0.00     0.391 P 
HETATM   41  O14 UNL     1       3.355   6.536 -14.612  1.00  0.00    -0.632 OA
BRANCH  40  42
HETATM   42  O15 UNL     1       5.718   6.699 -15.793  1.00  0.00    -0.307 OA
HETATM   43  H36 UNL     1       6.233   7.517 -15.994  1.00  0.00     0.222 HD
ENDBRANCH  40  42
BRANCH  40  44
HETATM   44  O16 UNL     1       5.137   8.402 -14.059  1.00  0.00    -0.307 OA
HETATM   45  H37 UNL     1       6.049   8.501 -13.743  1.00  0.00     0.222 HD
ENDBRANCH  40  44
ENDBRANCH  39  40
ENDBRANCH  35  39
BRANCH  36  46
HETATM   46  O12 UNL     1       5.077   7.213 -11.068  1.00  0.00    -0.388 OA
HETATM   47  H35 UNL     1       4.808   6.570 -10.369  1.00  0.00     0.210 HD
ENDBRANCH  36  46
BRANCH  37  48
HETATM   48  N3  UNL     1       7.530   5.951  -9.329  1.00  0.00    -0.297 N 
HETATM   49  C19 UNL     1       7.131   5.268  -8.204  1.00  0.00     0.188 A 
HETATM   50  N4  UNL     1       7.810   5.626  -7.136  1.00  0.00    -0.346 N 
HETATM   51  C20 UNL     1       8.696   6.586  -7.592  1.00  0.00     0.116 A 
HETATM   52  H4  UNL     1       7.707   5.275  -6.184  1.00  0.00     0.167 HD
HETATM   53  C21 UNL     1       9.713   7.321  -6.959  1.00  0.00     0.109 A 
HETATM   54  C23 UNL     1       8.506   6.825  -8.941  1.00  0.00     0.142 A 
HETATM   55  N5  UNL     1      10.419   8.217  -7.692  1.00  0.00    -0.341 N 
HETATM   56  C22 UNL     1      10.107   8.362  -8.995  1.00  0.00     0.183 A 
HETATM   57  H5  UNL     1      11.167   8.766  -7.268  1.00  0.00     0.167 HD
HETATM   58  N6  UNL     1       9.166   7.710  -9.709  1.00  0.00    -0.336 N 
HETATM   59  H6  UNL     1       8.979   7.868 -10.699  1.00  0.00     0.168 HD
BRANCH  53  60
HETATM   60  N7  UNL     1      10.028   7.187  -5.616  1.00  0.00    -0.287 NA
HETATM   61  H33 UNL     1       9.315   6.714  -5.064  1.00  0.00     0.125 HD
HETATM   62  H34 UNL     1      10.430   8.025  -5.219  1.00  0.00     0.125 HD
ENDBRANCH  53  60
ENDBRANCH  37  48
ENDBRANCH  33  34
ENDBRANCH  32  33
ENDBRANCH  28  32
ENDBRANCH  27  28
ENDBRANCH  23  27
ENDBRANCH  22  23
ENDBRANCH  21  22
ENDBRANCH  18  21
ENDBRANCH  17  18
BRANCH  17  63
HETATM   63  O17 UNL     1      10.421   3.888 -18.862  1.00  0.00    -0.385 OA
HETATM   64  H38 UNL     1      10.721   4.452 -18.129  1.00  0.00     0.210 HD
ENDBRANCH  17  63
ENDBRANCH  14  17
ENDBRANCH  12  13
ENDBRANCH  11  12
ENDBRANCH   8  11
ENDBRANCH   6   7
ENDBRANCH   5   6
ENDBRANCH   4   5
ENDBRANCH   2   4
TORSDOF 27
ENDMDL
MODEL 13
REMARK VINA RESULT:      -5.5      5.765     10.685
REMARK  27 active torsions:
REMARK  status: ('A' for Active; 'I' for Inactive)
REMARK    1  A    between atoms: C2_2  and  S1_4 
REMARK    2  A    between atoms: S1_4  and  C3_5 
REMARK    3  A    between atoms: C3_5  and  C4_6 
REMARK    4  A    between atoms: C4_6  and  N1_7 
REMARK       I    between atoms: N1_7  and  C5_8 
REMARK    5  A    between atoms: C5_8  and  C6_10 
REMARK    6  A    between atoms: C6_10  and  C7_11 
REMARK    7  A    between atoms: C7_11  and  N2_12 
REMARK       I    between atoms: N2_12  and  C8_13 
REMARK    8  A    between atoms: C8_13  and  C9_15 
REMARK    9  A    between atoms: C9_15  and  C10_16 
REMARK   10  A    between atoms: C9_15  and  O17_54 
REMARK   11  A    between atoms: C10_16  and  C13_19 
REMARK   12  A    between atoms: C13_19  and  O4_20 
REMARK   13  A    between atoms: O4_20  and  P1_21 
REMARK   14  A    between atoms: P1_21  and  O6_23 
REMARK   15  A    between atoms: P1_21  and  O7_24 
REMARK   16  A    between atoms: O7_24  and  P2_25 
REMARK   17  A    between atoms: P2_25  and  O9_27 
REMARK   18  A    between atoms: P2_25  and  O10_28 
REMARK   19  A    between atoms: O10_28  and  C14_29 
REMARK   20  A    between atoms: C14_29  and  C15_30 
REMARK   21  A    between atoms: C16_31  and  O13_49 
REMARK   22  A    between atoms: C17_32  and  O12_48 
REMARK   23  A    between atoms: C18_33  and  N3_35 
REMARK   24  A    between atoms: C21_40  and  N7_47 
REMARK   25  A    between atoms: O13_49  and  P3_50 
REMARK   26  A    between atoms: P3_50  and  O15_52 
REMARK   27  A    between atoms: P3_50  and  O16_53 
ROOT
HETATM    1  C1  UNL     1      11.727   2.765 -21.586  1.00  0.00     0.104 C 
HETATM    2  C2  UNL     1      11.511   1.503 -22.365  1.00  0.00     0.182 C 
HETATM    3  O1  UNL     1      10.800   1.441 -23.365  1.00  0.00    -0.286 OA
ENDROOT
BRANCH   2   4
HETATM    4  S1  UNL     1      12.331   0.095 -21.705  1.00  0.00    -0.091 SA
BRANCH   4   5
HETATM    5  C3  UNL     1      11.100  -0.451 -20.478  1.00  0.00     0.102 C 
BRANCH   5   6
HETATM    6  C4  UNL     1      11.564  -0.181 -19.045  1.00  0.00     0.133 C 
BRANCH   6   7
HETATM    7  N1  UNL     1      12.897   0.384 -18.986  1.00  0.00    -0.360 N 
HETATM    8  C5  UNL     1      13.225   1.372 -18.087  1.00  0.00     0.219 C 
HETATM    9  O2  UNL     1      12.399   1.888 -17.343  1.00  0.00    -0.274 OA
HETATM   10  H8  UNL     1      13.602   0.034 -19.621  1.00  0.00     0.162 HD
BRANCH   8  11
HETATM   11  C6  UNL     1      14.680   1.783 -18.153  1.00  0.00     0.122 C 
BRANCH  11  12
HETATM   12  C7  UNL     1      14.925   3.129 -17.473  1.00  0.00     0.132 C 
BRANCH  12  13
HETATM   13  N2  UNL     1      13.988   4.153 -17.887  1.00  0.00    -0.358 N 
HETATM   14  C8  UNL     1      14.420   5.450 -18.092  1.00  0.00     0.247 C 
HETATM   15  O3  UNL     1      15.560   5.808 -17.822  1.00  0.00    -0.271 OA
HETATM   16  H13 UNL     1      13.206   3.828 -18.452  1.00  0.00     0.162 HD
BRANCH  14  17
HETATM   17  C9  UNL     1      13.368   6.391 -18.698  1.00  0.00     0.219 C 
BRANCH  17  18
HETATM   18  C10 UNL     1      13.430   6.513 -20.244  1.00  0.00     0.009 C 
HETATM   19  C11 UNL     1      14.014   7.860 -20.694  1.00  0.00     0.020 C 
HETATM   20  C12 UNL     1      14.286   5.392 -20.866  1.00  0.00     0.020 C 
BRANCH  18  21
HETATM   21  C13 UNL     1      11.961   6.389 -20.740  1.00  0.00     0.192 C 
BRANCH  21  22
HETATM   22  O4  UNL     1      11.495   7.578 -21.347  1.00  0.00    -0.296 OA
BRANCH  22  23
HETATM   23  P1  UNL     1      10.318   8.470 -20.724  1.00  0.00     0.401 P 
HETATM   24  O5  UNL     1       8.993   8.291 -21.395  1.00  0.00    -0.631 OA
BRANCH  23  25
HETATM   25  O6  UNL     1      10.842   9.992 -20.717  1.00  0.00    -0.307 OA
HETATM   26  H23 UNL     1      11.296  10.215 -19.894  1.00  0.00     0.222 HD
ENDBRANCH  23  25
BRANCH  23  27
HETATM   27  O7  UNL     1      10.326   8.134 -19.169  1.00  0.00    -0.195 OA
BRANCH  27  28
HETATM   28  P2  UNL     1       9.952   9.282 -18.130  1.00  0.00     0.401 P 
HETATM   29  O8  UNL     1      10.998  10.312 -17.854  1.00  0.00    -0.631 OA
BRANCH  28  30
HETATM   30  O9  UNL     1       8.591   9.877 -18.717  1.00  0.00    -0.307 OA
HETATM   31  H24 UNL     1       7.784   9.612 -18.212  1.00  0.00     0.222 HD
ENDBRANCH  28  30
BRANCH  28  32
HETATM   32  O10 UNL     1       9.401   8.488 -16.859  1.00  0.00    -0.294 OA
BRANCH  32  33
HETATM   33  C14 UNL     1       8.025   8.243 -16.726  1.00  0.00     0.215 C 
BRANCH  33  34
HETATM   34  C15 UNL     1       7.892   6.784 -16.293  1.00  0.00     0.180 C 
HETATM   35  C16 UNL     1       7.390   6.717 -14.856  1.00  0.00     0.197 C 
HETATM   36  C17 UNL     1       8.507   6.032 -14.091  1.00  0.00     0.199 C 
HETATM   37  C18 UNL     1       9.199   5.220 -15.187  1.00  0.00     0.262 C 
HETATM   38  O11 UNL     1       9.130   6.067 -16.356  1.00  0.00    -0.353 OA
BRANCH  35  39
HETATM   39  O13 UNL     1       6.186   5.956 -14.845  1.00  0.00    -0.286 OA
BRANCH  39  40
HETATM   40  P3  UNL     1       4.902   6.708 -14.262  1.00  0.00     0.391 P 
HETATM   41  O14 UNL     1       4.150   5.915 -13.242  1.00  0.00    -0.632 OA
BRANCH  40  42
HETATM   42  O15 UNL     1       4.138   7.088 -15.615  1.00  0.00    -0.307 OA
HETATM   43  H36 UNL     1       3.202   7.339 -15.428  1.00  0.00     0.222 HD
ENDBRANCH  40  42
BRANCH  40  44
HETATM   44  O16 UNL     1       5.530   8.094 -13.799  1.00  0.00    -0.307 OA
HETATM   45  H37 UNL     1       5.336   8.305 -12.872  1.00  0.00     0.222 HD
ENDBRANCH  40  44
ENDBRANCH  39  40
ENDBRANCH  35  39
BRANCH  36  46
HETATM   46  O12 UNL     1       7.974   5.311 -12.976  1.00  0.00    -0.388 OA
HETATM   47  H35 UNL     1       7.001   5.472 -12.981  1.00  0.00     0.210 HD
ENDBRANCH  36  46
BRANCH  37  48
HETATM   48  N3  UNL     1      10.592   4.953 -14.887  1.00  0.00    -0.297 N 
HETATM   49  C19 UNL     1      11.176   3.727 -14.673  1.00  0.00     0.188 A 
HETATM   50  N4  UNL     1      12.482   3.811 -14.550  1.00  0.00    -0.346 N 
HETATM   51  C20 UNL     1      12.760   5.159 -14.696  1.00  0.00     0.116 A 
HETATM   52  H4  UNL     1      13.144   3.053 -14.384  1.00  0.00     0.167 HD
HETATM   53  C21 UNL     1      13.961   5.888 -14.709  1.00  0.00     0.109 A 
HETATM   54  C23 UNL     1      11.594   5.883 -14.866  1.00  0.00     0.142 A 
HETATM   55  N5  UNL     1      13.903   7.233 -14.866  1.00  0.00    -0.341 N 
HETATM   56  C22 UNL     1      12.690   7.808 -14.998  1.00  0.00     0.183 A 
HETATM   57  H5  UNL     1      14.753   7.796 -14.884  1.00  0.00     0.167 HD
HETATM   58  N6  UNL     1      11.479   7.215 -15.009  1.00  0.00    -0.336 N 
HETATM   59  H6  UNL     1      10.593   7.711 -15.113  1.00  0.00     0.168 HD
BRANCH  53  60
HETATM   60  N7  UNL     1      15.209   5.304 -14.560  1.00  0.00    -0.287 NA
HETATM   61  H33 UNL     1      15.478   5.133 -13.594  1.00  0.00     0.125 HD
HETATM   62  H34 UNL     1      15.911   5.713 -15.163  1.00  0.00     0.125 HD
ENDBRANCH  53  60
ENDBRANCH  37  48
ENDBRANCH  33  34
ENDBRANCH  32  33
ENDBRANCH  28  32
ENDBRANCH  27  28
ENDBRANCH  23  27
ENDBRANCH  22  23
ENDBRANCH  21  22
ENDBRANCH  18  21
ENDBRANCH  17  18
BRANCH  17  63
HETATM   63  O17 UNL     1      12.053   5.964 -18.328  1.00  0.00    -0.385 OA
HETATM   64  H38 UNL     1      11.602   6.711 -17.901  1.00  0.00     0.210 HD
ENDBRANCH  17  63
ENDBRANCH  14  17
ENDBRANCH  12  13
ENDBRANCH  11  12
ENDBRANCH   8  11
ENDBRANCH   6   7
ENDBRANCH   5   6
ENDBRANCH   4   5
ENDBRANCH   2   4
TORSDOF 27
ENDMDL
MODEL 14
REMARK VINA RESULT:      -5.5      7.162     12.157
REMARK  27 active torsions:
REMARK  status: ('A' for Active; 'I' for Inactive)
REMARK    1  A    between atoms: C2_2  and  S1_4 
REMARK    2  A    between atoms: S1_4  and  C3_5 
REMARK    3  A    between atoms: C3_5  and  C4_6 
REMARK    4  A    between atoms: C4_6  and  N1_7 
REMARK       I    between atoms: N1_7  and  C5_8 
REMARK    5  A    between atoms: C5_8  and  C6_10 
REMARK    6  A    between atoms: C6_10  and  C7_11 
REMARK    7  A    between atoms: C7_11  and  N2_12 
REMARK       I    between atoms: N2_12  and  C8_13 
REMARK    8  A    between atoms: C8_13  and  C9_15 
REMARK    9  A    between atoms: C9_15  and  C10_16 
REMARK   10  A    between atoms: C9_15  and  O17_54 
REMARK   11  A    between atoms: C10_16  and  C13_19 
REMARK   12  A    between atoms: C13_19  and  O4_20 
REMARK   13  A    between atoms: O4_20  and  P1_21 
REMARK   14  A    between atoms: P1_21  and  O6_23 
REMARK   15  A    between atoms: P1_21  and  O7_24 
REMARK   16  A    between atoms: O7_24  and  P2_25 
REMARK   17  A    between atoms: P2_25  and  O9_27 
REMARK   18  A    between atoms: P2_25  and  O10_28 
REMARK   19  A    between atoms: O10_28  and  C14_29 
REMARK   20  A    between atoms: C14_29  and  C15_30 
REMARK   21  A    between atoms: C16_31  and  O13_49 
REMARK   22  A    between atoms: C17_32  and  O12_48 
REMARK   23  A    between atoms: C18_33  and  N3_35 
REMARK   24  A    between atoms: C21_40  and  N7_47 
REMARK   25  A    between atoms: O13_49  and  P3_50 
REMARK   26  A    between atoms: P3_50  and  O15_52 
REMARK   27  A    between atoms: P3_50  and  O16_53 
ROOT
HETATM    1  C1  UNL     1      10.413   6.460 -24.027  1.00  0.00     0.104 C 
HETATM    2  C2  UNL     1       9.145   6.774 -23.293  1.00  0.00     0.182 C 
HETATM    3  O1  UNL     1       8.994   6.574 -22.090  1.00  0.00    -0.286 OA
ENDROOT
BRANCH   2   4
HETATM    4  S1  UNL     1       7.862   7.421 -24.307  1.00  0.00    -0.091 SA
BRANCH   4   5
HETATM    5  C3  UNL     1       6.425   6.545 -23.609  1.00  0.00     0.102 C 
BRANCH   5   6
HETATM    6  C4  UNL     1       5.867   5.501 -24.579  1.00  0.00     0.133 C 
BRANCH   6   7
HETATM    7  N1  UNL     1       5.285   4.362 -23.900  1.00  0.00    -0.360 N 
HETATM    8  C5  UNL     1       4.369   3.542 -24.518  1.00  0.00     0.219 C 
HETATM    9  O2  UNL     1       3.933   3.767 -25.641  1.00  0.00    -0.274 OA
HETATM   10  H8  UNL     1       5.568   4.165 -22.950  1.00  0.00     0.162 HD
BRANCH   8  11
HETATM   11  C6  UNL     1       3.928   2.380 -23.655  1.00  0.00     0.122 C 
BRANCH  11  12
HETATM   12  C7  UNL     1       4.561   1.063 -24.103  1.00  0.00     0.132 C 
BRANCH  12  13
HETATM   13  N2  UNL     1       5.750   0.720 -23.352  1.00  0.00    -0.358 N 
HETATM   14  C8  UNL     1       6.958   0.546 -24.001  1.00  0.00     0.247 C 
HETATM   15  O3  UNL     1       7.049   0.556 -25.222  1.00  0.00    -0.271 OA
HETATM   16  H13 UNL     1       5.781   1.071 -22.397  1.00  0.00     0.162 HD
BRANCH  14  17
HETATM   17  C9  UNL     1       8.168   0.363 -23.073  1.00  0.00     0.219 C 
BRANCH  17  18
HETATM   18  C10 UNL     1       9.193   1.527 -23.114  1.00  0.00     0.009 C 
HETATM   19  C11 UNL     1      10.353   1.243 -24.079  1.00  0.00     0.020 C 
HETATM   20  C12 UNL     1       8.528   2.850 -23.546  1.00  0.00     0.020 C 
BRANCH  18  21
HETATM   21  C13 UNL     1       9.741   1.664 -21.665  1.00  0.00     0.192 C 
BRANCH  21  22
HETATM   22  O4  UNL     1      11.005   2.295 -21.625  1.00  0.00    -0.296 OA
BRANCH  22  23
HETATM   23  P1  UNL     1      11.483   3.208 -20.396  1.00  0.00     0.401 P 
HETATM   24  O5  UNL     1      12.725   2.720 -19.719  1.00  0.00    -0.631 OA
BRANCH  23  25
HETATM   25  O6  UNL     1      10.221   3.359 -19.409  1.00  0.00    -0.307 OA
HETATM   26  H23 UNL     1      10.363   2.904 -18.568  1.00  0.00     0.222 HD
ENDBRANCH  23  25
BRANCH  23  27
HETATM   27  O7  UNL     1      11.586   4.679 -20.993  1.00  0.00    -0.195 OA
BRANCH  27  28
HETATM   28  P2  UNL     1      12.145   5.849 -20.067  1.00  0.00     0.401 P 
HETATM   29  O8  UNL     1      13.610   5.839 -19.776  1.00  0.00    -0.631 OA
BRANCH  28  30
HETATM   30  O9  UNL     1      11.635   7.172 -20.800  1.00  0.00    -0.307 OA
HETATM   31  H24 UNL     1      11.028   7.003 -21.561  1.00  0.00     0.222 HD
ENDBRANCH  28  30
BRANCH  28  32
HETATM   32  O10 UNL     1      11.181   5.827 -18.794  1.00  0.00    -0.294 OA
BRANCH  32  33
HETATM   33  C14 UNL     1      10.290   6.888 -18.570  1.00  0.00     0.215 C 
BRANCH  33  34
HETATM   34  C15 UNL     1      10.120   6.991 -17.056  1.00  0.00     0.180 C 
HETATM   35  C16 UNL     1      10.226   5.607 -16.430  1.00  0.00     0.197 C 
HETATM   36  C17 UNL     1       8.873   5.372 -15.786  1.00  0.00     0.199 C 
HETATM   37  C18 UNL     1       8.385   6.799 -15.530  1.00  0.00     0.262 C 
HETATM   38  O11 UNL     1       8.858   7.548 -16.671  1.00  0.00    -0.353 OA
BRANCH  35  39
HETATM   39  O13 UNL     1      11.279   5.636 -15.472  1.00  0.00    -0.286 OA
BRANCH  39  40
HETATM   40  P3  UNL     1      12.324   4.429 -15.560  1.00  0.00     0.391 P 
HETATM   41  O14 UNL     1      13.752   4.870 -15.599  1.00  0.00    -0.632 OA
BRANCH  40  42
HETATM   42  O15 UNL     1      11.759   3.636 -16.829  1.00  0.00    -0.307 OA
HETATM   43  H36 UNL     1      12.164   3.977 -17.662  1.00  0.00     0.222 HD
ENDBRANCH  40  42
BRANCH  40  44
HETATM   44  O16 UNL     1      11.866   3.525 -14.335  1.00  0.00    -0.307 OA
HETATM   45  H37 UNL     1      12.375   3.700 -13.527  1.00  0.00     0.222 HD
ENDBRANCH  40  44
ENDBRANCH  39  40
ENDBRANCH  35  39
BRANCH  36  46
HETATM   46  O12 UNL     1       9.007   4.510 -14.652  1.00  0.00    -0.388 OA
HETATM   47  H35 UNL     1       8.295   3.832 -14.733  1.00  0.00     0.210 HD
ENDBRANCH  36  46
BRANCH  37  48
HETATM   48  N3  UNL     1       6.939   6.892 -15.478  1.00  0.00    -0.297 N 
HETATM   49  C19 UNL     1       6.072   6.956 -16.543  1.00  0.00     0.188 A 
HETATM   50  N4  UNL     1       4.813   6.904 -16.165  1.00  0.00    -0.346 N 
HETATM   51  C20 UNL     1       4.867   6.796 -14.787  1.00  0.00     0.116 A 
HETATM   52  H4  UNL     1       3.982   6.936 -16.756  1.00  0.00     0.167 HD
HETATM   53  C21 UNL     1       3.873   6.660 -13.802  1.00  0.00     0.109 A 
HETATM   54  C23 UNL     1       6.177   6.827 -14.345  1.00  0.00     0.142 A 
HETATM   55  N5  UNL     1       4.253   6.587 -12.503  1.00  0.00    -0.341 N 
HETATM   56  C22 UNL     1       5.568   6.654 -12.217  1.00  0.00     0.183 A 
HETATM   57  H5  UNL     1       3.561   6.484 -11.761  1.00  0.00     0.167 HD
HETATM   58  N6  UNL     1       6.606   6.774 -13.071  1.00  0.00    -0.336 N 
HETATM   59  H6  UNL     1       7.585   6.820 -12.789  1.00  0.00     0.168 HD
BRANCH  53  60
HETATM   60  N7  UNL     1       2.519   6.605 -14.089  1.00  0.00    -0.287 NA
HETATM   61  H33 UNL     1       2.007   7.454 -13.857  1.00  0.00     0.125 HD
HETATM   62  H34 UNL     1       2.093   5.729 -13.819  1.00  0.00     0.125 HD
ENDBRANCH  53  60
ENDBRANCH  37  48
ENDBRANCH  33  34
ENDBRANCH  32  33
ENDBRANCH  28  32
ENDBRANCH  27  28
ENDBRANCH  23  27
ENDBRANCH  22  23
ENDBRANCH  21  22
ENDBRANCH  18  21
ENDBRANCH  17  18
BRANCH  17  63
HETATM   63  O17 UNL     1       7.730   0.190 -21.721  1.00  0.00    -0.385 OA
HETATM   64  H38 UNL     1       6.764   0.088 -21.728  1.00  0.00     0.210 HD
ENDBRANCH  17  63
ENDBRANCH  14  17
ENDBRANCH  12  13
ENDBRANCH  11  12
ENDBRANCH   8  11
ENDBRANCH   6   7
ENDBRANCH   5   6
ENDBRANCH   4   5
ENDBRANCH   2   4
TORSDOF 27
ENDMDL
MODEL 15
REMARK VINA RESULT:      -5.4     15.428     18.618
REMARK  27 active torsions:
REMARK  status: ('A' for Active; 'I' for Inactive)
REMARK    1  A    between atoms: C2_2  and  S1_4 
REMARK    2  A    between atoms: S1_4  and  C3_5 
REMARK    3  A    between atoms: C3_5  and  C4_6 
REMARK    4  A    between atoms: C4_6  and  N1_7 
REMARK       I    between atoms: N1_7  and  C5_8 
REMARK    5  A    between atoms: C5_8  and  C6_10 
REMARK    6  A    between atoms: C6_10  and  C7_11 
REMARK    7  A    between atoms: C7_11  and  N2_12 
REMARK       I    between atoms: N2_12  and  C8_13 
REMARK    8  A    between atoms: C8_13  and  C9_15 
REMARK    9  A    between atoms: C9_15  and  C10_16 
REMARK   10  A    between atoms: C9_15  and  O17_54 
REMARK   11  A    between atoms: C10_16  and  C13_19 
REMARK   12  A    between atoms: C13_19  and  O4_20 
REMARK   13  A    between atoms: O4_20  and  P1_21 
REMARK   14  A    between atoms: P1_21  and  O6_23 
REMARK   15  A    between atoms: P1_21  and  O7_24 
REMARK   16  A    between atoms: O7_24  and  P2_25 
REMARK   17  A    between atoms: P2_25  and  O9_27 
REMARK   18  A    between atoms: P2_25  and  O10_28 
REMARK   19  A    between atoms: O10_28  and  C14_29 
REMARK   20  A    between atoms: C14_29  and  C15_30 
REMARK   21  A    between atoms: C16_31  and  O13_49 
REMARK   22  A    between atoms: C17_32  and  O12_48 
REMARK   23  A    between atoms: C18_33  and  N3_35 
REMARK   24  A    between atoms: C21_40  and  N7_47 
REMARK   25  A    between atoms: O13_49  and  P3_50 
REMARK   26  A    between atoms: P3_50  and  O15_52 
REMARK   27  A    between atoms: P3_50  and  O16_53 
ROOT
HETATM    1  C1  UNL     1      -7.132   9.732 -30.463  1.00  0.00     0.104 C 
HETATM    2  C2  UNL     1      -6.706   8.599 -29.579  1.00  0.00     0.182 C 
HETATM    3  O1  UNL     1      -7.137   8.433 -28.440  1.00  0.00    -0.286 OA
ENDROOT
BRANCH   2   4
HETATM    4  S1  UNL     1      -5.500   7.536 -30.292  1.00  0.00    -0.091 SA
BRANCH   4   5
HETATM    5  C3  UNL     1      -4.973   6.608 -28.816  1.00  0.00     0.102 C 
BRANCH   5   6
HETATM    6  C4  UNL     1      -3.765   7.256 -28.137  1.00  0.00     0.133 C 
BRANCH   6   7
HETATM    7  N1  UNL     1      -4.143   8.209 -27.114  1.00  0.00    -0.360 N 
HETATM    8  C5  UNL     1      -4.043   9.566 -27.316  1.00  0.00     0.219 C 
HETATM    9  O2  UNL     1      -3.558  10.048 -28.333  1.00  0.00    -0.274 OA
HETATM   10  H8  UNL     1      -4.495   7.862 -26.232  1.00  0.00     0.162 HD
BRANCH   8  11
HETATM   11  C6  UNL     1      -4.541  10.385 -26.145  1.00  0.00     0.122 C 
BRANCH  11  12
HETATM   12  C7  UNL     1      -4.496   9.596 -24.837  1.00  0.00     0.132 C 
BRANCH  12  13
HETATM   13  N2  UNL     1      -5.711   9.718 -24.059  1.00  0.00    -0.358 N 
HETATM   14  C8  UNL     1      -5.649   9.828 -22.682  1.00  0.00     0.247 C 
HETATM   15  O3  UNL     1      -4.597   9.709 -22.066  1.00  0.00    -0.271 OA
HETATM   16  H13 UNL     1      -6.487  10.180 -24.528  1.00  0.00     0.162 HD
BRANCH  14  17
HETATM   17  C9  UNL     1      -6.991  10.128 -21.998  1.00  0.00     0.219 C 
BRANCH  17  18
HETATM   18  C10 UNL     1      -7.761   8.871 -21.514  1.00  0.00     0.009 C 
HETATM   19  C11 UNL     1      -8.185   8.984 -20.042  1.00  0.00     0.020 C 
HETATM   20  C12 UNL     1      -9.029   8.626 -22.357  1.00  0.00     0.020 C 
BRANCH  18  21
HETATM   21  C13 UNL     1      -6.779   7.677 -21.684  1.00  0.00     0.192 C 
BRANCH  21  22
HETATM   22  O4  UNL     1      -7.428   6.506 -22.137  1.00  0.00    -0.296 OA
BRANCH  22  23
HETATM   23  P1  UNL     1      -6.650   5.133 -22.421  1.00  0.00     0.401 P 
HETATM   24  O5  UNL     1      -7.401   4.172 -23.287  1.00  0.00    -0.631 OA
BRANCH  23  25
HETATM   25  O6  UNL     1      -6.236   4.528 -20.988  1.00  0.00    -0.307 OA
HETATM   26  H23 UNL     1      -6.192   3.563 -21.001  1.00  0.00     0.222 HD
ENDBRANCH  23  25
BRANCH  23  27
HETATM   27  O7  UNL     1      -5.232   5.575 -22.991  1.00  0.00    -0.195 OA
BRANCH  27  28
HETATM   28  P2  UNL     1      -5.058   5.757 -24.564  1.00  0.00     0.401 P 
HETATM   29  O8  UNL     1      -6.041   6.644 -25.256  1.00  0.00    -0.631 OA
BRANCH  28  30
HETATM   30  O9  UNL     1      -3.540   6.228 -24.712  1.00  0.00    -0.307 OA
HETATM   31  H24 UNL     1      -3.389   6.883 -25.437  1.00  0.00     0.222 HD
ENDBRANCH  28  30
BRANCH  28  32
HETATM   32  O10 UNL     1      -4.958   4.262 -25.117  1.00  0.00    -0.294 OA
BRANCH  32  33
HETATM   33  C14 UNL     1      -4.095   3.964 -26.183  1.00  0.00     0.215 C 
BRANCH  33  34
HETATM   34  C15 UNL     1      -3.629   2.525 -25.966  1.00  0.00     0.180 C 
HETATM   35  C16 UNL     1      -4.177   2.000 -24.646  1.00  0.00     0.197 C 
HETATM   36  C17 UNL     1      -2.947   1.703 -23.810  1.00  0.00     0.199 C 
HETATM   37  C18 UNL     1      -1.881   1.458 -24.880  1.00  0.00     0.262 C 
HETATM   38  O11 UNL     1      -2.203   2.399 -25.927  1.00  0.00    -0.353 OA
BRANCH  35  39
HETATM   39  O13 UNL     1      -4.936   0.827 -24.919  1.00  0.00    -0.286 OA
BRANCH  39  40
HETATM   40  P3  UNL     1      -6.426   0.819 -24.340  1.00  0.00     0.391 P 
HETATM   41  O14 UNL     1      -7.114  -0.502 -24.464  1.00  0.00    -0.632 OA
BRANCH  40  42
HETATM   42  O15 UNL     1      -7.059   2.061 -25.126  1.00  0.00    -0.307 OA
HETATM   43  H36 UNL     1      -6.880   2.905 -24.647  1.00  0.00     0.222 HD
ENDBRANCH  40  42
BRANCH  40  44
HETATM   44  O16 UNL     1      -6.198   1.396 -22.876  1.00  0.00    -0.307 OA
HETATM   45  H37 UNL     1      -6.690   2.217 -22.714  1.00  0.00     0.222 HD
ENDBRANCH  40  44
ENDBRANCH  39  40
ENDBRANCH  35  39
BRANCH  36  46
HETATM   46  O12 UNL     1      -3.215   0.639 -22.893  1.00  0.00    -0.388 OA
HETATM   47  H35 UNL     1      -3.410  -0.158 -23.442  1.00  0.00     0.210 HD
ENDBRANCH  36  46
BRANCH  37  48
HETATM   48  N3  UNL     1      -0.540   1.732 -24.403  1.00  0.00    -0.297 N 
HETATM   49  C19 UNL     1      -0.187   2.347 -23.224  1.00  0.00     0.188 A 
HETATM   50  N4  UNL     1       1.113   2.332 -23.024  1.00  0.00    -0.346 N 
HETATM   51  C20 UNL     1       1.628   1.671 -24.125  1.00  0.00     0.116 A 
HETATM   52  H4  UNL     1       1.628   2.721 -22.234  1.00  0.00     0.167 HD
HETATM   53  C21 UNL     1       2.934   1.296 -24.487  1.00  0.00     0.109 A 
HETATM   54  C23 UNL     1       0.618   1.328 -25.006  1.00  0.00     0.142 A 
HETATM   55  N5  UNL     1       3.121   0.651 -25.665  1.00  0.00    -0.341 N 
HETATM   56  C22 UNL     1       2.043   0.403 -26.435  1.00  0.00     0.183 A 
HETATM   57  H5  UNL     1       4.053   0.360 -25.959  1.00  0.00     0.167 HD
HETATM   58  N6  UNL     1       0.751   0.705 -26.190  1.00  0.00    -0.336 N 
HETATM   59  H6  UNL     1      -0.023   0.489 -26.819  1.00  0.00     0.168 HD
BRANCH  53  60
HETATM   60  N7  UNL     1       4.047   1.561 -23.706  1.00  0.00    -0.287 NA
HETATM   61  H33 UNL     1       4.758   0.833 -23.730  1.00  0.00     0.125 HD
HETATM   62  H34 UNL     1       3.811   1.937 -22.798  1.00  0.00     0.125 HD
ENDBRANCH  53  60
ENDBRANCH  37  48
ENDBRANCH  33  34
ENDBRANCH  32  33
ENDBRANCH  28  32
ENDBRANCH  27  28
ENDBRANCH  23  27
ENDBRANCH  22  23
ENDBRANCH  21  22
ENDBRANCH  18  21
ENDBRANCH  17  18
BRANCH  17  63
HETATM   63  O17 UNL     1      -6.789  10.997 -20.877  1.00  0.00    -0.385 OA
HETATM   64  H38 UNL     1      -7.141  11.873 -21.108  1.00  0.00     0.210 HD
ENDBRANCH  17  63
ENDBRANCH  14  17
ENDBRANCH  12  13
ENDBRANCH  11  12
ENDBRANCH   8  11
ENDBRANCH   6   7
ENDBRANCH   5   6
ENDBRANCH   4   5
ENDBRANCH   2   4
TORSDOF 27
ENDMDL
MODEL 16
REMARK VINA RESULT:      -5.3      7.774     12.870
REMARK  27 active torsions:
REMARK  status: ('A' for Active; 'I' for Inactive)
REMARK    1  A    between atoms: C2_2  and  S1_4 
REMARK    2  A    between atoms: S1_4  and  C3_5 
REMARK    3  A    between atoms: C3_5  and  C4_6 
REMARK    4  A    between atoms: C4_6  and  N1_7 
REMARK       I    between atoms: N1_7  and  C5_8 
REMARK    5  A    between atoms: C5_8  and  C6_10 
REMARK    6  A    between atoms: C6_10  and  C7_11 
REMARK    7  A    between atoms: C7_11  and  N2_12 
REMARK       I    between atoms: N2_12  and  C8_13 
REMARK    8  A    between atoms: C8_13  and  C9_15 
REMARK    9  A    between atoms: C9_15  and  C10_16 
REMARK   10  A    between atoms: C9_15  and  O17_54 
REMARK   11  A    between atoms: C10_16  and  C13_19 
REMARK   12  A    between atoms: C13_19  and  O4_20 
REMARK   13  A    between atoms: O4_20  and  P1_21 
REMARK   14  A    between atoms: P1_21  and  O6_23 
REMARK   15  A    between atoms: P1_21  and  O7_24 
REMARK   16  A    between atoms: O7_24  and  P2_25 
REMARK   17  A    between atoms: P2_25  and  O9_27 
REMARK   18  A    between atoms: P2_25  and  O10_28 
REMARK   19  A    between atoms: O10_28  and  C14_29 
REMARK   20  A    between atoms: C14_29  and  C15_30 
REMARK   21  A    between atoms: C16_31  and  O13_49 
REMARK   22  A    between atoms: C17_32  and  O12_48 
REMARK   23  A    between atoms: C18_33  and  N3_35 
REMARK   24  A    between atoms: C21_40  and  N7_47 
REMARK   25  A    between atoms: O13_49  and  P3_50 
REMARK   26  A    between atoms: P3_50  and  O15_52 
REMARK   27  A    between atoms: P3_50  and  O16_53 
ROOT
HETATM    1  C1  UNL     1      15.356   8.706 -17.127  1.00  0.00     0.104 C 
HETATM    2  C2  UNL     1      14.031   9.396 -17.014  1.00  0.00     0.182 C 
HETATM    3  O1  UNL     1      13.136   9.020 -16.261  1.00  0.00    -0.286 OA
ENDROOT
BRANCH   2   4
HETATM    4  S1  UNL     1      13.840  10.779 -18.084  1.00  0.00    -0.091 SA
BRANCH   4   5
HETATM    5  C3  UNL     1      12.252  11.438 -17.481  1.00  0.00     0.102 C 
BRANCH   5   6
HETATM    6  C4  UNL     1      12.451  12.539 -16.437  1.00  0.00     0.133 C 
BRANCH   6   7
HETATM    7  N1  UNL     1      11.924  13.818 -16.866  1.00  0.00    -0.360 N 
HETATM    8  C5  UNL     1      12.734  14.790 -17.407  1.00  0.00     0.219 C 
HETATM    9  O2  UNL     1      13.951  14.667 -17.485  1.00  0.00    -0.274 OA
HETATM   10  H8  UNL     1      10.933  13.993 -16.769  1.00  0.00     0.162 HD
BRANCH   8  11
HETATM   11  C6  UNL     1      11.977  16.027 -17.839  1.00  0.00     0.122 C 
BRANCH  11  12
HETATM   12  C7  UNL     1      12.171  16.324 -19.326  1.00  0.00     0.132 C 
BRANCH  12  13
HETATM   13  N2  UNL     1      12.373  15.132 -20.122  1.00  0.00    -0.358 N 
HETATM   14  C8  UNL     1      13.147  15.180 -21.266  1.00  0.00     0.247 C 
HETATM   15  O3  UNL     1      13.586  16.233 -21.712  1.00  0.00    -0.271 OA
HETATM   16  H13 UNL     1      12.358  14.254 -19.607  1.00  0.00     0.162 HD
BRANCH  14  17
HETATM   17  C9  UNL     1      13.425  13.816 -21.915  1.00  0.00     0.219 C 
BRANCH  17  18
HETATM   18  C10 UNL     1      12.712  13.593 -23.274  1.00  0.00     0.009 C 
HETATM   19  C11 UNL     1      11.477  14.493 -23.434  1.00  0.00     0.020 C 
HETATM   20  C12 UNL     1      13.658  13.870 -24.460  1.00  0.00     0.020 C 
BRANCH  18  21
HETATM   21  C13 UNL     1      12.276  12.100 -23.288  1.00  0.00     0.192 C 
BRANCH  21  22
HETATM   22  O4  UNL     1      12.300  11.520 -21.999  1.00  0.00    -0.296 OA
BRANCH  22  23
HETATM   23  P1  UNL     1      11.848  10.008 -21.717  1.00  0.00     0.401 P 
HETATM   24  O5  UNL     1      12.986   9.049 -21.560  1.00  0.00    -0.631 OA
BRANCH  23  25
HETATM   25  O6  UNL     1      10.815   9.605 -22.883  1.00  0.00    -0.307 OA
HETATM   26  H23 UNL     1      11.205   8.989 -23.516  1.00  0.00     0.222 HD
ENDBRANCH  23  25
BRANCH  23  27
HETATM   27  O7  UNL     1      10.877  10.098 -20.460  1.00  0.00    -0.195 OA
BRANCH  27  28
HETATM   28  P2  UNL     1      10.081   8.794 -20.007  1.00  0.00     0.401 P 
HETATM   29  O8  UNL     1       8.595   8.824 -20.152  1.00  0.00    -0.631 OA
BRANCH  28  30
HETATM   30  O9  UNL     1      10.792   7.626 -20.832  1.00  0.00    -0.307 OA
HETATM   31  H24 UNL     1      10.686   7.701 -21.812  1.00  0.00     0.222 HD
ENDBRANCH  28  30
BRANCH  28  32
HETATM   32  O10 UNL     1      10.633   8.495 -18.539  1.00  0.00    -0.294 OA
BRANCH  32  33
HETATM   33  C14 UNL     1      10.183   7.367 -17.836  1.00  0.00     0.215 C 
BRANCH  33  34
HETATM   34  C15 UNL     1       9.800   7.858 -16.441  1.00  0.00     0.180 C 
HETATM   35  C16 UNL     1      10.107   6.779 -15.411  1.00  0.00     0.197 C 
HETATM   36  C17 UNL     1       8.760   6.425 -14.811  1.00  0.00     0.199 C 
HETATM   37  C18 UNL     1       7.957   7.708 -15.041  1.00  0.00     0.262 C 
HETATM   38  O11 UNL     1       8.410   8.186 -16.327  1.00  0.00    -0.353 OA
BRANCH  35  39
HETATM   39  O13 UNL     1      10.997   7.330 -14.446  1.00  0.00    -0.286 OA
BRANCH  39  40
HETATM   40  P3  UNL     1      12.313   6.472 -14.153  1.00  0.00     0.391 P 
HETATM   41  O14 UNL     1      12.069   5.264 -13.308  1.00  0.00    -0.632 OA
BRANCH  40  42
HETATM   42  O15 UNL     1      13.283   7.602 -13.567  1.00  0.00    -0.307 OA
HETATM   43  H36 UNL     1      13.800   8.028 -14.292  1.00  0.00     0.222 HD
ENDBRANCH  40  42
BRANCH  40  44
HETATM   44  O16 UNL     1      12.873   6.241 -15.623  1.00  0.00    -0.307 OA
HETATM   45  H37 UNL     1      13.414   6.982 -15.940  1.00  0.00     0.222 HD
ENDBRANCH  40  44
ENDBRANCH  39  40
ENDBRANCH  35  39
BRANCH  36  46
HETATM   46  O12 UNL     1       8.919   5.984 -13.460  1.00  0.00    -0.388 OA
HETATM   47  H35 UNL     1       9.608   5.278 -13.478  1.00  0.00     0.210 HD
ENDBRANCH  36  46
BRANCH  37  48
HETATM   48  N3  UNL     1       6.530   7.467 -15.110  1.00  0.00    -0.297 N 
HETATM   49  C19 UNL     1       5.761   7.347 -16.244  1.00  0.00     0.188 A 
HETATM   50  N4  UNL     1       4.521   7.003 -15.972  1.00  0.00    -0.346 N 
HETATM   51  C20 UNL     1       4.485   6.889 -14.593  1.00  0.00     0.116 A 
HETATM   52  H4  UNL     1       3.756   6.854 -16.630  1.00  0.00     0.167 HD
HETATM   53  C21 UNL     1       3.472   6.514 -13.694  1.00  0.00     0.109 A 
HETATM   54  C23 UNL     1       5.713   7.212 -14.044  1.00  0.00     0.142 A 
HETATM   55  N5  UNL     1       3.751   6.510 -12.367  1.00  0.00    -0.341 N 
HETATM   56  C22 UNL     1       4.988   6.871 -11.974  1.00  0.00     0.183 A 
HETATM   57  H5  UNL     1       3.042   6.240 -11.685  1.00  0.00     0.167 HD
HETATM   58  N6  UNL     1       6.036   7.239 -12.739  1.00  0.00    -0.336 N 
HETATM   59  H6  UNL     1       6.952   7.503 -12.376  1.00  0.00     0.168 HD
BRANCH  53  60
HETATM   60  N7  UNL     1       2.194   6.156 -14.092  1.00  0.00    -0.287 NA
HETATM   61  H33 UNL     1       1.690   5.584 -13.418  1.00  0.00     0.125 HD
HETATM   62  H34 UNL     1       2.149   5.865 -15.060  1.00  0.00     0.125 HD
ENDBRANCH  53  60
ENDBRANCH  37  48
ENDBRANCH  33  34
ENDBRANCH  32  33
ENDBRANCH  28  32
ENDBRANCH  27  28
ENDBRANCH  23  27
ENDBRANCH  22  23
ENDBRANCH  21  22
ENDBRANCH  18  21
ENDBRANCH  17  18
BRANCH  17  63
HETATM   63  O17 UNL     1      14.833  13.638 -22.105  1.00  0.00    -0.385 OA
HETATM   64  H38 UNL     1      14.962  12.935 -22.764  1.00  0.00     0.210 HD
ENDBRANCH  17  63
ENDBRANCH  14  17
ENDBRANCH  12  13
ENDBRANCH  11  12
ENDBRANCH   8  11
ENDBRANCH   6   7
ENDBRANCH   5   6
ENDBRANCH   4   5
ENDBRANCH   2   4
TORSDOF 27
ENDMDL
MODEL 17
REMARK VINA RESULT:      -5.3      5.239     11.571
REMARK  27 active torsions:
REMARK  status: ('A' for Active; 'I' for Inactive)
REMARK    1  A    between atoms: C2_2  and  S1_4 
REMARK    2  A    between atoms: S1_4  and  C3_5 
REMARK    3  A    between atoms: C3_5  and  C4_6 
REMARK    4  A    between atoms: C4_6  and  N1_7 
REMARK       I    between atoms: N1_7  and  C5_8 
REMARK    5  A    between atoms: C5_8  and  C6_10 
REMARK    6  A    between atoms: C6_10  and  C7_11 
REMARK    7  A    between atoms: C7_11  and  N2_12 
REMARK       I    between atoms: N2_12  and  C8_13 
REMARK    8  A    between atoms: C8_13  and  C9_15 
REMARK    9  A    between atoms: C9_15  and  C10_16 
REMARK   10  A    between atoms: C9_15  and  O17_54 
REMARK   11  A    between atoms: C10_16  and  C13_19 
REMARK   12  A    between atoms: C13_19  and  O4_20 
REMARK   13  A    between atoms: O4_20  and  P1_21 
REMARK   14  A    between atoms: P1_21  and  O6_23 
REMARK   15  A    between atoms: P1_21  and  O7_24 
REMARK   16  A    between atoms: O7_24  and  P2_25 
REMARK   17  A    between atoms: P2_25  and  O9_27 
REMARK   18  A    between atoms: P2_25  and  O10_28 
REMARK   19  A    between atoms: O10_28  and  C14_29 
REMARK   20  A    between atoms: C14_29  and  C15_30 
REMARK   21  A    between atoms: C16_31  and  O13_49 
REMARK   22  A    between atoms: C17_32  and  O12_48 
REMARK   23  A    between atoms: C18_33  and  N3_35 
REMARK   24  A    between atoms: C21_40  and  N7_47 
REMARK   25  A    between atoms: O13_49  and  P3_50 
REMARK   26  A    between atoms: P3_50  and  O15_52 
REMARK   27  A    between atoms: P3_50  and  O16_53 
ROOT
HETATM    1  C1  UNL     1       7.843   7.773 -25.162  1.00  0.00     0.104 C 
HETATM    2  C2  UNL     1       7.337   7.065 -23.942  1.00  0.00     0.182 C 
HETATM    3  O1  UNL     1       6.157   7.067 -23.602  1.00  0.00    -0.286 OA
ENDROOT
BRANCH   2   4
HETATM    4  S1  UNL     1       8.585   6.256 -23.004  1.00  0.00    -0.091 SA
BRANCH   4   5
HETATM    5  C3  UNL     1       9.553   7.694 -22.444  1.00  0.00     0.102 C 
BRANCH   5   6
HETATM    6  C4  UNL     1       8.688   8.702 -21.683  1.00  0.00     0.133 C 
BRANCH   6   7
HETATM    7  N1  UNL     1       8.860   8.615 -20.248  1.00  0.00    -0.360 N 
HETATM    8  C5  UNL     1       9.848   9.314 -19.594  1.00  0.00     0.219 C 
HETATM    9  O2  UNL     1      10.688   9.981 -20.187  1.00  0.00    -0.274 OA
HETATM   10  H8  UNL     1       8.229   8.031 -19.716  1.00  0.00     0.162 HD
BRANCH   8  11
HETATM   11  C6  UNL     1       9.820   9.128 -18.092  1.00  0.00     0.122 C 
BRANCH  11  12
HETATM   12  C7  UNL     1      11.044   9.746 -17.417  1.00  0.00     0.132 C 
BRANCH  12  13
HETATM   13  N2  UNL     1      12.285   9.105 -17.796  1.00  0.00    -0.358 N 
HETATM   14  C8  UNL     1      13.457   9.837 -17.858  1.00  0.00     0.247 C 
HETATM   15  O3  UNL     1      13.474  11.053 -17.714  1.00  0.00    -0.271 OA
HETATM   16  H13 UNL     1      12.363   8.121 -17.549  1.00  0.00     0.162 HD
BRANCH  14  17
HETATM   17  C9  UNL     1      14.725   9.005 -18.098  1.00  0.00     0.219 C 
BRANCH  17  18
HETATM   18  C10 UNL     1      15.399   8.473 -16.805  1.00  0.00     0.009 C 
HETATM   19  C11 UNL     1      16.931   8.537 -16.884  1.00  0.00     0.020 C 
HETATM   20  C12 UNL     1      14.953   9.274 -15.565  1.00  0.00     0.020 C 
BRANCH  18  21
HETATM   21  C13 UNL     1      14.944   6.992 -16.665  1.00  0.00     0.192 C 
BRANCH  21  22
HETATM   22  O4  UNL     1      13.614   6.879 -16.199  1.00  0.00    -0.296 OA
BRANCH  22  23
HETATM   23  P1  UNL     1      12.630   5.699 -16.656  1.00  0.00     0.401 P 
HETATM   24  O5  UNL     1      13.260   4.342 -16.658  1.00  0.00    -0.631 OA
BRANCH  23  25
HETATM   25  O6  UNL     1      12.013   6.131 -18.079  1.00  0.00    -0.307 OA
HETATM   26  H23 UNL     1      11.779   5.365 -18.619  1.00  0.00     0.222 HD
ENDBRANCH  23  25
BRANCH  23  27
HETATM   27  O7  UNL     1      11.356   5.838 -15.712  1.00  0.00    -0.195 OA
BRANCH  27  28
HETATM   28  P2  UNL     1      11.567   5.867 -14.133  1.00  0.00     0.401 P 
HETATM   29  O8  UNL     1      12.279   4.703 -13.524  1.00  0.00    -0.631 OA
BRANCH  28  30
HETATM   30  O9  UNL     1      12.285   7.272 -13.885  1.00  0.00    -0.307 OA
HETATM   31  H24 UNL     1      13.271   7.222 -13.856  1.00  0.00     0.222 HD
ENDBRANCH  28  30
BRANCH  28  32
HETATM   32  O10 UNL     1      10.111   6.175 -13.555  1.00  0.00    -0.294 OA
BRANCH  32  33
HETATM   33  C14 UNL     1       8.975   5.923 -14.341  1.00  0.00     0.215 C 
BRANCH  33  34
HETATM   34  C15 UNL     1       7.880   5.472 -13.376  1.00  0.00     0.180 C 
HETATM   35  C16 UNL     1       6.860   6.589 -13.196  1.00  0.00     0.197 C 
HETATM   36  C17 UNL     1       6.934   6.943 -11.722  1.00  0.00     0.199 C 
HETATM   37  C18 UNL     1       7.451   5.642 -11.103  1.00  0.00     0.262 C 
HETATM   38  O11 UNL     1       8.383   5.128 -12.080  1.00  0.00    -0.353 OA
BRANCH  35  39
HETATM   39  O13 UNL     1       5.581   6.082 -13.563  1.00  0.00    -0.286 OA
BRANCH  39  40
HETATM   40  P3  UNL     1       4.743   6.994 -14.574  1.00  0.00     0.391 P 
HETATM   41  O14 UNL     1       3.290   6.648 -14.634  1.00  0.00    -0.632 OA
BRANCH  40  42
HETATM   42  O15 UNL     1       5.601   6.824 -15.913  1.00  0.00    -0.307 OA
HETATM   43  H36 UNL     1       6.541   7.085 -15.761  1.00  0.00     0.222 HD
ENDBRANCH  40  42
BRANCH  40  44
HETATM   44  O16 UNL     1       5.132   8.454 -14.078  1.00  0.00    -0.307 OA
HETATM   45  H37 UNL     1       5.761   8.897 -14.669  1.00  0.00     0.222 HD
ENDBRANCH  40  44
ENDBRANCH  39  40
ENDBRANCH  35  39
BRANCH  36  46
HETATM   46  O12 UNL     1       5.670   7.431 -11.266  1.00  0.00    -0.388 OA
HETATM   47  H35 UNL     1       5.834   8.335 -10.906  1.00  0.00     0.210 HD
ENDBRANCH  36  46
BRANCH  37  48
HETATM   48  N3  UNL     1       8.155   5.861  -9.856  1.00  0.00    -0.297 N 
HETATM   49  C19 UNL     1       7.701   5.589  -8.586  1.00  0.00     0.188 A 
HETATM   50  N4  UNL     1       8.628   5.782  -7.674  1.00  0.00    -0.346 N 
HETATM   51  C20 UNL     1       9.740   6.194  -8.387  1.00  0.00     0.116 A 
HETATM   52  H4  UNL     1       8.546   5.656  -6.665  1.00  0.00     0.167 HD
HETATM   53  C21 UNL     1      11.053   6.515  -8.003  1.00  0.00     0.109 A 
HETATM   54  C23 UNL     1       9.449   6.285  -9.736  1.00  0.00     0.142 A 
HETATM   55  N5  UNL     1      11.932   6.904  -8.958  1.00  0.00    -0.341 N 
HETATM   56  C22 UNL     1      11.501   6.970 -10.234  1.00  0.00     0.183 A 
HETATM   57  H5  UNL     1      12.895   7.142  -8.718  1.00  0.00     0.167 HD
HETATM   58  N6  UNL     1      10.277   6.680 -10.720  1.00  0.00    -0.336 N 
HETATM   59  H6  UNL     1      10.013   6.751 -11.703  1.00  0.00     0.168 HD
BRANCH  53  60
HETATM   60  N7  UNL     1      11.498   6.464  -6.691  1.00  0.00    -0.287 NA
HETATM   61  H33 UNL     1      12.072   7.256  -6.412  1.00  0.00     0.125 HD
HETATM   62  H34 UNL     1      11.825   5.546  -6.421  1.00  0.00     0.125 HD
ENDBRANCH  53  60
ENDBRANCH  37  48
ENDBRANCH  33  34
ENDBRANCH  32  33
ENDBRANCH  28  32
ENDBRANCH  27  28
ENDBRANCH  23  27
ENDBRANCH  22  23
ENDBRANCH  21  22
ENDBRANCH  18  21
ENDBRANCH  17  18
BRANCH  17  63
HETATM   63  O17 UNL     1      14.429   7.891 -18.947  1.00  0.00    -0.385 OA
HETATM   64  H38 UNL     1      13.467   7.755 -18.943  1.00  0.00     0.210 HD
ENDBRANCH  17  63
ENDBRANCH  14  17
ENDBRANCH  12  13
ENDBRANCH  11  12
ENDBRANCH   8  11
ENDBRANCH   6   7
ENDBRANCH   5   6
ENDBRANCH   4   5
ENDBRANCH   2   4
TORSDOF 27
ENDMDL
MODEL 18
REMARK VINA RESULT:      -5.3      6.220     12.213
REMARK  27 active torsions:
REMARK  status: ('A' for Active; 'I' for Inactive)
REMARK    1  A    between atoms: C2_2  and  S1_4 
REMARK    2  A    between atoms: S1_4  and  C3_5 
REMARK    3  A    between atoms: C3_5  and  C4_6 
REMARK    4  A    between atoms: C4_6  and  N1_7 
REMARK       I    between atoms: N1_7  and  C5_8 
REMARK    5  A    between atoms: C5_8  and  C6_10 
REMARK    6  A    between atoms: C6_10  and  C7_11 
REMARK    7  A    between atoms: C7_11  and  N2_12 
REMARK       I    between atoms: N2_12  and  C8_13 
REMARK    8  A    between atoms: C8_13  and  C9_15 
REMARK    9  A    between atoms: C9_15  and  C10_16 
REMARK   10  A    between atoms: C9_15  and  O17_54 
REMARK   11  A    between atoms: C10_16  and  C13_19 
REMARK   12  A    between atoms: C13_19  and  O4_20 
REMARK   13  A    between atoms: O4_20  and  P1_21 
REMARK   14  A    between atoms: P1_21  and  O6_23 
REMARK   15  A    between atoms: P1_21  and  O7_24 
REMARK   16  A    between atoms: O7_24  and  P2_25 
REMARK   17  A    between atoms: P2_25  and  O9_27 
REMARK   18  A    between atoms: P2_25  and  O10_28 
REMARK   19  A    between atoms: O10_28  and  C14_29 
REMARK   20  A    between atoms: C14_29  and  C15_30 
REMARK   21  A    between atoms: C16_31  and  O13_49 
REMARK   22  A    between atoms: C17_32  and  O12_48 
REMARK   23  A    between atoms: C18_33  and  N3_35 
REMARK   24  A    between atoms: C21_40  and  N7_47 
REMARK   25  A    between atoms: O13_49  and  P3_50 
REMARK   26  A    between atoms: P3_50  and  O15_52 
REMARK   27  A    between atoms: P3_50  and  O16_53 
ROOT
HETATM    1  C1  UNL     1      13.547   5.458 -27.362  1.00  0.00     0.104 C 
HETATM    2  C2  UNL     1      13.223   6.849 -26.907  1.00  0.00     0.182 C 
HETATM    3  O1  UNL     1      14.080   7.681 -26.619  1.00  0.00    -0.286 OA
ENDROOT
BRANCH   2   4
HETATM    4  S1  UNL     1      11.503   7.187 -26.779  1.00  0.00    -0.091 SA
BRANCH   4   5
HETATM    5  C3  UNL     1      11.460   8.042 -25.171  1.00  0.00     0.102 C 
BRANCH   5   6
HETATM    6  C4  UNL     1      10.262   8.987 -25.059  1.00  0.00     0.133 C 
BRANCH   6   7
HETATM    7  N1  UNL     1       9.480   8.760 -23.861  1.00  0.00    -0.360 N 
HETATM    8  C5  UNL     1       8.105   8.748 -23.885  1.00  0.00     0.219 C 
HETATM    9  O2  UNL     1       7.460   9.007 -24.895  1.00  0.00    -0.274 OA
HETATM   10  H8  UNL     1       9.964   8.599 -22.987  1.00  0.00     0.162 HD
BRANCH   8  11
HETATM   11  C6  UNL     1       7.484   8.439 -22.540  1.00  0.00     0.122 C 
BRANCH  11  12
HETATM   12  C7  UNL     1       8.312   7.427 -21.749  1.00  0.00     0.132 C 
BRANCH  12  13
HETATM   13  N2  UNL     1       8.611   7.867 -20.402  1.00  0.00    -0.358 N 
HETATM   14  C8  UNL     1       9.604   8.803 -20.180  1.00  0.00     0.247 C 
HETATM   15  O3  UNL     1      10.336   9.202 -21.076  1.00  0.00    -0.271 OA
HETATM   16  H13 UNL     1       7.827   7.856 -19.754  1.00  0.00     0.162 HD
BRANCH  14  17
HETATM   17  C9  UNL     1       9.697   9.312 -18.733  1.00  0.00     0.219 C 
BRANCH  17  18
HETATM   18  C10 UNL     1      11.090   9.128 -18.076  1.00  0.00     0.009 C 
HETATM   19  C11 UNL     1      12.071  10.239 -18.478  1.00  0.00     0.020 C 
HETATM   20  C12 UNL     1      10.992   9.115 -16.537  1.00  0.00     0.020 C 
BRANCH  18  21
HETATM   21  C13 UNL     1      11.622   7.755 -18.579  1.00  0.00     0.192 C 
BRANCH  21  22
HETATM   22  O4  UNL     1      11.202   6.682 -17.761  1.00  0.00    -0.296 OA
BRANCH  22  23
HETATM   23  P1  UNL     1      12.197   5.527 -17.262  1.00  0.00     0.401 P 
HETATM   24  O5  UNL     1      13.641   5.799 -17.545  1.00  0.00    -0.631 OA
BRANCH  23  25
HETATM   25  O6  UNL     1      11.660   4.147 -17.893  1.00  0.00    -0.307 OA
HETATM   26  H23 UNL     1      12.311   3.438 -17.817  1.00  0.00     0.222 HD
ENDBRANCH  23  25
BRANCH  23  27
HETATM   27  O7  UNL     1      11.848   5.321 -15.724  1.00  0.00    -0.195 OA
BRANCH  27  28
HETATM   28  P2  UNL     1      10.338   5.030 -15.309  1.00  0.00     0.401 P 
HETATM   29  O8  UNL     1       9.389   4.679 -16.408  1.00  0.00    -0.631 OA
BRANCH  28  30
HETATM   30  O9  UNL     1      10.476   3.905 -14.185  1.00  0.00    -0.307 OA
HETATM   31  H24 UNL     1       9.752   3.914 -13.512  1.00  0.00     0.222 HD
ENDBRANCH  28  30
BRANCH  28  32
HETATM   32  O10 UNL     1       9.933   6.290 -14.415  1.00  0.00    -0.294 OA
BRANCH  32  33
HETATM   33  C14 UNL     1       8.634   6.815 -14.488  1.00  0.00     0.215 C 
BRANCH  33  34
HETATM   34  C15 UNL     1       7.783   5.984 -13.529  1.00  0.00     0.180 C 
HETATM   35  C16 UNL     1       6.604   6.813 -13.037  1.00  0.00     0.197 C 
HETATM   36  C17 UNL     1       6.806   6.915 -11.537  1.00  0.00     0.199 C 
HETATM   37  C18 UNL     1       7.638   5.665 -11.237  1.00  0.00     0.262 C 
HETATM   38  O11 UNL     1       8.511   5.536 -12.381  1.00  0.00    -0.353 OA
BRANCH  35  39
HETATM   39  O13 UNL     1       5.407   6.118 -13.371  1.00  0.00    -0.286 OA
BRANCH  39  40
HETATM   40  P3  UNL     1       4.433   6.874 -14.389  1.00  0.00     0.391 P 
HETATM   41  O14 UNL     1       2.991   6.520 -14.219  1.00  0.00    -0.632 OA
BRANCH  40  42
HETATM   42  O15 UNL     1       5.124   6.516 -15.786  1.00  0.00    -0.307 OA
HETATM   43  H36 UNL     1       4.589   5.850 -16.279  1.00  0.00     0.222 HD
ENDBRANCH  40  42
BRANCH  40  44
HETATM   44  O16 UNL     1       4.850   8.391 -14.156  1.00  0.00    -0.307 OA
HETATM   45  H37 UNL     1       4.851   8.911 -14.976  1.00  0.00     0.222 HD
ENDBRANCH  40  44
ENDBRANCH  39  40
ENDBRANCH  35  39
BRANCH  36  46
HETATM   46  O12 UNL     1       5.545   7.038 -10.874  1.00  0.00    -0.388 OA
HETATM   47  H35 UNL     1       4.874   7.196 -11.580  1.00  0.00     0.210 HD
ENDBRANCH  36  46
BRANCH  37  48
HETATM   48  N3  UNL     1       8.449   5.809 -10.045  1.00  0.00    -0.297 N 
HETATM   49  C19 UNL     1       9.730   6.303  -9.965  1.00  0.00     0.188 A 
HETATM   50  N4  UNL     1      10.142   6.422  -8.722  1.00  0.00    -0.346 N 
HETATM   51  C20 UNL     1       9.073   5.989  -7.957  1.00  0.00     0.116 A 
HETATM   52  H4  UNL     1      11.047   6.759  -8.395  1.00  0.00     0.167 HD
HETATM   53  C21 UNL     1       8.865   5.910  -6.569  1.00  0.00     0.109 A 
HETATM   54  C23 UNL     1       8.032   5.569  -8.765  1.00  0.00     0.142 A 
HETATM   55  N5  UNL     1       7.686   5.419  -6.117  1.00  0.00    -0.341 N 
HETATM   56  C22 UNL     1       6.769   5.025  -7.023  1.00  0.00     0.183 A 
HETATM   57  H5  UNL     1       7.497   5.350  -5.117  1.00  0.00     0.167 HD
HETATM   58  N6  UNL     1       6.852   5.061  -8.369  1.00  0.00    -0.336 N 
HETATM   59  H6  UNL     1       6.118   4.744  -9.002  1.00  0.00     0.168 HD
BRANCH  53  60
HETATM   60  N7  UNL     1       9.810   6.301  -5.634  1.00  0.00    -0.287 NA
HETATM   61  H33 UNL     1       9.812   7.298  -5.432  1.00  0.00     0.125 HD
HETATM   62  H34 UNL     1      10.710   5.863  -5.775  1.00  0.00     0.125 HD
ENDBRANCH  53  60
ENDBRANCH  37  48
ENDBRANCH  33  34
ENDBRANCH  32  33
ENDBRANCH  28  32
ENDBRANCH  27  28
ENDBRANCH  23  27
ENDBRANCH  22  23
ENDBRANCH  21  22
ENDBRANCH  18  21
ENDBRANCH  17  18
BRANCH  17  63
HETATM   63  O17 UNL     1       9.347  10.699 -18.675  1.00  0.00    -0.385 OA
HETATM   64  H38 UNL     1       8.633  10.857 -19.315  1.00  0.00     0.210 HD
ENDBRANCH  17  63
ENDBRANCH  14  17
ENDBRANCH  12  13
ENDBRANCH  11  12
ENDBRANCH   8  11
ENDBRANCH   6   7
ENDBRANCH   5   6
ENDBRANCH   4   5
ENDBRANCH   2   4
TORSDOF 27
ENDMDL
MODEL 19
REMARK VINA RESULT:      -5.1     17.019     20.159
REMARK  27 active torsions:
REMARK  status: ('A' for Active; 'I' for Inactive)
REMARK    1  A    between atoms: C2_2  and  S1_4 
REMARK    2  A    between atoms: S1_4  and  C3_5 
REMARK    3  A    between atoms: C3_5  and  C4_6 
REMARK    4  A    between atoms: C4_6  and  N1_7 
REMARK       I    between atoms: N1_7  and  C5_8 
REMARK    5  A    between atoms: C5_8  and  C6_10 
REMARK    6  A    between atoms: C6_10  and  C7_11 
REMARK    7  A    between atoms: C7_11  and  N2_12 
REMARK       I    between atoms: N2_12  and  C8_13 
REMARK    8  A    between atoms: C8_13  and  C9_15 
REMARK    9  A    between atoms: C9_15  and  C10_16 
REMARK   10  A    between atoms: C9_15  and  O17_54 
REMARK   11  A    between atoms: C10_16  and  C13_19 
REMARK   12  A    between atoms: C13_19  and  O4_20 
REMARK   13  A    between atoms: O4_20  and  P1_21 
REMARK   14  A    between atoms: P1_21  and  O6_23 
REMARK   15  A    between atoms: P1_21  and  O7_24 
REMARK   16  A    between atoms: O7_24  and  P2_25 
REMARK   17  A    between atoms: P2_25  and  O9_27 
REMARK   18  A    between atoms: P2_25  and  O10_28 
REMARK   19  A    between atoms: O10_28  and  C14_29 
REMARK   20  A    between atoms: C14_29  and  C15_30 
REMARK   21  A    between atoms: C16_31  and  O13_49 
REMARK   22  A    between atoms: C17_32  and  O12_48 
REMARK   23  A    between atoms: C18_33  and  N3_35 
REMARK   24  A    between atoms: C21_40  and  N7_47 
REMARK   25  A    between atoms: O13_49  and  P3_50 
REMARK   26  A    between atoms: P3_50  and  O15_52 
REMARK   27  A    between atoms: P3_50  and  O16_53 
ROOT
HETATM    1  C1  UNL     1      -3.978   6.546 -29.882  1.00  0.00     0.104 C 
HETATM    2  C2  UNL     1      -4.284   6.273 -28.441  1.00  0.00     0.182 C 
HETATM    3  O1  UNL     1      -3.890   6.986 -27.521  1.00  0.00    -0.286 OA
ENDROOT
BRANCH   2   4
HETATM    4  S1  UNL     1      -5.227   4.815 -28.164  1.00  0.00    -0.091 SA
BRANCH   4   5
HETATM    5  C3  UNL     1      -6.894   5.426 -28.570  1.00  0.00     0.102 C 
BRANCH   5   6
HETATM    6  C4  UNL     1      -7.793   5.495 -27.334  1.00  0.00     0.133 C 
BRANCH   6   7
HETATM    7  N1  UNL     1      -8.868   6.456 -27.476  1.00  0.00    -0.360 N 
HETATM    8  C5  UNL     1      -8.973   7.552 -26.652  1.00  0.00     0.219 C 
HETATM    9  O2  UNL     1      -8.219   7.740 -25.704  1.00  0.00    -0.274 OA
HETATM   10  H8  UNL     1      -9.551   6.316 -28.208  1.00  0.00     0.162 HD
BRANCH   8  11
HETATM   11  C6  UNL     1     -10.133   8.458 -27.005  1.00  0.00     0.122 C 
BRANCH  11  12
HETATM   12  C7  UNL     1     -10.281   9.610 -26.011  1.00  0.00     0.132 C 
BRANCH  12  13
HETATM   13  N2  UNL     1      -9.081  10.412 -25.890  1.00  0.00    -0.358 N 
HETATM   14  C8  UNL     1      -9.114  11.762 -26.183  1.00  0.00     0.247 C 
HETATM   15  O3  UNL     1     -10.104  12.302 -26.662  1.00  0.00    -0.271 OA
HETATM   16  H13 UNL     1      -8.420  10.105 -25.179  1.00  0.00     0.162 HD
BRANCH  14  17
HETATM   17  C9  UNL     1      -7.826  12.527 -25.844  1.00  0.00     0.219 C 
BRANCH  17  18
HETATM   18  C10 UNL     1      -7.911  13.391 -24.558  1.00  0.00     0.009 C 
HETATM   19  C11 UNL     1      -6.523  13.755 -24.012  1.00  0.00     0.020 C 
HETATM   20  C12 UNL     1      -8.681  14.704 -24.810  1.00  0.00     0.020 C 
BRANCH  18  21
HETATM   21  C13 UNL     1      -8.674  12.528 -23.513  1.00  0.00     0.192 C 
BRANCH  21  22
HETATM   22  O4  UNL     1      -7.891  11.457 -23.025  1.00  0.00    -0.296 OA
BRANCH  22  23
HETATM   23  P1  UNL     1      -7.575  11.249 -21.467  1.00  0.00     0.401 P 
HETATM   24  O5  UNL     1      -8.527  11.951 -20.550  1.00  0.00    -0.631 OA
BRANCH  23  25
HETATM   25  O6  UNL     1      -6.035  11.663 -21.245  1.00  0.00    -0.307 OA
HETATM   26  H23 UNL     1      -5.466  11.329 -21.950  1.00  0.00     0.222 HD
ENDBRANCH  23  25
BRANCH  23  27
HETATM   27  O7  UNL     1      -7.502   9.672 -21.270  1.00  0.00    -0.195 OA
BRANCH  27  28
HETATM   28  P2  UNL     1      -8.808   8.801 -21.543  1.00  0.00     0.401 P 
HETATM   29  O8  UNL     1     -10.051   9.198 -20.817  1.00  0.00    -0.631 OA
BRANCH  28  30
HETATM   30  O9  UNL     1      -8.944   8.834 -23.134  1.00  0.00    -0.307 OA
HETATM   31  H24 UNL     1      -9.666   9.422 -23.465  1.00  0.00     0.222 HD
ENDBRANCH  28  30
BRANCH  28  32
HETATM   32  O10 UNL     1      -8.321   7.296 -21.322  1.00  0.00    -0.294 OA
BRANCH  32  33
HETATM   33  C14 UNL     1      -7.903   6.524 -22.417  1.00  0.00     0.215 C 
BRANCH  33  34
HETATM   34  C15 UNL     1      -6.399   6.320 -22.246  1.00  0.00     0.180 C 
HETATM   35  C16 UNL     1      -5.664   6.854 -23.468  1.00  0.00     0.197 C 
HETATM   36  C17 UNL     1      -4.976   5.641 -24.064  1.00  0.00     0.199 C 
HETATM   37  C18 UNL     1      -4.828   4.724 -22.848  1.00  0.00     0.262 C 
HETATM   38  O11 UNL     1      -6.036   4.944 -22.087  1.00  0.00    -0.353 OA
BRANCH  35  39
HETATM   39  O13 UNL     1      -4.732   7.837 -23.028  1.00  0.00    -0.286 OA
BRANCH  39  40
HETATM   40  P3  UNL     1      -4.781   9.232 -23.808  1.00  0.00     0.391 P 
HETATM   41  O14 UNL     1      -4.230  10.380 -23.026  1.00  0.00    -0.632 OA
BRANCH  40  42
HETATM   42  O15 UNL     1      -6.326   9.290 -24.220  1.00  0.00    -0.307 OA
HETATM   43  H36 UNL     1      -6.673  10.210 -24.141  1.00  0.00     0.222 HD
ENDBRANCH  40  42
BRANCH  40  44
HETATM   44  O16 UNL     1      -4.057   8.855 -25.173  1.00  0.00    -0.307 OA
HETATM   45  H37 UNL     1      -4.653   8.887 -25.937  1.00  0.00     0.222 HD
ENDBRANCH  40  44
ENDBRANCH  39  40
ENDBRANCH  35  39
BRANCH  36  46
HETATM   46  O12 UNL     1      -3.778   6.032 -24.741  1.00  0.00    -0.388 OA
HETATM   47  H35 UNL     1      -4.059   6.603 -25.495  1.00  0.00     0.210 HD
ENDBRANCH  36  46
BRANCH  37  48
HETATM   48  N3  UNL     1      -4.755   3.323 -23.213  1.00  0.00    -0.297 N 
HETATM   49  C19 UNL     1      -5.785   2.412 -23.221  1.00  0.00     0.188 A 
HETATM   50  N4  UNL     1      -5.422   1.252 -23.723  1.00  0.00    -0.346 N 
HETATM   51  C20 UNL     1      -4.091   1.422 -24.063  1.00  0.00     0.116 A 
HETATM   52  H4  UNL     1      -5.992   0.415 -23.838  1.00  0.00     0.167 HD
HETATM   53  C21 UNL     1      -3.149   0.577 -24.676  1.00  0.00     0.109 A 
HETATM   54  C23 UNL     1      -3.655   2.687 -23.716  1.00  0.00     0.142 A 
HETATM   55  N5  UNL     1      -1.890   1.041 -24.869  1.00  0.00    -0.341 N 
HETATM   56  C22 UNL     1      -1.601   2.291 -24.457  1.00  0.00     0.183 A 
HETATM   57  H5  UNL     1      -1.181   0.459 -25.314  1.00  0.00     0.167 HD
HETATM   58  N6  UNL     1      -2.417   3.190 -23.869  1.00  0.00    -0.336 N 
HETATM   59  H6  UNL     1      -2.133   4.126 -23.580  1.00  0.00     0.168 HD
BRANCH  53  60
HETATM   60  N7  UNL     1      -3.437  -0.714 -25.088  1.00  0.00    -0.287 NA
HETATM   61  H33 UNL     1      -4.185  -0.778 -25.775  1.00  0.00     0.125 HD
HETATM   62  H34 UNL     1      -3.464  -1.376 -24.323  1.00  0.00     0.125 HD
ENDBRANCH  53  60
ENDBRANCH  37  48
ENDBRANCH  33  34
ENDBRANCH  32  33
ENDBRANCH  28  32
ENDBRANCH  27  28
ENDBRANCH  23  27
ENDBRANCH  22  23
ENDBRANCH  21  22
ENDBRANCH  18  21
ENDBRANCH  17  18
BRANCH  17  63
HETATM   63  O17 UNL     1      -6.732  11.613 -25.705  1.00  0.00    -0.385 OA
HETATM   64  H38 UNL     1      -5.933  12.127 -25.502  1.00  0.00     0.210 HD
ENDBRANCH  17  63
ENDBRANCH  14  17
ENDBRANCH  12  13
ENDBRANCH  11  12
ENDBRANCH   8  11
ENDBRANCH   6   7
ENDBRANCH   5   6
ENDBRANCH   4   5
ENDBRANCH   2   4
TORSDOF 27
ENDMDL
MODEL 20
REMARK VINA RESULT:      -5.1      6.952     11.894
REMARK  27 active torsions:
REMARK  status: ('A' for Active; 'I' for Inactive)
REMARK    1  A    between atoms: C2_2  and  S1_4 
REMARK    2  A    between atoms: S1_4  and  C3_5 
REMARK    3  A    between atoms: C3_5  and  C4_6 
REMARK    4  A    between atoms: C4_6  and  N1_7 
REMARK       I    between atoms: N1_7  and  C5_8 
REMARK    5  A    between atoms: C5_8  and  C6_10 
REMARK    6  A    between atoms: C6_10  and  C7_11 
REMARK    7  A    between atoms: C7_11  and  N2_12 
REMARK       I    between atoms: N2_12  and  C8_13 
REMARK    8  A    between atoms: C8_13  and  C9_15 
REMARK    9  A    between atoms: C9_15  and  C10_16 
REMARK   10  A    between atoms: C9_15  and  O17_54 
REMARK   11  A    between atoms: C10_16  and  C13_19 
REMARK   12  A    between atoms: C13_19  and  O4_20 
REMARK   13  A    between atoms: O4_20  and  P1_21 
REMARK   14  A    between atoms: P1_21  and  O6_23 
REMARK   15  A    between atoms: P1_21  and  O7_24 
REMARK   16  A    between atoms: O7_24  and  P2_25 
REMARK   17  A    between atoms: P2_25  and  O9_27 
REMARK   18  A    between atoms: P2_25  and  O10_28 
REMARK   19  A    between atoms: O10_28  and  C14_29 
REMARK   20  A    between atoms: C14_29  and  C15_30 
REMARK   21  A    between atoms: C16_31  and  O13_49 
REMARK   22  A    between atoms: C17_32  and  O12_48 
REMARK   23  A    between atoms: C18_33  and  N3_35 
REMARK   24  A    between atoms: C21_40  and  N7_47 
REMARK   25  A    between atoms: O13_49  and  P3_50 
REMARK   26  A    between atoms: P3_50  and  O15_52 
REMARK   27  A    between atoms: P3_50  and  O16_53 
ROOT
HETATM    1  C1  UNL     1      13.231  -1.433 -23.731  1.00  0.00     0.104 C 
HETATM    2  C2  UNL     1      12.422  -1.162 -22.500  1.00  0.00     0.182 C 
HETATM    3  O1  UNL     1      12.313  -1.962 -21.574  1.00  0.00    -0.286 OA
ENDROOT
BRANCH   2   4
HETATM    4  S1  UNL     1      11.601   0.393 -22.501  1.00  0.00    -0.091 SA
BRANCH   4   5
HETATM    5  C3  UNL     1      10.504   0.180 -21.062  1.00  0.00     0.102 C 
BRANCH   5   6
HETATM    6  C4  UNL     1       9.490   1.320 -20.944  1.00  0.00     0.133 C 
BRANCH   6   7
HETATM    7  N1  UNL     1       8.973   1.744 -22.229  1.00  0.00    -0.360 N 
HETATM    8  C5  UNL     1       7.888   1.130 -22.811  1.00  0.00     0.219 C 
HETATM    9  O2  UNL     1       7.347   0.144 -22.323  1.00  0.00    -0.274 OA
HETATM   10  H8  UNL     1       9.421   2.516 -22.703  1.00  0.00     0.162 HD
BRANCH   8  11
HETATM   11  C6  UNL     1       7.476   1.760 -24.124  1.00  0.00     0.122 C 
BRANCH  11  12
HETATM   12  C7  UNL     1       8.583   2.635 -24.710  1.00  0.00     0.132 C 
BRANCH  12  13
HETATM   13  N2  UNL     1       8.189   4.019 -24.868  1.00  0.00    -0.358 N 
HETATM   14  C8  UNL     1       8.733   4.996 -24.054  1.00  0.00     0.247 C 
HETATM   15  O3  UNL     1       9.462   4.725 -23.108  1.00  0.00    -0.271 OA
HETATM   16  H13 UNL     1       7.924   4.294 -25.811  1.00  0.00     0.162 HD
BRANCH  14  17
HETATM   17  C9  UNL     1       8.365   6.436 -24.442  1.00  0.00     0.219 C 
BRANCH  17  18
HETATM   18  C10 UNL     1       7.396   7.140 -23.456  1.00  0.00     0.009 C 
HETATM   19  C11 UNL     1       7.300   8.650 -23.719  1.00  0.00     0.020 C 
HETATM   20  C12 UNL     1       5.974   6.552 -23.545  1.00  0.00     0.020 C 
BRANCH  18  21
HETATM   21  C13 UNL     1       7.978   6.893 -22.035  1.00  0.00     0.192 C 
BRANCH  21  22
HETATM   22  O4  UNL     1       8.890   7.900 -21.645  1.00  0.00    -0.296 OA
BRANCH  22  23
HETATM   23  P1  UNL     1      10.414   7.590 -21.254  1.00  0.00     0.401 P 
HETATM   24  O5  UNL     1      11.381   7.751 -22.384  1.00  0.00    -0.631 OA
BRANCH  23  25
HETATM   25  O6  UNL     1      10.435   6.126 -20.585  1.00  0.00    -0.307 OA
HETATM   26  H23 UNL     1       9.961   6.106 -19.744  1.00  0.00     0.222 HD
ENDBRANCH  23  25
BRANCH  23  27
HETATM   27  O7  UNL     1      10.709   8.511 -19.990  1.00  0.00    -0.195 OA
BRANCH  27  28
HETATM   28  P2  UNL     1       9.506   8.896 -19.020  1.00  0.00     0.401 P 
HETATM   29  O8  UNL     1       8.663  10.064 -19.417  1.00  0.00    -0.631 OA
BRANCH  28  30
HETATM   30  O9  UNL     1       8.697   7.527 -18.879  1.00  0.00    -0.307 OA
HETATM   31  H24 UNL     1       8.332   7.184 -19.731  1.00  0.00     0.222 HD
ENDBRANCH  28  30
BRANCH  28  32
HETATM   32  O10 UNL     1      10.186   8.985 -17.578  1.00  0.00    -0.294 OA
BRANCH  32  33
HETATM   33  C14 UNL     1      11.578   8.855 -17.448  1.00  0.00     0.215 C 
BRANCH  33  34
HETATM   34  C15 UNL     1      11.811   7.669 -16.514  1.00  0.00     0.180 C 
HETATM   35  C16 UNL     1      11.596   6.366 -17.272  1.00  0.00     0.197 C 
HETATM   36  C17 UNL     1      10.431   5.698 -16.566  1.00  0.00     0.199 C 
HETATM   37  C18 UNL     1      10.517   6.300 -15.161  1.00  0.00     0.262 C 
HETATM   38  O11 UNL     1      10.931   7.666 -15.384  1.00  0.00    -0.353 OA
BRANCH  35  39
HETATM   39  O13 UNL     1      12.792   5.599 -17.179  1.00  0.00    -0.286 OA
BRANCH  39  40
HETATM   40  P3  UNL     1      13.429   5.143 -18.573  1.00  0.00     0.391 P 
HETATM   41  O14 UNL     1      14.813   4.594 -18.452  1.00  0.00    -0.632 OA
BRANCH  40  42
HETATM   42  O15 UNL     1      13.233   6.473 -19.440  1.00  0.00    -0.307 OA
HETATM   43  H36 UNL     1      12.275   6.694 -19.528  1.00  0.00     0.222 HD
ENDBRANCH  40  42
BRANCH  40  44
HETATM   44  O16 UNL     1      12.299   4.175 -19.135  1.00  0.00    -0.307 OA
HETATM   45  H37 UNL     1      12.545   3.756 -19.974  1.00  0.00     0.222 HD
ENDBRANCH  40  44
ENDBRANCH  39  40
ENDBRANCH  35  39
BRANCH  36  46
HETATM   46  O12 UNL     1      10.533   4.276 -16.678  1.00  0.00    -0.388 OA
HETATM   47  H35 UNL     1       9.622   3.920 -16.545  1.00  0.00     0.210 HD
ENDBRANCH  36  46
BRANCH  37  48
HETATM   48  N3  UNL     1       9.239   6.305 -14.479  1.00  0.00    -0.297 N 
HETATM   49  C19 UNL     1       8.922   5.668 -13.302  1.00  0.00     0.188 A 
HETATM   50  N4  UNL     1       7.715   5.973 -12.879  1.00  0.00    -0.346 N 
HETATM   51  C20 UNL     1       7.226   6.855 -13.827  1.00  0.00     0.116 A 
HETATM   52  H4  UNL     1       7.243   5.634 -12.041  1.00  0.00     0.167 HD
HETATM   53  C21 UNL     1       6.020   7.570 -13.930  1.00  0.00     0.109 A 
HETATM   54  C23 UNL     1       8.145   7.039 -14.843  1.00  0.00     0.142 A 
HETATM   55  N5  UNL     1       5.829   8.367 -15.010  1.00  0.00    -0.341 N 
HETATM   56  C22 UNL     1       6.805   8.431 -15.937  1.00  0.00     0.183 A 
HETATM   57  H5  UNL     1       4.968   8.904 -15.118  1.00  0.00     0.167 HD
HETATM   58  N6  UNL     1       7.999   7.803 -15.941  1.00  0.00    -0.336 N 
HETATM   59  H6  UNL     1       8.698   7.894 -16.678  1.00  0.00     0.168 HD
BRANCH  53  60
HETATM   60  N7  UNL     1       5.007   7.497 -12.987  1.00  0.00    -0.287 NA
HETATM   61  H33 UNL     1       5.002   8.262 -12.317  1.00  0.00     0.125 HD
HETATM   62  H34 UNL     1       4.880   6.565 -12.616  1.00  0.00     0.125 HD
ENDBRANCH  53  60
ENDBRANCH  37  48
ENDBRANCH  33  34
ENDBRANCH  32  33
ENDBRANCH  28  32
ENDBRANCH  27  28
ENDBRANCH  23  27
ENDBRANCH  22  23
ENDBRANCH  21  22
ENDBRANCH  18  21
ENDBRANCH  17  18
BRANCH  17  63
HETATM   63  O17 UNL     1       9.550   7.232 -24.561  1.00  0.00    -0.385 OA
HETATM   64  H38 UNL     1      10.314   6.632 -24.595  1.00  0.00     0.210 HD
ENDBRANCH  17  63
ENDBRANCH  14  17
ENDBRANCH  12  13
ENDBRANCH  11  12
ENDBRANCH   8  11
ENDBRANCH   6   7
ENDBRANCH   5   6
ENDBRANCH   4   5
ENDBRANCH   2   4
TORSDOF 27
ENDMDL
