MODEL 1
REMARK VINA RESULT:      -3.7      0.000      0.000
REMARK  2 active torsions:
REMARK  status: ('A' for Active; 'I' for Inactive)
REMARK    1  A    between atoms: C3_3  and  O1_8 
REMARK    2  A    between atoms: C6_6  and  N1_7 
ROOT
HETATM    1  C1  UNL     1      -1.552   7.381 -15.286  1.00  0.00     0.026 A 
HETATM    2  C2  UNL     1      -2.219   7.378 -14.059  1.00  0.00     0.038 A 
HETATM    3  C3  UNL     1      -2.306   8.549 -13.321  1.00  0.00     0.065 A 
HETATM    4  C4  UNL     1      -1.749   9.730 -13.799  1.00  0.00     0.038 A 
HETATM    5  C5  UNL     1      -1.082   9.725 -15.027  1.00  0.00     0.026 A 
HETATM    6  C6  UNL     1      -0.933   8.542 -15.758  1.00  0.00     0.005 A 
ENDROOT
BRANCH   6   7
HETATM    7  N1  UNL     1      -0.370   8.571 -17.039  1.00  0.00    -0.303 NA
HETATM    8  H5  UNL     1      -1.056   8.567 -17.787  1.00  0.00     0.124 HD
HETATM    9  H6  UNL     1       0.361   7.881 -17.181  1.00  0.00     0.124 HD
ENDBRANCH   6   7
BRANCH   3  10
HETATM   10  O1  UNL     1      -2.967   8.506 -12.130  1.00  0.00    -0.361 OA
HETATM   11  H7  UNL     1      -2.323   8.621 -11.414  1.00  0.00     0.217 HD
ENDBRANCH   3  10
TORSDOF 2
ENDMDL
MODEL 2
REMARK VINA RESULT:      -3.7      0.092      1.706
REMARK  2 active torsions:
REMARK  status: ('A' for Active; 'I' for Inactive)
REMARK    1  A    between atoms: C3_3  and  O1_8 
REMARK    2  A    between atoms: C6_6  and  N1_7 
ROOT
HETATM    1  C1  UNL     1      -1.187   9.733 -15.024  1.00  0.00     0.026 A 
HETATM    2  C2  UNL     1      -1.827   9.697 -13.783  1.00  0.00     0.038 A 
HETATM    3  C3  UNL     1      -2.353   8.502 -13.315  1.00  0.00     0.065 A 
HETATM    4  C4  UNL     1      -2.236   7.335 -14.063  1.00  0.00     0.038 A 
HETATM    5  C5  UNL     1      -1.596   7.379 -15.305  1.00  0.00     0.026 A 
HETATM    6  C6  UNL     1      -1.111   8.585 -15.820  1.00  0.00     0.005 A 
ENDROOT
BRANCH   6   7
HETATM    7  N1  UNL     1      -0.368   8.598 -17.006  1.00  0.00    -0.303 NA
HETATM    8  H5  UNL     1      -0.641   9.334 -17.650  1.00  0.00     0.124 HD
HETATM    9  H6  UNL     1      -0.304   7.692 -17.459  1.00  0.00     0.124 HD
ENDBRANCH   6   7
BRANCH   3  10
HETATM   10  O1  UNL     1      -2.967   8.507 -12.098  1.00  0.00    -0.361 OA
HETATM   11  H7  UNL     1      -2.295   8.366 -11.412  1.00  0.00     0.217 HD
ENDBRANCH   3  10
TORSDOF 2
ENDMDL
MODEL 3
REMARK VINA RESULT:      -3.6      2.783      3.685
REMARK  2 active torsions:
REMARK  status: ('A' for Active; 'I' for Inactive)
REMARK    1  A    between atoms: C3_3  and  O1_8 
REMARK    2  A    between atoms: C6_6  and  N1_7 
ROOT
HETATM    1  C1  UNL     1      -1.628   9.673 -13.988  1.00  0.00     0.026 A 
HETATM    2  C2  UNL     1      -0.944   9.636 -15.205  1.00  0.00     0.038 A 
HETATM    3  C3  UNL     1      -0.847   8.441 -15.903  1.00  0.00     0.065 A 
HETATM    4  C4  UNL     1      -1.439   7.283 -15.411  1.00  0.00     0.038 A 
HETATM    5  C5  UNL     1      -2.121   7.328 -14.191  1.00  0.00     0.026 A 
HETATM    6  C6  UNL     1      -2.179   8.509 -13.444  1.00  0.00     0.005 A 
ENDROOT
BRANCH   6   7
HETATM    7  N1  UNL     1      -2.963   8.573 -12.286  1.00  0.00    -0.303 NA
HETATM    8  H5  UNL     1      -3.555   7.760 -12.149  1.00  0.00     0.124 HD
HETATM    9  H6  UNL     1      -3.473   9.444 -12.184  1.00  0.00     0.124 HD
ENDBRANCH   6   7
BRANCH   3  10
HETATM   10  O1  UNL     1      -0.174   8.446 -17.088  1.00  0.00    -0.361 OA
HETATM   11  H7  UNL     1       0.724   8.113 -16.936  1.00  0.00     0.217 HD
ENDBRANCH   3  10
TORSDOF 2
ENDMDL
MODEL 4
REMARK VINA RESULT:      -3.1      2.826      3.339
REMARK  2 active torsions:
REMARK  status: ('A' for Active; 'I' for Inactive)
REMARK    1  A    between atoms: C3_3  and  O1_8 
REMARK    2  A    between atoms: C6_6  and  N1_7 
ROOT
HETATM    1  C1  UNL     1      -2.224   7.626 -16.068  1.00  0.00     0.026 A 
HETATM    2  C2  UNL     1      -1.580   8.471 -16.976  1.00  0.00     0.038 A 
HETATM    3  C3  UNL     1      -0.890   9.581 -16.511  1.00  0.00     0.065 A 
HETATM    4  C4  UNL     1      -0.820   9.853 -15.149  1.00  0.00     0.038 A 
HETATM    5  C5  UNL     1      -1.468   9.004 -14.247  1.00  0.00     0.026 A 
HETATM    6  C6  UNL     1      -2.217   7.913 -14.700  1.00  0.00     0.005 A 
ENDROOT
BRANCH   6   7
HETATM    7  N1  UNL     1      -2.761   7.004 -13.786  1.00  0.00    -0.303 NA
HETATM    8  H5  UNL     1      -3.020   7.423 -12.898  1.00  0.00     0.124 HD
HETATM    9  H6  UNL     1      -2.210   6.160 -13.668  1.00  0.00     0.124 HD
ENDBRANCH   6   7
BRANCH   3  10
HETATM   10  O1  UNL     1      -0.273  10.379 -17.428  1.00  0.00    -0.361 OA
HETATM   11  H7  UNL     1      -0.947  10.746 -18.023  1.00  0.00     0.217 HD
ENDBRANCH   3  10
TORSDOF 2
ENDMDL
MODEL 5
REMARK VINA RESULT:      -3.0      3.280      3.787
REMARK  2 active torsions:
REMARK  status: ('A' for Active; 'I' for Inactive)
REMARK    1  A    between atoms: C3_3  and  O1_8 
REMARK    2  A    between atoms: C6_6  and  N1_7 
ROOT
HETATM    1  C1  UNL     1       1.682   7.787 -17.134  1.00  0.00     0.026 A 
HETATM    2  C2  UNL     1       0.432   7.238 -17.428  1.00  0.00     0.038 A 
HETATM    3  C3  UNL     1      -0.721   7.945 -17.115  1.00  0.00     0.065 A 
HETATM    4  C4  UNL     1      -0.642   9.202 -16.526  1.00  0.00     0.038 A 
HETATM    5  C5  UNL     1       0.613   9.745 -16.234  1.00  0.00     0.026 A 
HETATM    6  C6  UNL     1       1.784   9.023 -16.488  1.00  0.00     0.005 A 
ENDROOT
BRANCH   6   7
HETATM    7  N1  UNL     1       3.035   9.621 -16.303  1.00  0.00    -0.303 NA
HETATM    8  H5  UNL     1       3.743   9.295 -16.953  1.00  0.00     0.124 HD
HETATM    9  H6  UNL     1       3.358   9.609 -15.341  1.00  0.00     0.124 HD
ENDBRANCH   6   7
BRANCH   3  10
HETATM   10  O1  UNL     1      -1.921   7.376 -17.420  1.00  0.00    -0.361 OA
HETATM   11  H7  UNL     1      -2.627   7.913 -17.025  1.00  0.00     0.217 HD
ENDBRANCH   3  10
TORSDOF 2
ENDMDL
MODEL 6
REMARK VINA RESULT:      -2.3      2.673      3.022
REMARK  2 active torsions:
REMARK  status: ('A' for Active; 'I' for Inactive)
REMARK    1  A    between atoms: C3_3  and  O1_8 
REMARK    2  A    between atoms: C6_6  and  N1_7 
ROOT
HETATM    1  C1  UNL     1      -0.192   7.071 -17.428  1.00  0.00     0.026 A 
HETATM    2  C2  UNL     1      -1.383   7.717 -17.085  1.00  0.00     0.038 A 
HETATM    3  C3  UNL     1      -1.341   8.882 -16.333  1.00  0.00     0.065 A 
HETATM    4  C4  UNL     1      -0.125   9.422 -15.931  1.00  0.00     0.038 A 
HETATM    5  C5  UNL     1       1.063   8.770 -16.276  1.00  0.00     0.026 A 
HETATM    6  C6  UNL     1       1.039   7.563 -16.983  1.00  0.00     0.005 A 
ENDROOT
BRANCH   6   7
HETATM    7  N1  UNL     1       2.232   6.982 -17.426  1.00  0.00    -0.303 NA
HETATM    8  H5  UNL     1       2.688   7.502 -18.169  1.00  0.00     0.124 HD
HETATM    9  H6  UNL     1       2.153   5.993 -17.639  1.00  0.00     0.124 HD
ENDBRANCH   6   7
BRANCH   3  10
HETATM   10  O1  UNL     1      -2.524   9.484 -16.022  1.00  0.00    -0.361 OA
HETATM   11  H7  UNL     1      -2.732   9.295 -15.093  1.00  0.00     0.217 HD
ENDBRANCH   3  10
TORSDOF 2
ENDMDL
MODEL 7
REMARK VINA RESULT:      -2.1     11.985     12.655
REMARK  2 active torsions:
REMARK  status: ('A' for Active; 'I' for Inactive)
REMARK    1  A    between atoms: C3_3  and  O1_8 
REMARK    2  A    between atoms: C6_6  and  N1_7 
ROOT
HETATM    1  C1  UNL     1      -1.361  -0.469  -5.770  1.00  0.00     0.026 A 
HETATM    2  C2  UNL     1      -2.047  -1.662  -6.011  1.00  0.00     0.038 A 
HETATM    3  C3  UNL     1      -1.780  -2.389  -7.162  1.00  0.00     0.065 A 
HETATM    4  C4  UNL     1      -0.823  -1.950  -8.070  1.00  0.00     0.038 A 
HETATM    5  C5  UNL     1      -0.141  -0.754  -7.824  1.00  0.00     0.026 A 
HETATM    6  C6  UNL     1      -0.439   0.022  -6.699  1.00  0.00     0.005 A 
ENDROOT
BRANCH   6   7
HETATM    7  N1  UNL     1       0.330   1.153  -6.400  1.00  0.00    -0.303 NA
HETATM    8  H5  UNL     1       0.801   1.099  -5.502  1.00  0.00     0.124 HD
HETATM    9  H6  UNL     1      -0.164   2.030  -6.526  1.00  0.00     0.124 HD
ENDBRANCH   6   7
BRANCH   3  10
HETATM   10  O1  UNL     1      -2.468  -3.549  -7.359  1.00  0.00    -0.361 OA
HETATM   11  H7  UNL     1      -3.379  -3.329  -7.613  1.00  0.00     0.217 HD
ENDBRANCH   3  10
TORSDOF 2
ENDMDL
MODEL 8
REMARK VINA RESULT:      -1.9     11.983     12.634
REMARK  2 active torsions:
REMARK  status: ('A' for Active; 'I' for Inactive)
REMARK    1  A    between atoms: C3_3  and  O1_8 
REMARK    2  A    between atoms: C6_6  and  N1_7 
ROOT
HETATM    1  C1  UNL     1      -0.789  -1.825  -8.001  1.00  0.00     0.026 A 
HETATM    2  C2  UNL     1      -0.086  -0.641  -7.768  1.00  0.00     0.038 A 
HETATM    3  C3  UNL     1      -0.346   0.099  -6.624  1.00  0.00     0.065 A 
HETATM    4  C4  UNL     1      -1.288  -0.336  -5.698  1.00  0.00     0.038 A 
HETATM    5  C5  UNL     1      -1.989  -1.521  -5.939  1.00  0.00     0.026 A 
HETATM    6  C6  UNL     1      -1.783  -2.250  -7.115  1.00  0.00     0.005 A 
ENDROOT
BRANCH   6   7
HETATM    7  N1  UNL     1      -2.401  -3.494  -7.290  1.00  0.00    -0.303 NA
HETATM    8  H5  UNL     1      -2.762  -3.895  -6.430  1.00  0.00     0.124 HD
HETATM    9  H6  UNL     1      -1.846  -4.156  -7.822  1.00  0.00     0.124 HD
ENDBRANCH   6   7
BRANCH   3  10
HETATM   10  O1  UNL     1       0.363   1.247  -6.431  1.00  0.00    -0.361 OA
HETATM   11  H7  UNL     1       1.309   1.040  -6.487  1.00  0.00     0.217 HD
ENDBRANCH   3  10
TORSDOF 2
ENDMDL
MODEL 9
REMARK VINA RESULT:      -1.5      7.629      8.489
REMARK  2 active torsions:
REMARK  status: ('A' for Active; 'I' for Inactive)
REMARK    1  A    between atoms: C3_3  and  O1_8 
REMARK    2  A    between atoms: C6_6  and  N1_7 
ROOT
HETATM    1  C1  UNL     1       2.540   2.784 -15.337  1.00  0.00     0.026 A 
HETATM    2  C2  UNL     1       3.061   2.444 -14.086  1.00  0.00     0.038 A 
HETATM    3  C3  UNL     1       2.988   1.131 -13.645  1.00  0.00     0.065 A 
HETATM    4  C4  UNL     1       2.415   0.147 -14.443  1.00  0.00     0.038 A 
HETATM    5  C5  UNL     1       1.894   0.495 -15.692  1.00  0.00     0.026 A 
HETATM    6  C6  UNL     1       1.906   1.823 -16.130  1.00  0.00     0.005 A 
ENDROOT
BRANCH   6   7
HETATM    7  N1  UNL     1       1.491   2.141 -17.428  1.00  0.00    -0.303 NA
HETATM    8  H5  UNL     1       0.483   2.195 -17.533  1.00  0.00     0.124 HD
HETATM    9  H6  UNL     1       1.925   1.573 -18.148  1.00  0.00     0.124 HD
ENDBRANCH   6   7
BRANCH   3  10
HETATM   10  O1  UNL     1       3.510   0.839 -12.421  1.00  0.00    -0.361 OA
HETATM   11  H7  UNL     1       4.120   0.089 -12.515  1.00  0.00     0.217 HD
ENDBRANCH   3  10
TORSDOF 2
ENDMDL
MODEL 10
REMARK VINA RESULT:      -1.3      7.885      8.783
REMARK  2 active torsions:
REMARK  status: ('A' for Active; 'I' for Inactive)
REMARK    1  A    between atoms: C3_3  and  O1_8 
REMARK    2  A    between atoms: C6_6  and  N1_7 
ROOT
HETATM    1  C1  UNL     1       3.071   2.511 -14.200  1.00  0.00     0.026 A 
HETATM    2  C2  UNL     1       2.550   2.855 -15.449  1.00  0.00     0.038 A 
HETATM    3  C3  UNL     1       1.909   1.892 -16.216  1.00  0.00     0.065 A 
HETATM    4  C4  UNL     1       1.766   0.592 -15.745  1.00  0.00     0.038 A 
HETATM    5  C5  UNL     1       2.291   0.254 -14.494  1.00  0.00     0.026 A 
HETATM    6  C6  UNL     1       2.992   1.195 -13.733  1.00  0.00     0.005 A 
ENDROOT
BRANCH   6   7
HETATM    7  N1  UNL     1       3.408   0.881 -12.434  1.00  0.00    -0.303 NA
HETATM    8  H5  UNL     1       4.415   0.786 -12.341  1.00  0.00     0.124 HD
HETATM    9  H6  UNL     1       2.907   0.104 -12.019  1.00  0.00     0.124 HD
ENDBRANCH   6   7
BRANCH   3  10
HETATM   10  O1  UNL     1       1.412   2.268 -17.428  1.00  0.00    -0.361 OA
HETATM   11  H7  UNL     1       2.149   2.557 -17.989  1.00  0.00     0.217 HD
ENDBRANCH   3  10
TORSDOF 2
ENDMDL
MODEL 11
REMARK VINA RESULT:      -1.1     11.800     12.461
REMARK  2 active torsions:
REMARK  status: ('A' for Active; 'I' for Inactive)
REMARK    1  A    between atoms: C3_3  and  O1_8 
REMARK    2  A    between atoms: C6_6  and  N1_7 
ROOT
HETATM    1  C1  UNL     1      -1.616  -2.522  -7.564  1.00  0.00     0.026 A 
HETATM    2  C2  UNL     1      -2.099  -2.115  -6.318  1.00  0.00     0.038 A 
HETATM    3  C3  UNL     1      -1.645  -0.929  -5.758  1.00  0.00     0.065 A 
HETATM    4  C4  UNL     1      -0.725  -0.134  -6.433  1.00  0.00     0.038 A 
HETATM    5  C5  UNL     1      -0.245  -0.549  -7.679  1.00  0.00     0.026 A 
HETATM    6  C6  UNL     1      -0.646  -1.769  -8.233  1.00  0.00     0.005 A 
ENDROOT
BRANCH   6   7
HETATM    7  N1  UNL     1      -0.253  -2.117  -9.530  1.00  0.00    -0.303 NA
HETATM    8  H5  UNL     1      -0.838  -1.715 -10.255  1.00  0.00     0.124 HD
HETATM    9  H6  UNL     1      -0.105  -3.112  -9.661  1.00  0.00     0.124 HD
ENDBRANCH   6   7
BRANCH   3  10
HETATM   10  O1  UNL     1      -2.142  -0.566  -4.543  1.00  0.00    -0.361 OA
HETATM   11  H7  UNL     1      -2.820   0.116  -4.677  1.00  0.00     0.217 HD
ENDBRANCH   3  10
TORSDOF 2
ENDMDL
MODEL 12
REMARK VINA RESULT:      -1.1      8.890      9.756
REMARK  2 active torsions:
REMARK  status: ('A' for Active; 'I' for Inactive)
REMARK    1  A    between atoms: C3_3  and  O1_8 
REMARK    2  A    between atoms: C6_6  and  N1_7 
ROOT
HETATM    1  C1  UNL     1       3.393  -0.411 -14.930  1.00  0.00     0.026 A 
HETATM    2  C2  UNL     1       2.703  -0.871 -16.054  1.00  0.00     0.038 A 
HETATM    3  C3  UNL     1       1.427  -0.394 -16.321  1.00  0.00     0.065 A 
HETATM    4  C4  UNL     1       0.836   0.550 -15.488  1.00  0.00     0.038 A 
HETATM    5  C5  UNL     1       1.532   1.005 -14.364  1.00  0.00     0.026 A 
HETATM    6  C6  UNL     1       2.794   0.493 -14.047  1.00  0.00     0.005 A 
ENDROOT
BRANCH   6   7
HETATM    7  N1  UNL     1       3.531   1.039 -12.990  1.00  0.00    -0.303 NA
HETATM    8  H5  UNL     1       4.316   0.464 -12.699  1.00  0.00     0.124 HD
HETATM    9  H6  UNL     1       2.963   1.342 -12.207  1.00  0.00     0.124 HD
ENDBRANCH   6   7
BRANCH   3  10
HETATM   10  O1  UNL     1       0.788  -0.865 -17.428  1.00  0.00    -0.361 OA
HETATM   11  H7  UNL     1       0.376  -0.117 -17.890  1.00  0.00     0.217 HD
ENDBRANCH   3  10
TORSDOF 2
ENDMDL
MODEL 13
REMARK VINA RESULT:      -1.1      8.687      9.499
REMARK  2 active torsions:
REMARK  status: ('A' for Active; 'I' for Inactive)
REMARK    1  A    between atoms: C3_3  and  O1_8 
REMARK    2  A    between atoms: C6_6  and  N1_7 
ROOT
HETATM    1  C1  UNL     1       2.750  -0.869 -16.009  1.00  0.00     0.026 A 
HETATM    2  C2  UNL     1       3.410  -0.386 -14.877  1.00  0.00     0.038 A 
HETATM    3  C3  UNL     1       2.791   0.558 -14.071  1.00  0.00     0.065 A 
HETATM    4  C4  UNL     1       1.512   1.016 -14.371  1.00  0.00     0.038 A 
HETATM    5  C5  UNL     1       0.858   0.529 -15.506  1.00  0.00     0.026 A 
HETATM    6  C6  UNL     1       1.489  -0.379 -16.363  1.00  0.00     0.005 A 
ENDROOT
BRANCH   6   7
HETATM    7  N1  UNL     1       0.783  -0.950 -17.428  1.00  0.00    -0.303 NA
HETATM    8  H5  UNL     1      -0.152  -0.571 -17.547  1.00  0.00     0.124 HD
HETATM    9  H6  UNL     1       0.792  -1.964 -17.429  1.00  0.00     0.124 HD
ENDBRANCH   6   7
BRANCH   3  10
HETATM   10  O1  UNL     1       3.466   1.003 -12.974  1.00  0.00    -0.361 OA
HETATM   11  H7  UNL     1       3.577   1.964 -13.048  1.00  0.00     0.217 HD
ENDBRANCH   3  10
TORSDOF 2
ENDMDL
MODEL 14
REMARK VINA RESULT:      -1.1      7.563      8.231
REMARK  2 active torsions:
REMARK  status: ('A' for Active; 'I' for Inactive)
REMARK    1  A    between atoms: C3_3  and  O1_8 
REMARK    2  A    between atoms: C6_6  and  N1_7 
ROOT
HETATM    1  C1  UNL     1       2.454   2.255 -15.151  1.00  0.00     0.026 A 
HETATM    2  C2  UNL     1       1.932   0.966 -15.013  1.00  0.00     0.038 A 
HETATM    3  C3  UNL     1       1.282   0.369 -16.083  1.00  0.00     0.065 A 
HETATM    4  C4  UNL     1       1.159   1.035 -17.298  1.00  0.00     0.038 A 
HETATM    5  C5  UNL     1       1.682   2.325 -17.428  1.00  0.00     0.026 A 
HETATM    6  C6  UNL     1       2.289   2.966 -16.343  1.00  0.00     0.005 A 
ENDROOT
BRANCH   6   7
HETATM    7  N1  UNL     1       2.913   4.207 -16.517  1.00  0.00    -0.303 NA
HETATM    8  H5  UNL     1       3.326   4.578 -15.667  1.00  0.00     0.124 HD
HETATM    9  H6  UNL     1       2.340   4.891 -16.998  1.00  0.00     0.124 HD
ENDBRANCH   6   7
BRANCH   3  10
HETATM   10  O1  UNL     1       0.790  -0.890 -15.910  1.00  0.00    -0.361 OA
HETATM   11  H7  UNL     1       0.692  -1.307 -16.780  1.00  0.00     0.217 HD
ENDBRANCH   3  10
TORSDOF 2
ENDMDL
MODEL 15
REMARK VINA RESULT:      -1.0      8.066      8.889
REMARK  2 active torsions:
REMARK  status: ('A' for Active; 'I' for Inactive)
REMARK    1  A    between atoms: C3_3  and  O1_8 
REMARK    2  A    between atoms: C6_6  and  N1_7 
ROOT
HETATM    1  C1  UNL     1       1.732   1.203 -15.880  1.00  0.00     0.026 A 
HETATM    2  C2  UNL     1       1.918   2.228 -14.949  1.00  0.00     0.038 A 
HETATM    3  C3  UNL     1       2.634   1.981 -13.787  1.00  0.00     0.065 A 
HETATM    4  C4  UNL     1       3.183   0.726 -13.548  1.00  0.00     0.038 A 
HETATM    5  C5  UNL     1       2.992  -0.296 -14.483  1.00  0.00     0.026 A 
HETATM    6  C6  UNL     1       2.223  -0.082 -15.632  1.00  0.00     0.005 A 
ENDROOT
BRANCH   6   7
HETATM    7  N1  UNL     1       2.138  -1.072 -16.617  1.00  0.00    -0.303 NA
HETATM    8  H5  UNL     1       1.379  -0.928 -17.275  1.00  0.00     0.124 HD
HETATM    9  H6  UNL     1       2.157  -2.018 -16.251  1.00  0.00     0.124 HD
ENDBRANCH   6   7
BRANCH   3  10
HETATM   10  O1  UNL     1       2.796   3.007 -12.906  1.00  0.00    -0.361 OA
HETATM   11  H7  UNL     1       2.170   2.889 -12.174  1.00  0.00     0.217 HD
ENDBRANCH   3  10
TORSDOF 2
ENDMDL
MODEL 16
REMARK VINA RESULT:      -0.9     12.532     13.199
REMARK  2 active torsions:
REMARK  status: ('A' for Active; 'I' for Inactive)
REMARK    1  A    between atoms: C3_3  and  O1_8 
REMARK    2  A    between atoms: C6_6  and  N1_7 
ROOT
HETATM    1  C1  UNL     1      10.199   7.114 -15.587  1.00  0.00     0.026 A 
HETATM    2  C2  UNL     1      10.480   8.480 -15.510  1.00  0.00     0.038 A 
HETATM    3  C3  UNL     1      11.400   9.043 -16.383  1.00  0.00     0.065 A 
HETATM    4  C4  UNL     1      12.033   8.264 -17.344  1.00  0.00     0.038 A 
HETATM    5  C5  UNL     1      11.748   6.897 -17.414  1.00  0.00     0.026 A 
HETATM    6  C6  UNL     1      10.868   6.300 -16.506  1.00  0.00     0.005 A 
ENDROOT
BRANCH   6   7
HETATM    7  N1  UNL     1      10.499   4.959 -16.659  1.00  0.00    -0.303 NA
HETATM    8  H5  UNL     1       9.928   4.603 -15.898  1.00  0.00     0.124 HD
HETATM    9  H6  UNL     1      11.274   4.343 -16.881  1.00  0.00     0.124 HD
ENDBRANCH   6   7
BRANCH   3  10
HETATM   10  O1  UNL     1      11.644  10.380 -16.278  1.00  0.00    -0.361 OA
HETATM   11  H7  UNL     1      10.956  10.778 -15.721  1.00  0.00     0.217 HD
ENDBRANCH   3  10
TORSDOF 2
ENDMDL
MODEL 17
REMARK VINA RESULT:      -0.8     12.117     12.883
REMARK  2 active torsions:
REMARK  status: ('A' for Active; 'I' for Inactive)
REMARK    1  A    between atoms: C3_3  and  O1_8 
REMARK    2  A    between atoms: C6_6  and  N1_7 
ROOT
HETATM    1  C1  UNL     1      -2.062  -2.289  -6.485  1.00  0.00     0.026 A 
HETATM    2  C2  UNL     1      -1.534  -2.641  -7.730  1.00  0.00     0.038 A 
HETATM    3  C3  UNL     1      -0.641  -1.789  -8.364  1.00  0.00     0.065 A 
HETATM    4  C4  UNL     1      -0.253  -0.596  -7.764  1.00  0.00     0.038 A 
HETATM    5  C5  UNL     1      -0.786  -0.250  -6.519  1.00  0.00     0.026 A 
HETATM    6  C6  UNL     1      -1.732  -1.066  -5.892  1.00  0.00     0.005 A 
ENDROOT
BRANCH   6   7
HETATM    7  N1  UNL     1      -2.169  -0.771  -4.595  1.00  0.00    -0.303 NA
HETATM    8  H5  UNL     1      -1.449  -0.878  -3.888  1.00  0.00     0.124 HD
HETATM    9  H6  UNL     1      -3.035  -1.234  -4.338  1.00  0.00     0.124 HD
ENDBRANCH   6   7
BRANCH   3  10
HETATM   10  O1  UNL     1      -0.146  -2.170  -9.575  1.00  0.00    -0.361 OA
HETATM   11  H7  UNL     1       0.560  -1.554  -9.829  1.00  0.00     0.217 HD
ENDBRANCH   3  10
TORSDOF 2
ENDMDL
MODEL 18
REMARK VINA RESULT:      -0.8      8.440      9.334
REMARK  2 active torsions:
REMARK  status: ('A' for Active; 'I' for Inactive)
REMARK    1  A    between atoms: C3_3  and  O1_8 
REMARK    2  A    between atoms: C6_6  and  N1_7 
ROOT
HETATM    1  C1  UNL     1       1.708   1.944 -15.060  1.00  0.00     0.026 A 
HETATM    2  C2  UNL     1       1.538   0.895 -15.965  1.00  0.00     0.038 A 
HETATM    3  C3  UNL     1       2.209  -0.303 -15.764  1.00  0.00     0.065 A 
HETATM    4  C4  UNL     1       3.036  -0.474 -14.659  1.00  0.00     0.038 A 
HETATM    5  C5  UNL     1       3.202   0.581 -13.757  1.00  0.00     0.026 A 
HETATM    6  C6  UNL     1       2.581   1.815 -13.975  1.00  0.00     0.005 A 
ENDROOT
BRANCH   6   7
HETATM    7  N1  UNL     1       2.657   2.823 -13.007  1.00  0.00    -0.303 NA
HETATM    8  H5  UNL     1       2.155   2.607 -12.152  1.00  0.00     0.124 HD
HETATM    9  H6  UNL     1       2.437   3.749 -13.360  1.00  0.00     0.124 HD
ENDBRANCH   6   7
BRANCH   3  10
HETATM   10  O1  UNL     1       2.015  -1.304 -16.668  1.00  0.00    -0.361 OA
HETATM   11  H7  UNL     1       2.642  -1.186 -17.399  1.00  0.00     0.217 HD
ENDBRANCH   3  10
TORSDOF 2
ENDMDL
MODEL 19
REMARK VINA RESULT:      -0.7      9.362     10.152
REMARK  2 active torsions:
REMARK  status: ('A' for Active; 'I' for Inactive)
REMARK    1  A    between atoms: C3_3  and  O1_8 
REMARK    2  A    between atoms: C6_6  and  N1_7 
ROOT
HETATM    1  C1  UNL     1       3.317  -0.644 -15.536  1.00  0.00     0.026 A 
HETATM    2  C2  UNL     1       2.265  -0.014 -14.867  1.00  0.00     0.038 A 
HETATM    3  C3  UNL     1       1.009   0.041 -15.455  1.00  0.00     0.065 A 
HETATM    4  C4  UNL     1       0.784  -0.541 -16.698  1.00  0.00     0.038 A 
HETATM    5  C5  UNL     1       1.842  -1.168 -17.363  1.00  0.00     0.026 A 
HETATM    6  C6  UNL     1       3.128  -1.182 -16.813  1.00  0.00     0.005 A 
ENDROOT
BRANCH   6   7
HETATM    7  N1  UNL     1       4.150  -1.914 -17.428  1.00  0.00    -0.303 NA
HETATM    8  H5  UNL     1       4.344  -2.802 -16.976  1.00  0.00     0.124 HD
HETATM    9  H6  UNL     1       4.992  -1.376 -17.601  1.00  0.00     0.124 HD
ENDBRANCH   6   7
BRANCH   3  10
HETATM   10  O1  UNL     1       0.009   0.662 -14.769  1.00  0.00    -0.361 OA
HETATM   11  H7  UNL     1      -0.329   1.394 -15.308  1.00  0.00     0.217 HD
ENDBRANCH   3  10
TORSDOF 2
ENDMDL
MODEL 20
REMARK VINA RESULT:      -0.7      7.479      8.025
REMARK  2 active torsions:
REMARK  status: ('A' for Active; 'I' for Inactive)
REMARK    1  A    between atoms: C3_3  and  O1_8 
REMARK    2  A    between atoms: C6_6  and  N1_7 
ROOT
HETATM    1  C1  UNL     1       2.249   1.756 -14.908  1.00  0.00     0.026 A 
HETATM    2  C2  UNL     1       2.829   2.992 -15.203  1.00  0.00     0.038 A 
HETATM    3  C3  UNL     1       2.657   3.550 -16.462  1.00  0.00     0.065 A 
HETATM    4  C4  UNL     1       1.900   2.897 -17.428  1.00  0.00     0.038 A 
HETATM    5  C5  UNL     1       1.324   1.659 -17.126  1.00  0.00     0.026 A 
HETATM    6  C6  UNL     1       1.534   1.054 -15.883  1.00  0.00     0.005 A 
ENDROOT
BRANCH   6   7
HETATM    7  N1  UNL     1       0.857  -0.125 -15.550  1.00  0.00    -0.303 NA
HETATM    8  H5  UNL     1      -0.121   0.018 -15.320  1.00  0.00     0.124 HD
HETATM    9  H6  UNL     1       1.337  -0.692 -14.860  1.00  0.00     0.124 HD
ENDBRANCH   6   7
BRANCH   3  10
HETATM   10  O1  UNL     1       3.236   4.758 -16.709  1.00  0.00    -0.361 OA
HETATM   11  H7  UNL     1       2.939   5.072 -17.578  1.00  0.00     0.217 HD
ENDBRANCH   3  10
TORSDOF 2
ENDMDL
