MODEL 1
REMARK VINA RESULT:      -4.6      0.000      0.000
REMARK  2 active torsions:
REMARK  status: ('A' for Active; 'I' for Inactive)
REMARK    1  A    between atoms: C3_3  and  O1_8 
REMARK    2  A    between atoms: C6_6  and  N1_7 
ROOT
HETATM    1  C1  UNL     1       4.181   2.298 -10.118  1.00  0.00     0.026 A 
HETATM    2  C2  UNL     1       5.252   1.844 -10.891  1.00  0.00     0.038 A 
HETATM    3  C3  UNL     1       6.183   2.750 -11.376  1.00  0.00     0.065 A 
HETATM    4  C4  UNL     1       6.070   4.105 -11.084  1.00  0.00     0.038 A 
HETATM    5  C5  UNL     1       4.995   4.553 -10.311  1.00  0.00     0.026 A 
HETATM    6  C6  UNL     1       4.014   3.662  -9.863  1.00  0.00     0.005 A 
ENDROOT
BRANCH   6   7
HETATM    7  N1  UNL     1       3.010   4.100  -8.992  1.00  0.00    -0.303 NA
HETATM    8  H5  UNL     1       2.439   4.848  -9.371  1.00  0.00     0.124 HD
HETATM    9  H6  UNL     1       3.340   4.303  -8.054  1.00  0.00     0.124 HD
ENDBRANCH   6   7
BRANCH   3  10
HETATM   10  O1  UNL     1       7.215   2.268 -12.124  1.00  0.00    -0.361 OA
HETATM   11  H7  UNL     1       6.850   1.727 -12.842  1.00  0.00     0.217 HD
ENDBRANCH   3  10
TORSDOF 2
ENDMDL
MODEL 2
REMARK VINA RESULT:      -4.5      2.861      3.541
REMARK  2 active torsions:
REMARK  status: ('A' for Active; 'I' for Inactive)
REMARK    1  A    between atoms: C3_3  and  O1_8 
REMARK    2  A    between atoms: C6_6  and  N1_7 
ROOT
HETATM    1  C1  UNL     1       6.112   3.308 -12.102  1.00  0.00     0.026 A 
HETATM    2  C2  UNL     1       5.909   4.068 -10.947  1.00  0.00     0.038 A 
HETATM    3  C3  UNL     1       4.654   4.097 -10.355  1.00  0.00     0.065 A 
HETATM    4  C4  UNL     1       3.601   3.365 -10.891  1.00  0.00     0.038 A 
HETATM    5  C5  UNL     1       3.811   2.608 -12.047  1.00  0.00     0.026 A 
HETATM    6  C6  UNL     1       5.053   2.612 -12.692  1.00  0.00     0.005 A 
ENDROOT
BRANCH   6   7
HETATM    7  N1  UNL     1       5.286   1.759 -13.777  1.00  0.00    -0.303 NA
HETATM    8  H5  UNL     1       5.795   2.198 -14.538  1.00  0.00     0.124 HD
HETATM    9  H6  UNL     1       4.459   1.268 -14.098  1.00  0.00     0.124 HD
ENDBRANCH   6   7
BRANCH   3  10
HETATM   10  O1  UNL     1       4.498   4.848  -9.229  1.00  0.00    -0.361 OA
HETATM   11  H7  UNL     1       3.710   4.536  -8.756  1.00  0.00     0.217 HD
ENDBRANCH   3  10
TORSDOF 2
ENDMDL
MODEL 3
REMARK VINA RESULT:      -4.5      2.855      3.264
REMARK  2 active torsions:
REMARK  status: ('A' for Active; 'I' for Inactive)
REMARK    1  A    between atoms: C3_3  and  O1_8 
REMARK    2  A    between atoms: C6_6  and  N1_7 
ROOT
HETATM    1  C1  UNL     1       3.762   2.658 -11.947  1.00  0.00     0.026 A 
HETATM    2  C2  UNL     1       3.627   3.385 -10.763  1.00  0.00     0.038 A 
HETATM    3  C3  UNL     1       4.669   4.190 -10.326  1.00  0.00     0.065 A 
HETATM    4  C4  UNL     1       5.842   4.291 -11.066  1.00  0.00     0.038 A 
HETATM    5  C5  UNL     1       5.972   3.559 -12.250  1.00  0.00     0.026 A 
HETATM    6  C6  UNL     1       4.955   2.698 -12.675  1.00  0.00     0.005 A 
ENDROOT
BRANCH   6   7
HETATM    7  N1  UNL     1       5.044   2.063 -13.920  1.00  0.00    -0.303 NA
HETATM    8  H5  UNL     1       5.364   1.101 -13.865  1.00  0.00     0.124 HD
HETATM    9  H6  UNL     1       5.547   2.599 -14.619  1.00  0.00     0.124 HD
ENDBRANCH   6   7
BRANCH   3  10
HETATM   10  O1  UNL     1       4.497   4.885  -9.167  1.00  0.00    -0.361 OA
HETATM   11  H7  UNL     1       4.683   5.823  -9.338  1.00  0.00     0.217 HD
ENDBRANCH   3  10
TORSDOF 2
ENDMDL
MODEL 4
REMARK VINA RESULT:      -4.5      1.629      2.226
REMARK  2 active torsions:
REMARK  status: ('A' for Active; 'I' for Inactive)
REMARK    1  A    between atoms: C3_3  and  O1_8 
REMARK    2  A    between atoms: C6_6  and  N1_7 
ROOT
HETATM    1  C1  UNL     1       5.914   4.140 -11.124  1.00  0.00     0.026 A 
HETATM    2  C2  UNL     1       6.065   3.439 -12.323  1.00  0.00     0.038 A 
HETATM    3  C3  UNL     1       5.016   2.671 -12.807  1.00  0.00     0.065 A 
HETATM    4  C4  UNL     1       3.809   2.606 -12.119  1.00  0.00     0.038 A 
HETATM    5  C5  UNL     1       3.666   3.309 -10.919  1.00  0.00     0.026 A 
HETATM    6  C6  UNL     1       4.731   4.041 -10.385  1.00  0.00     0.005 A 
ENDROOT
BRANCH   6   7
HETATM    7  N1  UNL     1       4.540   4.835  -9.248  1.00  0.00    -0.303 NA
HETATM    8  H5  UNL     1       5.368   5.351  -8.968  1.00  0.00     0.124 HD
HETATM    9  H6  UNL     1       4.110   4.344  -8.472  1.00  0.00     0.124 HD
ENDBRANCH   6   7
BRANCH   3  10
HETATM   10  O1  UNL     1       5.202   2.005 -13.981  1.00  0.00    -0.361 OA
HETATM   11  H7  UNL     1       5.059   2.624 -14.715  1.00  0.00     0.217 HD
ENDBRANCH   3  10
TORSDOF 2
ENDMDL
MODEL 5
REMARK VINA RESULT:      -4.4      1.555      1.713
REMARK  2 active torsions:
REMARK  status: ('A' for Active; 'I' for Inactive)
REMARK    1  A    between atoms: C3_3  and  O1_8 
REMARK    2  A    between atoms: C6_6  and  N1_7 
ROOT
HETATM    1  C1  UNL     1       3.721   3.233 -10.994  1.00  0.00     0.026 A 
HETATM    2  C2  UNL     1       3.932   2.443 -12.126  1.00  0.00     0.038 A 
HETATM    3  C3  UNL     1       5.170   2.453 -12.752  1.00  0.00     0.065 A 
HETATM    4  C4  UNL     1       6.209   3.231 -12.252  1.00  0.00     0.038 A 
HETATM    5  C5  UNL     1       5.991   4.020 -11.118  1.00  0.00     0.026 A 
HETATM    6  C6  UNL     1       4.733   4.067 -10.509  1.00  0.00     0.005 A 
ENDROOT
BRANCH   6   7
HETATM    7  N1  UNL     1       4.557   4.765  -9.309  1.00  0.00    -0.303 NA
HETATM    8  H5  UNL     1       5.386   5.265  -9.003  1.00  0.00     0.124 HD
HETATM    9  H6  UNL     1       4.145   4.209  -8.567  1.00  0.00     0.124 HD
ENDBRANCH   6   7
BRANCH   3  10
HETATM   10  O1  UNL     1       5.337   1.667 -13.852  1.00  0.00    -0.361 OA
HETATM   11  H7  UNL     1       5.752   0.834 -13.578  1.00  0.00     0.217 HD
ENDBRANCH   3  10
TORSDOF 2
ENDMDL
MODEL 6
REMARK VINA RESULT:      -4.3      1.292      1.349
REMARK  2 active torsions:
REMARK  status: ('A' for Active; 'I' for Inactive)
REMARK    1  A    between atoms: C3_3  and  O1_8 
REMARK    2  A    between atoms: C6_6  and  N1_7 
ROOT
HETATM    1  C1  UNL     1       4.065   2.813 -11.721  1.00  0.00     0.026 A 
HETATM    2  C2  UNL     1       4.945   2.345 -12.699  1.00  0.00     0.038 A 
HETATM    3  C3  UNL     1       6.280   2.718 -12.658  1.00  0.00     0.065 A 
HETATM    4  C4  UNL     1       6.754   3.542 -11.643  1.00  0.00     0.038 A 
HETATM    5  C5  UNL     1       5.867   4.009 -10.668  1.00  0.00     0.026 A 
HETATM    6  C6  UNL     1       4.506   3.691 -10.726  1.00  0.00     0.005 A 
ENDROOT
BRANCH   6   7
HETATM    7  N1  UNL     1       3.651   4.063  -9.683  1.00  0.00    -0.303 NA
HETATM    8  H5  UNL     1       3.606   3.383  -8.930  1.00  0.00     0.124 HD
HETATM    9  H6  UNL     1       2.731   4.358  -9.992  1.00  0.00     0.124 HD
ENDBRANCH   6   7
BRANCH   3  10
HETATM   10  O1  UNL     1       7.108   2.238 -13.628  1.00  0.00    -0.361 OA
HETATM   11  H7  UNL     1       7.154   1.272 -13.546  1.00  0.00     0.217 HD
ENDBRANCH   3  10
TORSDOF 2
ENDMDL
MODEL 7
REMARK VINA RESULT:      -4.2      2.355      3.041
REMARK  2 active torsions:
REMARK  status: ('A' for Active; 'I' for Inactive)
REMARK    1  A    between atoms: C3_3  and  O1_8 
REMARK    2  A    between atoms: C6_6  and  N1_7 
ROOT
HETATM    1  C1  UNL     1       6.807   3.047 -11.315  1.00  0.00     0.026 A 
HETATM    2  C2  UNL     1       7.027   3.728 -12.514  1.00  0.00     0.038 A 
HETATM    3  C3  UNL     1       6.151   3.553 -13.575  1.00  0.00     0.065 A 
HETATM    4  C4  UNL     1       5.046   2.718 -13.451  1.00  0.00     0.038 A 
HETATM    5  C5  UNL     1       4.833   2.038 -12.248  1.00  0.00     0.026 A 
HETATM    6  C6  UNL     1       5.736   2.156 -11.188  1.00  0.00     0.005 A 
ENDROOT
BRANCH   6   7
HETATM    7  N1  UNL     1       5.452   1.567  -9.950  1.00  0.00    -0.303 NA
HETATM    8  H5  UNL     1       5.699   2.148  -9.156  1.00  0.00     0.124 HD
HETATM    9  H6  UNL     1       5.799   0.618  -9.858  1.00  0.00     0.124 HD
ENDBRANCH   6   7
BRANCH   3  10
HETATM   10  O1  UNL     1       6.398   4.238 -14.727  1.00  0.00    -0.361 OA
HETATM   11  H7  UNL     1       5.552   4.527 -15.104  1.00  0.00     0.217 HD
ENDBRANCH   3  10
TORSDOF 2
ENDMDL
MODEL 8
REMARK VINA RESULT:      -4.2      2.574      3.237
REMARK  2 active torsions:
REMARK  status: ('A' for Active; 'I' for Inactive)
REMARK    1  A    between atoms: C3_3  and  O1_8 
REMARK    2  A    between atoms: C6_6  and  N1_7 
ROOT
HETATM    1  C1  UNL     1       5.820   2.551 -13.350  1.00  0.00     0.026 A 
HETATM    2  C2  UNL     1       6.613   3.200 -12.401  1.00  0.00     0.038 A 
HETATM    3  C3  UNL     1       6.180   3.286 -11.086  1.00  0.00     0.065 A 
HETATM    4  C4  UNL     1       4.971   2.717 -10.700  1.00  0.00     0.038 A 
HETATM    5  C5  UNL     1       4.182   2.070 -11.656  1.00  0.00     0.026 A 
HETATM    6  C6  UNL     1       4.574   2.024 -12.998  1.00  0.00     0.005 A 
ENDROOT
BRANCH   6   7
HETATM    7  N1  UNL     1       3.838   1.273 -13.922  1.00  0.00    -0.303 NA
HETATM    8  H5  UNL     1       3.336   0.495 -13.507  1.00  0.00     0.124 HD
HETATM    9  H6  UNL     1       4.369   0.998 -14.742  1.00  0.00     0.124 HD
ENDBRANCH   6   7
BRANCH   3  10
HETATM   10  O1  UNL     1       6.983   3.925 -10.189  1.00  0.00    -0.361 OA
HETATM   11  H7  UNL     1       6.523   4.718  -9.872  1.00  0.00     0.217 HD
ENDBRANCH   3  10
TORSDOF 2
ENDMDL
MODEL 9
REMARK VINA RESULT:      -4.2      2.995      3.696
REMARK  2 active torsions:
REMARK  status: ('A' for Active; 'I' for Inactive)
REMARK    1  A    between atoms: C3_3  and  O1_8 
REMARK    2  A    between atoms: C6_6  and  N1_7 
ROOT
HETATM    1  C1  UNL     1       7.006   3.609 -12.456  1.00  0.00     0.026 A 
HETATM    2  C2  UNL     1       6.796   2.917 -11.261  1.00  0.00     0.038 A 
HETATM    3  C3  UNL     1       5.666   2.125 -11.114  1.00  0.00     0.065 A 
HETATM    4  C4  UNL     1       4.749   2.001 -12.152  1.00  0.00     0.038 A 
HETATM    5  C5  UNL     1       4.966   2.697 -13.345  1.00  0.00     0.026 A 
HETATM    6  C6  UNL     1       6.067   3.546 -13.490  1.00  0.00     0.005 A 
ENDROOT
BRANCH   6   7
HETATM    7  N1  UNL     1       6.338   4.144 -14.726  1.00  0.00    -0.303 NA
HETATM    8  H5  UNL     1       7.314   4.085 -15.003  1.00  0.00     0.124 HD
HETATM    9  H6  UNL     1       5.966   5.083 -14.818  1.00  0.00     0.124 HD
ENDBRANCH   6   7
BRANCH   3  10
HETATM   10  O1  UNL     1       5.499   1.465  -9.934  1.00  0.00    -0.361 OA
HETATM   11  H7  UNL     1       4.903   0.713 -10.082  1.00  0.00     0.217 HD
ENDBRANCH   3  10
TORSDOF 2
ENDMDL
MODEL 10
REMARK VINA RESULT:      -4.2      3.022      3.502
REMARK  2 active torsions:
REMARK  status: ('A' for Active; 'I' for Inactive)
REMARK    1  A    between atoms: C3_3  and  O1_8 
REMARK    2  A    between atoms: C6_6  and  N1_7 
ROOT
HETATM    1  C1  UNL     1       5.182   2.727 -13.443  1.00  0.00     0.026 A 
HETATM    2  C2  UNL     1       4.942   2.037 -12.253  1.00  0.00     0.038 A 
HETATM    3  C3  UNL     1       5.802   2.202 -11.176  1.00  0.00     0.065 A 
HETATM    4  C4  UNL     1       6.892   3.062 -11.266  1.00  0.00     0.038 A 
HETATM    5  C5  UNL     1       7.127   3.748 -12.461  1.00  0.00     0.026 A 
HETATM    6  C6  UNL     1       6.305   3.550 -13.576  1.00  0.00     0.005 A 
ENDROOT
BRANCH   6   7
HETATM    7  N1  UNL     1       6.477   4.329 -14.726  1.00  0.00    -0.303 NA
HETATM    8  H5  UNL     1       5.606   4.665 -15.124  1.00  0.00     0.124 HD
HETATM    9  H6  UNL     1       7.082   3.906 -15.421  1.00  0.00     0.124 HD
ENDBRANCH   6   7
BRANCH   3  10
HETATM   10  O1  UNL     1       5.533   1.514 -10.032  1.00  0.00    -0.361 OA
HETATM   11  H7  UNL     1       6.180   1.770  -9.356  1.00  0.00     0.217 HD
ENDBRANCH   3  10
TORSDOF 2
ENDMDL
MODEL 11
REMARK VINA RESULT:      -4.0      2.707      3.449
REMARK  2 active torsions:
REMARK  status: ('A' for Active; 'I' for Inactive)
REMARK    1  A    between atoms: C3_3  and  O1_8 
REMARK    2  A    between atoms: C6_6  and  N1_7 
ROOT
HETATM    1  C1  UNL     1       6.677   3.297 -12.964  1.00  0.00     0.026 A 
HETATM    2  C2  UNL     1       5.638   2.786 -13.745  1.00  0.00     0.038 A 
HETATM    3  C3  UNL     1       4.581   2.125 -13.137  1.00  0.00     0.065 A 
HETATM    4  C4  UNL     1       4.538   1.980 -11.754  1.00  0.00     0.038 A 
HETATM    5  C5  UNL     1       5.582   2.492 -10.979  1.00  0.00     0.026 A 
HETATM    6  C6  UNL     1       6.685   3.110 -11.578  1.00  0.00     0.005 A 
ENDROOT
BRANCH   6   7
HETATM    7  N1  UNL     1       7.664   3.724 -10.789  1.00  0.00    -0.303 NA
HETATM    8  H5  UNL     1       7.904   3.197  -9.954  1.00  0.00     0.124 HD
HETATM    9  H6  UNL     1       7.478   4.700 -10.589  1.00  0.00     0.124 HD
ENDBRANCH   6   7
BRANCH   3  10
HETATM   10  O1  UNL     1       3.586   1.644 -13.933  1.00  0.00    -0.361 OA
HETATM   11  H7  UNL     1       3.448   2.264 -14.667  1.00  0.00     0.217 HD
ENDBRANCH   3  10
TORSDOF 2
ENDMDL
MODEL 12
REMARK VINA RESULT:      -3.7      2.565      3.082
REMARK  2 active torsions:
REMARK  status: ('A' for Active; 'I' for Inactive)
REMARK    1  A    between atoms: C3_3  and  O1_8 
REMARK    2  A    between atoms: C6_6  and  N1_7 
ROOT
HETATM    1  C1  UNL     1       6.606   2.758 -11.877  1.00  0.00     0.026 A 
HETATM    2  C2  UNL     1       5.700   1.944 -11.192  1.00  0.00     0.038 A 
HETATM    3  C3  UNL     1       4.733   2.522 -10.382  1.00  0.00     0.065 A 
HETATM    4  C4  UNL     1       4.647   3.904 -10.257  1.00  0.00     0.038 A 
HETATM    5  C5  UNL     1       5.558   4.712 -10.944  1.00  0.00     0.026 A 
HETATM    6  C6  UNL     1       6.576   4.147 -11.719  1.00  0.00     0.005 A 
ENDROOT
BRANCH   6   7
HETATM    7  N1  UNL     1       7.406   4.964 -12.496  1.00  0.00    -0.303 NA
HETATM    8  H5  UNL     1       8.125   4.453 -12.999  1.00  0.00     0.124 HD
HETATM    9  H6  UNL     1       7.778   5.764 -11.997  1.00  0.00     0.124 HD
ENDBRANCH   6   7
BRANCH   3  10
HETATM   10  O1  UNL     1       3.867   1.694  -9.733  1.00  0.00    -0.361 OA
HETATM   11  H7  UNL     1       3.503   1.062 -10.374  1.00  0.00     0.217 HD
ENDBRANCH   3  10
TORSDOF 2
ENDMDL
MODEL 13
REMARK VINA RESULT:      -3.6      4.247      5.122
REMARK  2 active torsions:
REMARK  status: ('A' for Active; 'I' for Inactive)
REMARK    1  A    between atoms: C3_3  and  O1_8 
REMARK    2  A    between atoms: C6_6  and  N1_7 
ROOT
HETATM    1  C1  UNL     1       6.740   4.455 -12.583  1.00  0.00     0.026 A 
HETATM    2  C2  UNL     1       6.651   5.848 -12.540  1.00  0.00     0.038 A 
HETATM    3  C3  UNL     1       7.158   6.603 -13.588  1.00  0.00     0.065 A 
HETATM    4  C4  UNL     1       7.740   5.985 -14.689  1.00  0.00     0.038 A 
HETATM    5  C5  UNL     1       7.827   4.590 -14.725  1.00  0.00     0.026 A 
HETATM    6  C6  UNL     1       7.375   3.815 -13.652  1.00  0.00     0.005 A 
ENDROOT
BRANCH   6   7
HETATM    7  N1  UNL     1       7.358   2.419 -13.749  1.00  0.00    -0.303 NA
HETATM    8  H5  UNL     1       6.710   1.973 -13.107  1.00  0.00     0.124 HD
HETATM    9  H6  UNL     1       8.279   1.994 -13.725  1.00  0.00     0.124 HD
ENDBRANCH   6   7
BRANCH   3  10
HETATM   10  O1  UNL     1       7.049   7.959 -13.509  1.00  0.00    -0.361 OA
HETATM   11  H7  UNL     1       7.936   8.346 -13.581  1.00  0.00     0.217 HD
ENDBRANCH   3  10
TORSDOF 2
ENDMDL
MODEL 14
REMARK VINA RESULT:      -2.0      7.875      8.876
REMARK  2 active torsions:
REMARK  status: ('A' for Active; 'I' for Inactive)
REMARK    1  A    between atoms: C3_3  and  O1_8 
REMARK    2  A    between atoms: C6_6  and  N1_7 
ROOT
HETATM    1  C1  UNL     1      -1.369  -0.498  -5.738  1.00  0.00     0.026 A 
HETATM    2  C2  UNL     1      -2.070  -1.681  -5.982  1.00  0.00     0.038 A 
HETATM    3  C3  UNL     1      -1.813  -2.409  -7.135  1.00  0.00     0.065 A 
HETATM    4  C4  UNL     1      -0.850  -1.980  -8.042  1.00  0.00     0.038 A 
HETATM    5  C5  UNL     1      -0.153  -0.794  -7.792  1.00  0.00     0.026 A 
HETATM    6  C6  UNL     1      -0.440  -0.017  -6.666  1.00  0.00     0.005 A 
ENDROOT
BRANCH   6   7
HETATM    7  N1  UNL     1       0.344   1.102  -6.364  1.00  0.00    -0.303 NA
HETATM    8  H5  UNL     1       0.050   1.948  -6.843  1.00  0.00     0.124 HD
HETATM    9  H6  UNL     1       1.342   0.939  -6.446  1.00  0.00     0.124 HD
ENDBRANCH   6   7
BRANCH   3  10
HETATM   10  O1  UNL     1      -2.516  -3.559  -7.335  1.00  0.00    -0.361 OA
HETATM   11  H7  UNL     1      -2.422  -4.120  -6.548  1.00  0.00     0.217 HD
ENDBRANCH   3  10
TORSDOF 2
ENDMDL
MODEL 15
REMARK VINA RESULT:      -1.9      7.764      8.788
REMARK  2 active torsions:
REMARK  status: ('A' for Active; 'I' for Inactive)
REMARK    1  A    between atoms: C3_3  and  O1_8 
REMARK    2  A    between atoms: C6_6  and  N1_7 
ROOT
HETATM    1  C1  UNL     1      -0.797  -1.834  -8.001  1.00  0.00     0.026 A 
HETATM    2  C2  UNL     1      -0.093  -0.650  -7.771  1.00  0.00     0.038 A 
HETATM    3  C3  UNL     1      -0.350   0.092  -6.627  1.00  0.00     0.065 A 
HETATM    4  C4  UNL     1      -1.291  -0.341  -5.699  1.00  0.00     0.038 A 
HETATM    5  C5  UNL     1      -1.993  -1.527  -5.936  1.00  0.00     0.026 A 
HETATM    6  C6  UNL     1      -1.790  -2.257  -7.111  1.00  0.00     0.005 A 
ENDROOT
BRANCH   6   7
HETATM    7  N1  UNL     1      -2.408  -3.501  -7.284  1.00  0.00    -0.303 NA
HETATM    8  H5  UNL     1      -2.710  -3.678  -8.237  1.00  0.00     0.124 HD
HETATM    9  H6  UNL     1      -3.137  -3.695  -6.605  1.00  0.00     0.124 HD
ENDBRANCH   6   7
BRANCH   3  10
HETATM   10  O1  UNL     1       0.359   1.240  -6.437  1.00  0.00    -0.361 OA
HETATM   11  H7  UNL     1       0.709   1.533  -7.294  1.00  0.00     0.217 HD
ENDBRANCH   3  10
TORSDOF 2
ENDMDL
MODEL 16
REMARK VINA RESULT:      -1.1      3.732      4.138
REMARK  2 active torsions:
REMARK  status: ('A' for Active; 'I' for Inactive)
REMARK    1  A    between atoms: C3_3  and  O1_8 
REMARK    2  A    between atoms: C6_6  and  N1_7 
ROOT
HETATM    1  C1  UNL     1       4.478   1.434 -12.733  1.00  0.00     0.026 A 
HETATM    2  C2  UNL     1       3.663   0.697 -13.594  1.00  0.00     0.038 A 
HETATM    3  C3  UNL     1       2.382   1.146 -13.882  1.00  0.00     0.065 A 
HETATM    4  C4  UNL     1       1.908   2.332 -13.333  1.00  0.00     0.038 A 
HETATM    5  C5  UNL     1       2.730   3.065 -12.470  1.00  0.00     0.026 A 
HETATM    6  C6  UNL     1       4.001   2.598 -12.122  1.00  0.00     0.005 A 
ENDROOT
BRANCH   6   7
HETATM    7  N1  UNL     1       4.859   3.395 -11.355  1.00  0.00    -0.303 NA
HETATM    8  H5  UNL     1       4.927   4.353 -11.683  1.00  0.00     0.124 HD
HETATM    9  H6  UNL     1       5.769   2.977 -11.190  1.00  0.00     0.124 HD
ENDBRANCH   6   7
BRANCH   3  10
HETATM   10  O1  UNL     1       1.619   0.400 -14.729  1.00  0.00    -0.361 OA
HETATM   11  H7  UNL     1       1.915  -0.523 -14.681  1.00  0.00     0.217 HD
ENDBRANCH   3  10
TORSDOF 2
ENDMDL
MODEL 17
REMARK VINA RESULT:      -1.0      8.095      9.112
REMARK  2 active torsions:
REMARK  status: ('A' for Active; 'I' for Inactive)
REMARK    1  A    between atoms: C3_3  and  O1_8 
REMARK    2  A    between atoms: C6_6  and  N1_7 
ROOT
HETATM    1  C1  UNL     1      -1.621  -2.540  -7.573  1.00  0.00     0.026 A 
HETATM    2  C2  UNL     1      -2.104  -2.131  -6.328  1.00  0.00     0.038 A 
HETATM    3  C3  UNL     1      -1.650  -0.944  -5.770  1.00  0.00     0.065 A 
HETATM    4  C4  UNL     1      -0.731  -0.150  -6.447  1.00  0.00     0.038 A 
HETATM    5  C5  UNL     1      -0.251  -0.566  -7.692  1.00  0.00     0.026 A 
HETATM    6  C6  UNL     1      -0.652  -1.788  -8.244  1.00  0.00     0.005 A 
ENDROOT
BRANCH   6   7
HETATM    7  N1  UNL     1      -0.260  -2.138  -9.541  1.00  0.00    -0.303 NA
HETATM    8  H5  UNL     1       0.207  -1.389 -10.042  1.00  0.00     0.124 HD
HETATM    9  H6  UNL     1      -0.995  -2.571 -10.089  1.00  0.00     0.124 HD
ENDBRANCH   6   7
BRANCH   3  10
HETATM   10  O1  UNL     1      -2.147  -0.578  -4.556  1.00  0.00    -0.361 OA
HETATM   11  H7  UNL     1      -1.972  -1.291  -3.921  1.00  0.00     0.217 HD
ENDBRANCH   3  10
TORSDOF 2
ENDMDL
MODEL 18
REMARK VINA RESULT:      -0.8      7.682      8.604
REMARK  2 active torsions:
REMARK  status: ('A' for Active; 'I' for Inactive)
REMARK    1  A    between atoms: C3_3  and  O1_8 
REMARK    2  A    between atoms: C6_6  and  N1_7 
ROOT
HETATM    1  C1  UNL     1      -2.068  -2.286  -6.472  1.00  0.00     0.026 A 
HETATM    2  C2  UNL     1      -1.541  -2.639  -7.717  1.00  0.00     0.038 A 
HETATM    3  C3  UNL     1      -0.648  -1.788  -8.352  1.00  0.00     0.065 A 
HETATM    4  C4  UNL     1      -0.258  -0.595  -7.752  1.00  0.00     0.038 A 
HETATM    5  C5  UNL     1      -0.790  -0.249  -6.507  1.00  0.00     0.026 A 
HETATM    6  C6  UNL     1      -1.737  -1.064  -5.879  1.00  0.00     0.005 A 
ENDROOT
BRANCH   6   7
HETATM    7  N1  UNL     1      -2.172  -0.769  -4.582  1.00  0.00    -0.303 NA
HETATM    8  H5  UNL     1      -2.142   0.221  -4.357  1.00  0.00     0.124 HD
HETATM    9  H6  UNL     1      -1.741  -1.341  -3.864  1.00  0.00     0.124 HD
ENDBRANCH   6   7
BRANCH   3  10
HETATM   10  O1  UNL     1      -0.154  -2.169  -9.563  1.00  0.00    -0.361 OA
HETATM   11  H7  UNL     1       0.012  -3.125  -9.543  1.00  0.00     0.217 HD
ENDBRANCH   3  10
TORSDOF 2
ENDMDL
