MODEL 1
REMARK VINA RESULT:      -6.0      0.000      0.000
REMARK  27 active torsions:
REMARK  status: ('A' for Active; 'I' for Inactive)
REMARK    1  A    between atoms: C2_2  and  S1_4 
REMARK    2  A    between atoms: S1_4  and  C3_5 
REMARK    3  A    between atoms: C3_5  and  C4_6 
REMARK    4  A    between atoms: C4_6  and  N1_7 
REMARK       I    between atoms: N1_7  and  C5_8 
REMARK    5  A    between atoms: C5_8  and  C6_10 
REMARK    6  A    between atoms: C6_10  and  C7_11 
REMARK    7  A    between atoms: C7_11  and  N2_12 
REMARK       I    between atoms: N2_12  and  C8_13 
REMARK    8  A    between atoms: C8_13  and  C9_15 
REMARK    9  A    between atoms: C9_15  and  C10_16 
REMARK   10  A    between atoms: C9_15  and  O17_54 
REMARK   11  A    between atoms: C10_16  and  C13_19 
REMARK   12  A    between atoms: C13_19  and  O4_20 
REMARK   13  A    between atoms: O4_20  and  P1_21 
REMARK   14  A    between atoms: P1_21  and  O6_23 
REMARK   15  A    between atoms: P1_21  and  O7_24 
REMARK   16  A    between atoms: O7_24  and  P2_25 
REMARK   17  A    between atoms: P2_25  and  O9_27 
REMARK   18  A    between atoms: P2_25  and  O10_28 
REMARK   19  A    between atoms: O10_28  and  C14_29 
REMARK   20  A    between atoms: C14_29  and  C15_30 
REMARK   21  A    between atoms: C16_31  and  O13_49 
REMARK   22  A    between atoms: C17_32  and  O12_48 
REMARK   23  A    between atoms: C18_33  and  N3_35 
REMARK   24  A    between atoms: C21_40  and  N7_47 
REMARK   25  A    between atoms: O13_49  and  P3_50 
REMARK   26  A    between atoms: P3_50  and  O15_52 
REMARK   27  A    between atoms: P3_50  and  O16_53 
ROOT
HETATM    1  C1  UNL     1       3.234   3.917 -20.631  1.00  0.00     0.104 C 
HETATM    2  C2  UNL     1       3.034   4.027 -19.150  1.00  0.00     0.182 C 
HETATM    3  O1  UNL     1       3.962   4.069 -18.346  1.00  0.00    -0.286 OA
ENDROOT
BRANCH   2   4
HETATM    4  S1  UNL     1       1.350   4.052 -18.645  1.00  0.00    -0.091 SA
BRANCH   4   5
HETATM    5  C3  UNL     1       1.011   5.840 -18.740  1.00  0.00     0.102 C 
BRANCH   5   6
HETATM    6  C4  UNL     1       0.811   6.456 -17.354  1.00  0.00     0.133 C 
BRANCH   6   7
HETATM    7  N1  UNL     1       0.650   7.895 -17.399  1.00  0.00    -0.360 N 
HETATM    8  C5  UNL     1      -0.591   8.486 -17.354  1.00  0.00     0.219 C 
HETATM    9  O2  UNL     1      -1.632   7.838 -17.354  1.00  0.00    -0.274 OA
HETATM   10  H8  UNL     1       1.476   8.475 -17.458  1.00  0.00     0.162 HD
BRANCH   8  11
HETATM   11  C6  UNL     1      -0.535   9.998 -17.357  1.00  0.00     0.122 C 
BRANCH  11  12
HETATM   12  C7  UNL     1       0.292  10.541 -16.192  1.00  0.00     0.132 C 
BRANCH  12  13
HETATM   13  N2  UNL     1       1.368  11.411 -16.617  1.00  0.00    -0.358 N 
HETATM   14  C8  UNL     1       2.647  10.911 -16.777  1.00  0.00     0.247 C 
HETATM   15  O3  UNL     1       2.943   9.766 -16.460  1.00  0.00    -0.271 OA
HETATM   16  H13 UNL     1       1.093  12.188 -17.216  1.00  0.00     0.162 HD
BRANCH  14  17
HETATM   17  C9  UNL     1       3.650  11.894 -17.400  1.00  0.00     0.219 C 
BRANCH  17  18
HETATM   18  C10 UNL     1       4.170  12.984 -16.427  1.00  0.00     0.009 C 
HETATM   19  C11 UNL     1       3.434  14.320 -16.607  1.00  0.00     0.020 C 
HETATM   20  C12 UNL     1       4.013  12.550 -14.955  1.00  0.00     0.020 C 
BRANCH  18  21
HETATM   21  C13 UNL     1       5.678  13.169 -16.760  1.00  0.00     0.192 C 
BRANCH  21  22
HETATM   22  O4  UNL     1       6.517  12.446 -15.883  1.00  0.00    -0.296 OA
BRANCH  22  23
HETATM   23  P1  UNL     1       7.919  11.817 -16.339  1.00  0.00     0.401 P 
HETATM   24  O5  UNL     1       8.997  12.829 -16.572  1.00  0.00    -0.631 OA
BRANCH  23  25
HETATM   25  O6  UNL     1       7.618  10.884 -17.616  1.00  0.00    -0.307 OA
HETATM   26  H23 UNL     1       6.697  10.595 -17.643  1.00  0.00     0.222 HD
ENDBRANCH  23  25
BRANCH  23  27
HETATM   27  O7  UNL     1       8.260  10.726 -15.233  1.00  0.00    -0.195 OA
BRANCH  27  28
HETATM   28  P2  UNL     1       7.063  10.008 -14.465  1.00  0.00     0.401 P 
HETATM   29  O8  UNL     1       6.587  10.651 -13.203  1.00  0.00    -0.631 OA
BRANCH  28  30
HETATM   30  O9  UNL     1       5.938   9.868 -15.589  1.00  0.00    -0.307 OA
HETATM   31  H24 UNL     1       5.392  10.682 -15.717  1.00  0.00     0.222 HD
ENDBRANCH  28  30
BRANCH  28  32
HETATM   32  O10 UNL     1       7.541   8.490 -14.337  1.00  0.00    -0.294 OA
BRANCH  32  33
HETATM   33  C14 UNL     1       8.634   8.032 -15.090  1.00  0.00     0.215 C 
BRANCH  33  34
HETATM   34  C15 UNL     1       8.239   6.655 -15.621  1.00  0.00     0.180 C 
HETATM   35  C16 UNL     1       6.759   6.647 -15.982  1.00  0.00     0.197 C 
HETATM   36  C17 UNL     1       6.145   5.610 -15.061  1.00  0.00     0.199 C 
HETATM   37  C18 UNL     1       7.338   4.702 -14.756  1.00  0.00     0.262 C 
HETATM   38  O11 UNL     1       8.462   5.605 -14.673  1.00  0.00    -0.353 OA
BRANCH  35  39
HETATM   39  O13 UNL     1       6.642   6.284 -17.354  1.00  0.00    -0.286 OA
BRANCH  39  40
HETATM   40  P3  UNL     1       5.751   7.261 -18.252  1.00  0.00     0.391 P 
HETATM   41  O14 UNL     1       6.300   8.647 -18.360  1.00  0.00    -0.632 OA
BRANCH  40  42
HETATM   42  O15 UNL     1       4.320   7.083 -17.560  1.00  0.00    -0.307 OA
HETATM   43  H36 UNL     1       4.353   6.382 -16.866  1.00  0.00     0.222 HD
ENDBRANCH  40  42
BRANCH  40  44
HETATM   44  O16 UNL     1       5.612   6.418 -19.593  1.00  0.00    -0.307 OA
HETATM   45  H37 UNL     1       4.945   6.779 -20.198  1.00  0.00     0.222 HD
ENDBRANCH  40  44
ENDBRANCH  39  40
ENDBRANCH  35  39
BRANCH  36  46
HETATM   46  O12 UNL     1       5.004   5.010 -15.681  1.00  0.00    -0.388 OA
HETATM   47  H35 UNL     1       5.209   4.953 -16.645  1.00  0.00     0.210 HD
ENDBRANCH  36  46
BRANCH  37  48
HETATM   48  N3  UNL     1       7.201   4.010 -13.490  1.00  0.00    -0.297 N 
HETATM   49  C19 UNL     1       8.003   4.142 -12.380  1.00  0.00     0.188 A 
HETATM   50  N4  UNL     1       7.539   3.472 -11.348  1.00  0.00    -0.346 N 
HETATM   51  C20 UNL     1       6.377   2.881 -11.809  1.00  0.00     0.116 A 
HETATM   52  H4  UNL     1       7.946   3.404 -10.415  1.00  0.00     0.167 HD
HETATM   53  C21 UNL     1       5.404   2.078 -11.188  1.00  0.00     0.109 A 
HETATM   54  C23 UNL     1       6.176   3.174 -13.146  1.00  0.00     0.142 A 
HETATM   55  N5  UNL     1       4.360   1.634 -11.928  1.00  0.00    -0.341 N 
HETATM   56  C22 UNL     1       4.307   1.980 -13.230  1.00  0.00     0.183 A 
HETATM   57  H5  UNL     1       3.633   1.052 -11.511  1.00  0.00     0.167 HD
HETATM   58  N6  UNL     1       5.169   2.747 -13.928  1.00  0.00    -0.336 N 
HETATM   59  H6  UNL     1       5.071   2.973 -14.918  1.00  0.00     0.168 HD
BRANCH  53  60
HETATM   60  N7  UNL     1       5.462   1.706  -9.854  1.00  0.00    -0.287 NA
HETATM   61  H33 UNL     1       6.011   0.868  -9.676  1.00  0.00     0.125 HD
HETATM   62  H34 UNL     1       4.567   1.772  -9.387  1.00  0.00     0.125 HD
ENDBRANCH  53  60
ENDBRANCH  37  48
ENDBRANCH  33  34
ENDBRANCH  32  33
ENDBRANCH  28  32
ENDBRANCH  27  28
ENDBRANCH  23  27
ENDBRANCH  22  23
ENDBRANCH  21  22
ENDBRANCH  18  21
ENDBRANCH  17  18
BRANCH  17  63
HETATM   63  O17 UNL     1       4.774  11.182 -17.928  1.00  0.00    -0.385 OA
HETATM   64  H38 UNL     1       4.521  10.249 -18.029  1.00  0.00     0.210 HD
ENDBRANCH  17  63
ENDBRANCH  14  17
ENDBRANCH  12  13
ENDBRANCH  11  12
ENDBRANCH   8  11
ENDBRANCH   6   7
ENDBRANCH   5   6
ENDBRANCH   4   5
ENDBRANCH   2   4
TORSDOF 27
ENDMDL
MODEL 2
REMARK VINA RESULT:      -5.6      3.731      6.271
REMARK  27 active torsions:
REMARK  status: ('A' for Active; 'I' for Inactive)
REMARK    1  A    between atoms: C2_2  and  S1_4 
REMARK    2  A    between atoms: S1_4  and  C3_5 
REMARK    3  A    between atoms: C3_5  and  C4_6 
REMARK    4  A    between atoms: C4_6  and  N1_7 
REMARK       I    between atoms: N1_7  and  C5_8 
REMARK    5  A    between atoms: C5_8  and  C6_10 
REMARK    6  A    between atoms: C6_10  and  C7_11 
REMARK    7  A    between atoms: C7_11  and  N2_12 
REMARK       I    between atoms: N2_12  and  C8_13 
REMARK    8  A    between atoms: C8_13  and  C9_15 
REMARK    9  A    between atoms: C9_15  and  C10_16 
REMARK   10  A    between atoms: C9_15  and  O17_54 
REMARK   11  A    between atoms: C10_16  and  C13_19 
REMARK   12  A    between atoms: C13_19  and  O4_20 
REMARK   13  A    between atoms: O4_20  and  P1_21 
REMARK   14  A    between atoms: P1_21  and  O6_23 
REMARK   15  A    between atoms: P1_21  and  O7_24 
REMARK   16  A    between atoms: O7_24  and  P2_25 
REMARK   17  A    between atoms: P2_25  and  O9_27 
REMARK   18  A    between atoms: P2_25  and  O10_28 
REMARK   19  A    between atoms: O10_28  and  C14_29 
REMARK   20  A    between atoms: C14_29  and  C15_30 
REMARK   21  A    between atoms: C16_31  and  O13_49 
REMARK   22  A    between atoms: C17_32  and  O12_48 
REMARK   23  A    between atoms: C18_33  and  N3_35 
REMARK   24  A    between atoms: C21_40  and  N7_47 
REMARK   25  A    between atoms: O13_49  and  P3_50 
REMARK   26  A    between atoms: P3_50  and  O15_52 
REMARK   27  A    between atoms: P3_50  and  O16_53 
ROOT
HETATM    1  C1  UNL     1      -9.054   8.078 -12.421  1.00  0.00     0.104 C 
HETATM    2  C2  UNL     1      -8.071   7.709 -11.352  1.00  0.00     0.182 C 
HETATM    3  O1  UNL     1      -8.404   7.342 -10.227  1.00  0.00    -0.286 OA
ENDROOT
BRANCH   2   4
HETATM    4  S1  UNL     1      -6.386   7.882 -11.824  1.00  0.00    -0.091 SA
BRANCH   4   5
HETATM    5  C3  UNL     1      -6.161   6.352 -12.788  1.00  0.00     0.102 C 
BRANCH   5   6
HETATM    6  C4  UNL     1      -5.240   6.567 -13.990  1.00  0.00     0.133 C 
BRANCH   6   7
HETATM    7  N1  UNL     1      -3.912   6.999 -13.607  1.00  0.00    -0.360 N 
HETATM    8  C5  UNL     1      -2.976   7.377 -14.542  1.00  0.00     0.219 C 
HETATM    9  O2  UNL     1      -3.177   7.297 -15.748  1.00  0.00    -0.274 OA
HETATM   10  H8  UNL     1      -3.674   7.028 -12.625  1.00  0.00     0.162 HD
BRANCH   8  11
HETATM   11  C6  UNL     1      -1.674   7.846 -13.930  1.00  0.00     0.122 C 
BRANCH  11  12
HETATM   12  C7  UNL     1      -0.960   8.865 -14.817  1.00  0.00     0.132 C 
BRANCH  12  13
HETATM   13  N2  UNL     1       0.021   8.263 -15.696  1.00  0.00    -0.358 N 
HETATM   14  C8  UNL     1      -0.022   8.504 -17.057  1.00  0.00     0.247 C 
HETATM   15  O3  UNL     1      -0.939   9.123 -17.581  1.00  0.00    -0.271 OA
HETATM   16  H13 UNL     1       0.936   8.095 -15.281  1.00  0.00     0.162 HD
BRANCH  14  17
HETATM   17  C9  UNL     1       1.175   7.953 -17.846  1.00  0.00     0.219 C 
BRANCH  17  18
HETATM   18  C10 UNL     1       0.952   6.541 -18.449  1.00  0.00     0.009 C 
HETATM   19  C11 UNL     1      -0.519   6.107 -18.377  1.00  0.00     0.020 C 
HETATM   20  C12 UNL     1       1.394   6.481 -19.926  1.00  0.00     0.020 C 
BRANCH  18  21
HETATM   21  C13 UNL     1       1.825   5.572 -17.601  1.00  0.00     0.192 C 
BRANCH  21  22
HETATM   22  O4  UNL     1       3.190   5.938 -17.601  1.00  0.00    -0.296 OA
BRANCH  22  23
HETATM   23  P1  UNL     1       4.342   5.001 -18.207  1.00  0.00     0.401 P 
HETATM   24  O5  UNL     1       3.832   3.818 -18.968  1.00  0.00    -0.631 OA
BRANCH  23  25
HETATM   25  O6  UNL     1       5.320   4.617 -16.987  1.00  0.00    -0.307 OA
HETATM   26  H23 UNL     1       5.031   3.816 -16.531  1.00  0.00     0.222 HD
ENDBRANCH  23  25
BRANCH  23  27
HETATM   27  O7  UNL     1       5.269   5.983 -19.048  1.00  0.00    -0.195 OA
BRANCH  27  28
HETATM   28  P2  UNL     1       5.814   7.310 -18.355  1.00  0.00     0.401 P 
HETATM   29  O8  UNL     1       6.850   8.086 -19.101  1.00  0.00    -0.631 OA
BRANCH  28  30
HETATM   30  O9  UNL     1       4.482   8.134 -18.044  1.00  0.00    -0.307 OA
HETATM   31  H24 UNL     1       3.879   8.235 -18.820  1.00  0.00     0.222 HD
ENDBRANCH  28  30
BRANCH  28  32
HETATM   32  O10 UNL     1       6.219   6.839 -16.884  1.00  0.00    -0.294 OA
BRANCH  32  33
HETATM   33  C14 UNL     1       6.027   7.701 -15.793  1.00  0.00     0.215 C 
BRANCH  33  34
HETATM   34  C15 UNL     1       7.065   7.301 -14.746  1.00  0.00     0.180 C 
HETATM   35  C16 UNL     1       8.239   6.606 -15.422  1.00  0.00     0.197 C 
HETATM   36  C17 UNL     1       8.246   5.206 -14.836  1.00  0.00     0.199 C 
HETATM   37  C18 UNL     1       7.559   5.418 -13.485  1.00  0.00     0.262 C 
HETATM   38  O11 UNL     1       6.543   6.409 -13.754  1.00  0.00    -0.353 OA
BRANCH  35  39
HETATM   39  O13 UNL     1       9.423   7.328 -15.102  1.00  0.00    -0.286 OA
BRANCH  39  40
HETATM   40  P3  UNL     1      10.291   7.817 -16.353  1.00  0.00     0.391 P 
HETATM   41  O14 UNL     1      11.008   9.108 -16.121  1.00  0.00    -0.632 OA
BRANCH  40  42
HETATM   42  O15 UNL     1       9.192   7.778 -17.514  1.00  0.00    -0.307 OA
HETATM   43  H36 UNL     1       9.596   8.003 -18.385  1.00  0.00     0.222 HD
ENDBRANCH  40  42
BRANCH  40  44
HETATM   44  O16 UNL     1      11.174   6.527 -16.647  1.00  0.00    -0.307 OA
HETATM   45  H37 UNL     1      11.372   6.016 -15.846  1.00  0.00     0.222 HD
ENDBRANCH  40  44
ENDBRANCH  39  40
ENDBRANCH  35  39
BRANCH  36  46
HETATM   46  O12 UNL     1       9.577   4.682 -14.821  1.00  0.00    -0.388 OA
HETATM   47  H35 UNL     1      10.090   5.246 -14.195  1.00  0.00     0.210 HD
ENDBRANCH  36  46
BRANCH  37  48
HETATM   48  N3  UNL     1       6.919   4.216 -12.992  1.00  0.00    -0.297 N 
HETATM   49  C19 UNL     1       7.030   2.944 -13.505  1.00  0.00     0.188 A 
HETATM   50  N4  UNL     1       6.426   2.049 -12.754  1.00  0.00    -0.346 N 
HETATM   51  C20 UNL     1       5.901   2.775 -11.699  1.00  0.00     0.116 A 
HETATM   52  H4  UNL     1       6.359   1.044 -12.914  1.00  0.00     0.167 HD
HETATM   53  C21 UNL     1       5.187   2.402 -10.548  1.00  0.00     0.109 A 
HETATM   54  C23 UNL     1       6.166   4.124 -11.855  1.00  0.00     0.142 A 
HETATM   55  N5  UNL     1       4.793   3.371  -9.686  1.00  0.00    -0.341 N 
HETATM   56  C22 UNL     1       5.101   4.649  -9.979  1.00  0.00     0.183 A 
HETATM   57  H5  UNL     1       4.276   3.138  -8.838  1.00  0.00     0.167 HD
HETATM   58  N6  UNL     1       5.784   5.124 -11.041  1.00  0.00    -0.336 N 
HETATM   59  H6  UNL     1       5.986   6.111 -11.205  1.00  0.00     0.168 HD
BRANCH  53  60
HETATM   60  N7  UNL     1       4.854   1.090 -10.249  1.00  0.00    -0.287 NA
HETATM   61  H33 UNL     1       3.995   0.765 -10.688  1.00  0.00     0.125 HD
HETATM   62  H34 UNL     1       4.981   0.863  -9.272  1.00  0.00     0.125 HD
ENDBRANCH  53  60
ENDBRANCH  37  48
ENDBRANCH  33  34
ENDBRANCH  32  33
ENDBRANCH  28  32
ENDBRANCH  27  28
ENDBRANCH  23  27
ENDBRANCH  22  23
ENDBRANCH  21  22
ENDBRANCH  18  21
ENDBRANCH  17  18
BRANCH  17  63
HETATM   63  O17 UNL     1       1.521   8.851 -18.907  1.00  0.00    -0.385 OA
HETATM   64  H38 UNL     1       2.271   9.393 -18.610  1.00  0.00     0.210 HD
ENDBRANCH  17  63
ENDBRANCH  14  17
ENDBRANCH  12  13
ENDBRANCH  11  12
ENDBRANCH   8  11
ENDBRANCH   6   7
ENDBRANCH   5   6
ENDBRANCH   4   5
ENDBRANCH   2   4
TORSDOF 27
ENDMDL
MODEL 3
REMARK VINA RESULT:      -5.5      2.406      7.740
REMARK  27 active torsions:
REMARK  status: ('A' for Active; 'I' for Inactive)
REMARK    1  A    between atoms: C2_2  and  S1_4 
REMARK    2  A    between atoms: S1_4  and  C3_5 
REMARK    3  A    between atoms: C3_5  and  C4_6 
REMARK    4  A    between atoms: C4_6  and  N1_7 
REMARK       I    between atoms: N1_7  and  C5_8 
REMARK    5  A    between atoms: C5_8  and  C6_10 
REMARK    6  A    between atoms: C6_10  and  C7_11 
REMARK    7  A    between atoms: C7_11  and  N2_12 
REMARK       I    between atoms: N2_12  and  C8_13 
REMARK    8  A    between atoms: C8_13  and  C9_15 
REMARK    9  A    between atoms: C9_15  and  C10_16 
REMARK   10  A    between atoms: C9_15  and  O17_54 
REMARK   11  A    between atoms: C10_16  and  C13_19 
REMARK   12  A    between atoms: C13_19  and  O4_20 
REMARK   13  A    between atoms: O4_20  and  P1_21 
REMARK   14  A    between atoms: P1_21  and  O6_23 
REMARK   15  A    between atoms: P1_21  and  O7_24 
REMARK   16  A    between atoms: O7_24  and  P2_25 
REMARK   17  A    between atoms: P2_25  and  O9_27 
REMARK   18  A    between atoms: P2_25  and  O10_28 
REMARK   19  A    between atoms: O10_28  and  C14_29 
REMARK   20  A    between atoms: C14_29  and  C15_30 
REMARK   21  A    between atoms: C16_31  and  O13_49 
REMARK   22  A    between atoms: C17_32  and  O12_48 
REMARK   23  A    between atoms: C18_33  and  N3_35 
REMARK   24  A    between atoms: C21_40  and  N7_47 
REMARK   25  A    between atoms: O13_49  and  P3_50 
REMARK   26  A    between atoms: P3_50  and  O15_52 
REMARK   27  A    between atoms: P3_50  and  O16_53 
ROOT
HETATM    1  C1  UNL     1       1.428   3.050 -20.187  1.00  0.00     0.104 C 
HETATM    2  C2  UNL     1       1.737   2.337 -18.906  1.00  0.00     0.182 C 
HETATM    3  O1  UNL     1       2.257   2.885 -17.937  1.00  0.00    -0.286 OA
ENDROOT
BRANCH   2   4
HETATM    4  S1  UNL     1       1.329   0.626 -18.912  1.00  0.00    -0.091 SA
BRANCH   4   5
HETATM    5  C3  UNL     1       0.386   0.513 -17.358  1.00  0.00     0.102 C 
BRANCH   5   6
HETATM    6  C4  UNL     1       1.257   0.033 -16.196  1.00  0.00     0.133 C 
BRANCH   6   7
HETATM    7  N1  UNL     1       1.675   1.113 -15.326  1.00  0.00    -0.360 N 
HETATM    8  C5  UNL     1       2.658   0.942 -14.379  1.00  0.00     0.219 C 
HETATM    9  O2  UNL     1       3.179  -0.145 -14.159  1.00  0.00    -0.274 OA
HETATM   10  H8  UNL     1       1.233   2.018 -15.427  1.00  0.00     0.162 HD
BRANCH   8  11
HETATM   11  C6  UNL     1       2.981   2.208 -13.616  1.00  0.00     0.122 C 
BRANCH  11  12
HETATM   12  C7  UNL     1       3.863   1.931 -12.399  1.00  0.00     0.132 C 
BRANCH  12  13
HETATM   13  N2  UNL     1       4.830   2.979 -12.148  1.00  0.00    -0.358 N 
HETATM   14  C8  UNL     1       6.025   3.005 -12.843  1.00  0.00     0.247 C 
HETATM   15  O3  UNL     1       6.362   2.099 -13.595  1.00  0.00    -0.271 OA
HETATM   16  H13 UNL     1       4.441   3.874 -11.857  1.00  0.00     0.162 HD
BRANCH  14  17
HETATM   17  C9  UNL     1       6.878   4.261 -12.612  1.00  0.00     0.219 C 
BRANCH  17  18
HETATM   18  C10 UNL     1       7.170   5.085 -13.894  1.00  0.00     0.009 C 
HETATM   19  C11 UNL     1       8.462   4.632 -14.590  1.00  0.00     0.020 C 
HETATM   20  C12 UNL     1       6.018   4.973 -14.913  1.00  0.00     0.020 C 
BRANCH  18  21
HETATM   21  C13 UNL     1       7.317   6.562 -13.428  1.00  0.00     0.192 C 
BRANCH  21  22
HETATM   22  O4  UNL     1       7.070   7.482 -14.472  1.00  0.00    -0.296 OA
BRANCH  22  23
HETATM   23  P1  UNL     1       8.015   8.744 -14.762  1.00  0.00     0.401 P 
HETATM   24  O5  UNL     1       9.479   8.434 -14.725  1.00  0.00    -0.631 OA
BRANCH  23  25
HETATM   25  O6  UNL     1       7.571   9.904 -13.737  1.00  0.00    -0.307 OA
HETATM   26  H23 UNL     1       6.623  10.079 -13.779  1.00  0.00     0.222 HD
ENDBRANCH  23  25
BRANCH  23  27
HETATM   27  O7  UNL     1       7.497   9.338 -16.144  1.00  0.00    -0.195 OA
BRANCH  27  28
HETATM   28  P2  UNL     1       7.559   8.423 -17.446  1.00  0.00     0.401 P 
HETATM   29  O8  UNL     1       7.970   9.086 -18.720  1.00  0.00    -0.631 OA
BRANCH  28  30
HETATM   30  O9  UNL     1       8.508   7.218 -17.003  1.00  0.00    -0.307 OA
HETATM   31  H24 UNL     1       9.403   7.502 -16.692  1.00  0.00     0.222 HD
ENDBRANCH  28  30
BRANCH  28  32
HETATM   32  O10 UNL     1       6.142   7.686 -17.469  1.00  0.00    -0.294 OA
BRANCH  32  33
HETATM   33  C14 UNL     1       4.966   8.419 -17.244  1.00  0.00     0.215 C 
BRANCH  33  34
HETATM   34  C15 UNL     1       3.818   7.413 -17.307  1.00  0.00     0.180 C 
HETATM   35  C16 UNL     1       3.589   6.983 -18.750  1.00  0.00     0.197 C 
HETATM   36  C17 UNL     1       2.178   7.440 -19.069  1.00  0.00     0.199 C 
HETATM   37  C18 UNL     1       1.530   7.478 -17.683  1.00  0.00     0.262 C 
HETATM   38  O11 UNL     1       2.583   7.942 -16.810  1.00  0.00    -0.353 OA
BRANCH  35  39
HETATM   39  O13 UNL     1       3.722   5.567 -18.814  1.00  0.00    -0.286 OA
BRANCH  39  40
HETATM   40  P3  UNL     1       5.042   5.030 -19.539  1.00  0.00     0.391 P 
HETATM   41  O14 UNL     1       4.784   3.950 -20.540  1.00  0.00    -0.632 OA
BRANCH  40  42
HETATM   42  O15 UNL     1       5.952   4.666 -18.275  1.00  0.00    -0.307 OA
HETATM   43  H36 UNL     1       5.734   3.765 -17.937  1.00  0.00     0.222 HD
ENDBRANCH  40  42
BRANCH  40  44
HETATM   44  O16 UNL     1       5.684   6.386 -20.068  1.00  0.00    -0.307 OA
HETATM   45  H37 UNL     1       6.654   6.380 -20.038  1.00  0.00     0.222 HD
ENDBRANCH  40  44
ENDBRANCH  39  40
ENDBRANCH  35  39
BRANCH  36  46
HETATM   46  O12 UNL     1       1.588   6.579 -20.047  1.00  0.00    -0.388 OA
HETATM   47  H35 UNL     1       0.777   6.201 -19.630  1.00  0.00     0.210 HD
ENDBRANCH  36  46
BRANCH  37  48
HETATM   48  N3  UNL     1       0.422   8.408 -17.613  1.00  0.00    -0.297 N 
HETATM   49  C19 UNL     1      -0.909   8.104 -17.446  1.00  0.00     0.188 A 
HETATM   50  N4  UNL     1      -1.651   9.179 -17.295  1.00  0.00    -0.346 N 
HETATM   51  C20 UNL     1      -0.757  10.233 -17.362  1.00  0.00     0.116 A 
HETATM   52  H4  UNL     1      -2.661   9.227 -17.158  1.00  0.00     0.167 HD
HETATM   53  C21 UNL     1      -0.911  11.624 -17.231  1.00  0.00     0.109 A 
HETATM   54  C23 UNL     1       0.525   9.771 -17.598  1.00  0.00     0.142 A 
HETATM   55  N5  UNL     1       0.183  12.413 -17.361  1.00  0.00    -0.341 N 
HETATM   56  C22 UNL     1       1.368  11.824 -17.615  1.00  0.00     0.183 A 
HETATM   57  H5  UNL     1       0.111  13.426 -17.269  1.00  0.00     0.167 HD
HETATM   58  N6  UNL     1       1.639  10.510 -17.750  1.00  0.00    -0.336 N 
HETATM   59  H6  UNL     1       2.564  10.126 -17.943  1.00  0.00     0.168 HD
BRANCH  53  60
HETATM   60  N7  UNL     1      -2.130  12.236 -16.985  1.00  0.00    -0.287 NA
HETATM   61  H33 UNL     1      -2.229  13.156 -17.407  1.00  0.00     0.125 HD
HETATM   62  H34 UNL     1      -2.433  12.139 -16.026  1.00  0.00     0.125 HD
ENDBRANCH  53  60
ENDBRANCH  37  48
ENDBRANCH  33  34
ENDBRANCH  32  33
ENDBRANCH  28  32
ENDBRANCH  27  28
ENDBRANCH  23  27
ENDBRANCH  22  23
ENDBRANCH  21  22
ENDBRANCH  18  21
ENDBRANCH  17  18
BRANCH  17  63
HETATM   63  O17 UNL     1       6.244   5.118 -11.656  1.00  0.00    -0.385 OA
HETATM   64  H38 UNL     1       5.457   5.506 -12.074  1.00  0.00     0.210 HD
ENDBRANCH  17  63
ENDBRANCH  14  17
ENDBRANCH  12  13
ENDBRANCH  11  12
ENDBRANCH   8  11
ENDBRANCH   6   7
ENDBRANCH   5   6
ENDBRANCH   4   5
ENDBRANCH   2   4
TORSDOF 27
ENDMDL
MODEL 4
REMARK VINA RESULT:      -5.3      4.267      8.298
REMARK  27 active torsions:
REMARK  status: ('A' for Active; 'I' for Inactive)
REMARK    1  A    between atoms: C2_2  and  S1_4 
REMARK    2  A    between atoms: S1_4  and  C3_5 
REMARK    3  A    between atoms: C3_5  and  C4_6 
REMARK    4  A    between atoms: C4_6  and  N1_7 
REMARK       I    between atoms: N1_7  and  C5_8 
REMARK    5  A    between atoms: C5_8  and  C6_10 
REMARK    6  A    between atoms: C6_10  and  C7_11 
REMARK    7  A    between atoms: C7_11  and  N2_12 
REMARK       I    between atoms: N2_12  and  C8_13 
REMARK    8  A    between atoms: C8_13  and  C9_15 
REMARK    9  A    between atoms: C9_15  and  C10_16 
REMARK   10  A    between atoms: C9_15  and  O17_54 
REMARK   11  A    between atoms: C10_16  and  C13_19 
REMARK   12  A    between atoms: C13_19  and  O4_20 
REMARK   13  A    between atoms: O4_20  and  P1_21 
REMARK   14  A    between atoms: P1_21  and  O6_23 
REMARK   15  A    between atoms: P1_21  and  O7_24 
REMARK   16  A    between atoms: O7_24  and  P2_25 
REMARK   17  A    between atoms: P2_25  and  O9_27 
REMARK   18  A    between atoms: P2_25  and  O10_28 
REMARK   19  A    between atoms: O10_28  and  C14_29 
REMARK   20  A    between atoms: C14_29  and  C15_30 
REMARK   21  A    between atoms: C16_31  and  O13_49 
REMARK   22  A    between atoms: C17_32  and  O12_48 
REMARK   23  A    between atoms: C18_33  and  N3_35 
REMARK   24  A    between atoms: C21_40  and  N7_47 
REMARK   25  A    between atoms: O13_49  and  P3_50 
REMARK   26  A    between atoms: P3_50  and  O15_52 
REMARK   27  A    between atoms: P3_50  and  O16_53 
ROOT
HETATM    1  C1  UNL     1       3.905   2.098 -11.928  1.00  0.00     0.104 C 
HETATM    2  C2  UNL     1       5.019   2.247 -10.937  1.00  0.00     0.182 C 
HETATM    3  O1  UNL     1       5.416   1.328 -10.225  1.00  0.00    -0.286 OA
ENDROOT
BRANCH   2   4
HETATM    4  S1  UNL     1       5.694   3.868 -10.844  1.00  0.00    -0.091 SA
BRANCH   4   5
HETATM    5  C3  UNL     1       7.269   3.614 -11.722  1.00  0.00     0.102 C 
BRANCH   5   6
HETATM    6  C4  UNL     1       7.050   3.139 -13.160  1.00  0.00     0.133 C 
BRANCH   6   7
HETATM    7  N1  UNL     1       6.933   4.235 -14.100  1.00  0.00    -0.360 N 
HETATM    8  C5  UNL     1       8.023   4.727 -14.777  1.00  0.00     0.219 C 
HETATM    9  O2  UNL     1       9.164   4.329 -14.571  1.00  0.00    -0.274 OA
HETATM   10  H8  UNL     1       6.020   4.640 -14.263  1.00  0.00     0.162 HD
BRANCH   8  11
HETATM   11  C6  UNL     1       7.675   5.833 -15.750  1.00  0.00     0.122 C 
BRANCH  11  12
HETATM   12  C7  UNL     1       6.175   6.127 -15.767  1.00  0.00     0.132 C 
BRANCH  12  13
HETATM   13  N2  UNL     1       5.544   5.788 -17.025  1.00  0.00    -0.358 N 
HETATM   14  C8  UNL     1       4.622   4.759 -17.087  1.00  0.00     0.247 C 
HETATM   15  O3  UNL     1       4.394   4.030 -16.131  1.00  0.00    -0.271 OA
HETATM   16  H13 UNL     1       5.425   6.560 -17.677  1.00  0.00     0.162 HD
BRANCH  14  17
HETATM   17  C9  UNL     1       3.901   4.622 -18.436  1.00  0.00     0.219 C 
BRANCH  17  18
HETATM   18  C10 UNL     1       2.353   4.658 -18.344  1.00  0.00     0.009 C 
HETATM   19  C11 UNL     1       1.698   4.937 -19.705  1.00  0.00     0.020 C 
HETATM   20  C12 UNL     1       1.787   3.328 -17.808  1.00  0.00     0.020 C 
BRANCH  18  21
HETATM   21  C13 UNL     1       2.011   5.809 -17.354  1.00  0.00     0.192 C 
BRANCH  21  22
HETATM   22  O4  UNL     1       1.570   6.977 -18.018  1.00  0.00    -0.296 OA
BRANCH  22  23
HETATM   23  P1  UNL     1       2.287   8.400 -17.845  1.00  0.00     0.401 P 
HETATM   24  O5  UNL     1       1.837   9.169 -16.642  1.00  0.00    -0.631 OA
BRANCH  23  25
HETATM   25  O6  UNL     1       2.091   9.192 -19.233  1.00  0.00    -0.307 OA
HETATM   26  H23 UNL     1       1.167   9.207 -19.513  1.00  0.00     0.222 HD
ENDBRANCH  23  25
BRANCH  23  27
HETATM   27  O7  UNL     1       3.845   8.084 -17.887  1.00  0.00    -0.195 OA
BRANCH  27  28
HETATM   28  P2  UNL     1       4.844   9.202 -18.427  1.00  0.00     0.401 P 
HETATM   29  O8  UNL     1       5.011   9.302 -19.908  1.00  0.00    -0.631 OA
BRANCH  28  30
HETATM   30  O9  UNL     1       4.303  10.538 -17.740  1.00  0.00    -0.307 OA
HETATM   31  H24 UNL     1       3.770  11.113 -18.342  1.00  0.00     0.222 HD
ENDBRANCH  28  30
BRANCH  28  32
HETATM   32  O10 UNL     1       6.182   8.961 -17.588  1.00  0.00    -0.294 OA
BRANCH  32  33
HETATM   33  C14 UNL     1       7.397   8.738 -18.254  1.00  0.00     0.215 C 
BRANCH  33  34
HETATM   34  C15 UNL     1       8.497   8.932 -17.211  1.00  0.00     0.180 C 
HETATM   35  C16 UNL     1       8.698  10.417 -16.943  1.00  0.00     0.197 C 
HETATM   36  C17 UNL     1      10.127  10.695 -17.369  1.00  0.00     0.199 C 
HETATM   37  C18 UNL     1      10.783   9.321 -17.214  1.00  0.00     0.262 C 
HETATM   38  O11 UNL     1       9.757   8.388 -17.621  1.00  0.00    -0.353 OA
BRANCH  35  39
HETATM   39  O13 UNL     1       8.498  10.645 -15.552  1.00  0.00    -0.286 OA
BRANCH  39  40
HETATM   40  P3  UNL     1       7.152  11.416 -15.167  1.00  0.00     0.391 P 
HETATM   41  O14 UNL     1       7.338  12.470 -14.123  1.00  0.00    -0.632 OA
BRANCH  40  42
HETATM   42  O15 UNL     1       6.193  10.185 -14.814  1.00  0.00    -0.307 OA
HETATM   43  H36 UNL     1       6.456   9.773 -13.957  1.00  0.00     0.222 HD
ENDBRANCH  40  42
BRANCH  40  44
HETATM   44  O16 UNL     1       6.634  11.880 -16.597  1.00  0.00    -0.307 OA
HETATM   45  H37 UNL     1       7.356  12.081 -17.212  1.00  0.00     0.222 HD
ENDBRANCH  40  44
ENDBRANCH  39  40
ENDBRANCH  35  39
BRANCH  36  46
HETATM   46  O12 UNL     1      10.672  11.773 -16.604  1.00  0.00    -0.388 OA
HETATM   47  H35 UNL     1       9.903  12.284 -16.256  1.00  0.00     0.210 HD
ENDBRANCH  36  46
BRANCH  37  48
HETATM   48  N3  UNL     1      11.934   9.153 -18.078  1.00  0.00    -0.297 N 
HETATM   49  C19 UNL     1      12.446  10.068 -18.968  1.00  0.00     0.188 A 
HETATM   50  N4  UNL     1      13.574   9.661 -19.509  1.00  0.00    -0.346 N 
HETATM   51  C20 UNL     1      13.807   8.422 -18.938  1.00  0.00     0.116 A 
HETATM   52  H4  UNL     1      14.148  10.149 -20.196  1.00  0.00     0.167 HD
HETATM   53  C21 UNL     1      14.858   7.497 -19.065  1.00  0.00     0.109 A 
HETATM   54  C23 UNL     1      12.779   8.078 -18.080  1.00  0.00     0.142 A 
HETATM   55  N5  UNL     1      14.790   6.338 -18.365  1.00  0.00    -0.341 N 
HETATM   56  C22 UNL     1      13.713   6.127 -17.583  1.00  0.00     0.183 A 
HETATM   57  H5  UNL     1      15.536   5.645 -18.428  1.00  0.00     0.167 HD
HETATM   58  N6  UNL     1      12.656   6.938 -17.376  1.00  0.00    -0.336 N 
HETATM   59  H6  UNL     1      11.867   6.717 -16.767  1.00  0.00     0.168 HD
BRANCH  53  60
HETATM   60  N7  UNL     1      15.960   7.703 -19.879  1.00  0.00    -0.287 NA
HETATM   61  H33 UNL     1      15.798   8.348 -20.649  1.00  0.00     0.125 HD
HETATM   62  H34 UNL     1      16.454   6.848 -20.098  1.00  0.00     0.125 HD
ENDBRANCH  53  60
ENDBRANCH  37  48
ENDBRANCH  33  34
ENDBRANCH  32  33
ENDBRANCH  28  32
ENDBRANCH  27  28
ENDBRANCH  23  27
ENDBRANCH  22  23
ENDBRANCH  21  22
ENDBRANCH  18  21
ENDBRANCH  17  18
BRANCH  17  63
HETATM   63  O17 UNL     1       4.327   5.655 -19.331  1.00  0.00    -0.385 OA
HETATM   64  H38 UNL     1       5.047   5.301 -19.880  1.00  0.00     0.210 HD
ENDBRANCH  17  63
ENDBRANCH  14  17
ENDBRANCH  12  13
ENDBRANCH  11  12
ENDBRANCH   8  11
ENDBRANCH   6   7
ENDBRANCH   5   6
ENDBRANCH   4   5
ENDBRANCH   2   4
TORSDOF 27
ENDMDL
MODEL 5
REMARK VINA RESULT:      -5.3      3.997      9.634
REMARK  27 active torsions:
REMARK  status: ('A' for Active; 'I' for Inactive)
REMARK    1  A    between atoms: C2_2  and  S1_4 
REMARK    2  A    between atoms: S1_4  and  C3_5 
REMARK    3  A    between atoms: C3_5  and  C4_6 
REMARK    4  A    between atoms: C4_6  and  N1_7 
REMARK       I    between atoms: N1_7  and  C5_8 
REMARK    5  A    between atoms: C5_8  and  C6_10 
REMARK    6  A    between atoms: C6_10  and  C7_11 
REMARK    7  A    between atoms: C7_11  and  N2_12 
REMARK       I    between atoms: N2_12  and  C8_13 
REMARK    8  A    between atoms: C8_13  and  C9_15 
REMARK    9  A    between atoms: C9_15  and  C10_16 
REMARK   10  A    between atoms: C9_15  and  O17_54 
REMARK   11  A    between atoms: C10_16  and  C13_19 
REMARK   12  A    between atoms: C13_19  and  O4_20 
REMARK   13  A    between atoms: O4_20  and  P1_21 
REMARK   14  A    between atoms: P1_21  and  O6_23 
REMARK   15  A    between atoms: P1_21  and  O7_24 
REMARK   16  A    between atoms: O7_24  and  P2_25 
REMARK   17  A    between atoms: P2_25  and  O9_27 
REMARK   18  A    between atoms: P2_25  and  O10_28 
REMARK   19  A    between atoms: O10_28  and  C14_29 
REMARK   20  A    between atoms: C14_29  and  C15_30 
REMARK   21  A    between atoms: C16_31  and  O13_49 
REMARK   22  A    between atoms: C17_32  and  O12_48 
REMARK   23  A    between atoms: C18_33  and  N3_35 
REMARK   24  A    between atoms: C21_40  and  N7_47 
REMARK   25  A    between atoms: O13_49  and  P3_50 
REMARK   26  A    between atoms: P3_50  and  O15_52 
REMARK   27  A    between atoms: P3_50  and  O16_53 
ROOT
HETATM    1  C1  UNL     1       3.962   2.078 -11.945  1.00  0.00     0.104 C 
HETATM    2  C2  UNL     1       5.067   2.239 -10.946  1.00  0.00     0.182 C 
HETATM    3  O1  UNL     1       5.456   1.330 -10.217  1.00  0.00    -0.286 OA
ENDROOT
BRANCH   2   4
HETATM    4  S1  UNL     1       5.744   3.860 -10.869  1.00  0.00    -0.091 SA
BRANCH   4   5
HETATM    5  C3  UNL     1       7.333   3.588 -11.719  1.00  0.00     0.102 C 
BRANCH   5   6
HETATM    6  C4  UNL     1       7.142   3.323 -13.214  1.00  0.00     0.133 C 
BRANCH   6   7
HETATM    7  N1  UNL     1       7.133   4.539 -14.001  1.00  0.00    -0.360 N 
HETATM    8  C5  UNL     1       8.228   4.934 -14.734  1.00  0.00     0.219 C 
HETATM    9  O2  UNL     1       9.295   4.332 -14.704  1.00  0.00    -0.274 OA
HETATM   10  H8  UNL     1       6.295   5.105 -14.013  1.00  0.00     0.162 HD
BRANCH   8  11
HETATM   11  C6  UNL     1       7.992   6.201 -15.527  1.00  0.00     0.122 C 
BRANCH  11  12
HETATM   12  C7  UNL     1       6.518   6.603 -15.537  1.00  0.00     0.132 C 
BRANCH  12  13
HETATM   13  N2  UNL     1       5.868   6.345 -16.805  1.00  0.00    -0.358 N 
HETATM   14  C8  UNL     1       5.109   5.201 -16.979  1.00  0.00     0.247 C 
HETATM   15  O3  UNL     1       5.055   4.320 -16.131  1.00  0.00    -0.271 OA
HETATM   16  H13 UNL     1       5.592   7.171 -17.332  1.00  0.00     0.162 HD
BRANCH  14  17
HETATM   17  C9  UNL     1       4.334   5.139 -18.304  1.00  0.00     0.219 C 
BRANCH  17  18
HETATM   18  C10 UNL     1       2.797   5.287 -18.156  1.00  0.00     0.009 C 
HETATM   19  C11 UNL     1       2.090   5.362 -19.517  1.00  0.00     0.020 C 
HETATM   20  C12 UNL     1       2.188   4.109 -17.369  1.00  0.00     0.020 C 
BRANCH  18  21
HETATM   21  C13 UNL     1       2.569   6.613 -17.375  1.00  0.00     0.192 C 
BRANCH  21  22
HETATM   22  O4  UNL     1       2.088   7.651 -18.205  1.00  0.00    -0.296 OA
BRANCH  22  23
HETATM   23  P1  UNL     1       2.747   9.112 -18.241  1.00  0.00     0.401 P 
HETATM   24  O5  UNL     1       2.135  10.035 -19.248  1.00  0.00    -0.631 OA
BRANCH  23  25
HETATM   25  O6  UNL     1       4.332   8.904 -18.431  1.00  0.00    -0.307 OA
HETATM   26  H23 UNL     1       4.532   8.257 -19.119  1.00  0.00     0.222 HD
ENDBRANCH  23  25
BRANCH  23  27
HETATM   27  O7  UNL     1       2.681   9.630 -16.739  1.00  0.00    -0.195 OA
BRANCH  27  28
HETATM   28  P2  UNL     1       2.998  11.162 -16.437  1.00  0.00     0.401 P 
HETATM   29  O8  UNL     1       3.817  11.457 -15.223  1.00  0.00    -0.631 OA
BRANCH  28  30
HETATM   30  O9  UNL     1       3.648  11.677 -17.802  1.00  0.00    -0.307 OA
HETATM   31  H24 UNL     1       4.546  11.308 -17.986  1.00  0.00     0.222 HD
ENDBRANCH  28  30
BRANCH  28  32
HETATM   32  O10 UNL     1       1.570  11.873 -16.505  1.00  0.00    -0.294 OA
BRANCH  32  33
HETATM   33  C14 UNL     1       1.482  13.274 -16.490  1.00  0.00     0.215 C 
BRANCH  33  34
HETATM   34  C15 UNL     1       0.188  13.627 -17.221  1.00  0.00     0.180 C 
HETATM   35  C16 UNL     1      -0.798  14.261 -16.248  1.00  0.00     0.197 C 
HETATM   36  C17 UNL     1      -1.981  13.312 -16.228  1.00  0.00     0.199 C 
HETATM   37  C18 UNL     1      -1.872  12.631 -17.594  1.00  0.00     0.262 C 
HETATM   38  O11 UNL     1      -0.451  12.489 -17.809  1.00  0.00    -0.353 OA
BRANCH  35  39
HETATM   39  O13 UNL     1      -1.149  15.546 -16.749  1.00  0.00    -0.286 OA
BRANCH  39  40
HETATM   40  P3  UNL     1      -1.021  16.751 -15.706  1.00  0.00     0.391 P 
HETATM   41  O14 UNL     1       0.267  17.503 -15.809  1.00  0.00    -0.632 OA
BRANCH  40  42
HETATM   42  O15 UNL     1      -1.327  15.992 -14.332  1.00  0.00    -0.307 OA
HETATM   43  H36 UNL     1      -1.270  16.614 -13.569  1.00  0.00     0.222 HD
ENDBRANCH  40  42
BRANCH  40  44
HETATM   44  O16 UNL     1      -2.365  17.553 -15.985  1.00  0.00    -0.307 OA
HETATM   45  H37 UNL     1      -3.004  17.046 -16.511  1.00  0.00     0.222 HD
ENDBRANCH  40  44
ENDBRANCH  39  40
ENDBRANCH  35  39
BRANCH  36  46
HETATM   46  O12 UNL     1      -3.186  14.028 -15.945  1.00  0.00    -0.388 OA
HETATM   47  H35 UNL     1      -2.917  14.956 -15.741  1.00  0.00     0.210 HD
ENDBRANCH  36  46
BRANCH  37  48
HETATM   48  N3  UNL     1      -2.480  11.316 -17.610  1.00  0.00    -0.297 N 
HETATM   49  C19 UNL     1      -3.630  10.939 -18.264  1.00  0.00     0.188 A 
HETATM   50  N4  UNL     1      -3.847   9.645 -18.186  1.00  0.00    -0.346 N 
HETATM   51  C20 UNL     1      -2.783   9.156 -17.449  1.00  0.00     0.116 A 
HETATM   52  H4  UNL     1      -4.626   9.118 -18.581  1.00  0.00     0.167 HD
HETATM   53  C21 UNL     1      -2.412   7.859 -17.056  1.00  0.00     0.109 A 
HETATM   54  C23 UNL     1      -1.950  10.186 -17.053  1.00  0.00     0.142 A 
HETATM   55  N5  UNL     1      -1.290   7.702 -16.311  1.00  0.00    -0.341 N 
HETATM   56  C22 UNL     1      -0.587   8.802 -15.978  1.00  0.00     0.183 A 
HETATM   57  H5  UNL     1      -0.987   6.776 -16.010  1.00  0.00     0.167 HD
HETATM   58  N6  UNL     1      -0.838  10.087 -16.302  1.00  0.00    -0.336 N 
HETATM   59  H6  UNL     1      -0.262  10.879 -16.016  1.00  0.00     0.168 HD
BRANCH  53  60
HETATM   60  N7  UNL     1      -3.140   6.726 -17.384  1.00  0.00    -0.287 NA
HETATM   61  H33 UNL     1      -3.535   6.236 -16.584  1.00  0.00     0.125 HD
HETATM   62  H34 UNL     1      -2.689   6.157 -18.088  1.00  0.00     0.125 HD
ENDBRANCH  53  60
ENDBRANCH  37  48
ENDBRANCH  33  34
ENDBRANCH  32  33
ENDBRANCH  28  32
ENDBRANCH  27  28
ENDBRANCH  23  27
ENDBRANCH  22  23
ENDBRANCH  21  22
ENDBRANCH  18  21
ENDBRANCH  17  18
BRANCH  17  63
HETATM   63  O17 UNL     1       4.804   6.152 -19.199  1.00  0.00    -0.385 OA
HETATM   64  H38 UNL     1       4.692   5.828 -20.108  1.00  0.00     0.210 HD
ENDBRANCH  17  63
ENDBRANCH  14  17
ENDBRANCH  12  13
ENDBRANCH  11  12
ENDBRANCH   8  11
ENDBRANCH   6   7
ENDBRANCH   5   6
ENDBRANCH   4   5
ENDBRANCH   2   4
TORSDOF 27
ENDMDL
MODEL 6
REMARK VINA RESULT:      -5.3      4.348      7.968
REMARK  27 active torsions:
REMARK  status: ('A' for Active; 'I' for Inactive)
REMARK    1  A    between atoms: C2_2  and  S1_4 
REMARK    2  A    between atoms: S1_4  and  C3_5 
REMARK    3  A    between atoms: C3_5  and  C4_6 
REMARK    4  A    between atoms: C4_6  and  N1_7 
REMARK       I    between atoms: N1_7  and  C5_8 
REMARK    5  A    between atoms: C5_8  and  C6_10 
REMARK    6  A    between atoms: C6_10  and  C7_11 
REMARK    7  A    between atoms: C7_11  and  N2_12 
REMARK       I    between atoms: N2_12  and  C8_13 
REMARK    8  A    between atoms: C8_13  and  C9_15 
REMARK    9  A    between atoms: C9_15  and  C10_16 
REMARK   10  A    between atoms: C9_15  and  O17_54 
REMARK   11  A    between atoms: C10_16  and  C13_19 
REMARK   12  A    between atoms: C13_19  and  O4_20 
REMARK   13  A    between atoms: O4_20  and  P1_21 
REMARK   14  A    between atoms: P1_21  and  O6_23 
REMARK   15  A    between atoms: P1_21  and  O7_24 
REMARK   16  A    between atoms: O7_24  and  P2_25 
REMARK   17  A    between atoms: P2_25  and  O9_27 
REMARK   18  A    between atoms: P2_25  and  O10_28 
REMARK   19  A    between atoms: O10_28  and  C14_29 
REMARK   20  A    between atoms: C14_29  and  C15_30 
REMARK   21  A    between atoms: C16_31  and  O13_49 
REMARK   22  A    between atoms: C17_32  and  O12_48 
REMARK   23  A    between atoms: C18_33  and  N3_35 
REMARK   24  A    between atoms: C21_40  and  N7_47 
REMARK   25  A    between atoms: O13_49  and  P3_50 
REMARK   26  A    between atoms: P3_50  and  O15_52 
REMARK   27  A    between atoms: P3_50  and  O16_53 
ROOT
HETATM    1  C1  UNL     1      -8.997   8.071 -12.455  1.00  0.00     0.104 C 
HETATM    2  C2  UNL     1      -8.039   7.738 -11.352  1.00  0.00     0.182 C 
HETATM    3  O1  UNL     1      -8.398   7.392 -10.229  1.00  0.00    -0.286 OA
ENDROOT
BRANCH   2   4
HETATM    4  S1  UNL     1      -6.344   7.920 -11.784  1.00  0.00    -0.091 SA
BRANCH   4   5
HETATM    5  C3  UNL     1      -6.090   6.395 -12.748  1.00  0.00     0.102 C 
BRANCH   5   6
HETATM    6  C4  UNL     1      -5.182   6.631 -13.957  1.00  0.00     0.133 C 
BRANCH   6   7
HETATM    7  N1  UNL     1      -3.868   7.112 -13.584  1.00  0.00    -0.360 N 
HETATM    8  C5  UNL     1      -2.942   7.492 -14.528  1.00  0.00     0.219 C 
HETATM    9  O2  UNL     1      -3.138   7.373 -15.731  1.00  0.00    -0.274 OA
HETATM   10  H8  UNL     1      -3.633   7.175 -12.603  1.00  0.00     0.162 HD
BRANCH   8  11
HETATM   11  C6  UNL     1      -1.655   8.016 -13.927  1.00  0.00     0.122 C 
BRANCH  11  12
HETATM   12  C7  UNL     1      -0.879   8.890 -14.912  1.00  0.00     0.132 C 
BRANCH  12  13
HETATM   13  N2  UNL     1      -0.030   8.126 -15.802  1.00  0.00    -0.358 N 
HETATM   14  C8  UNL     1       0.076   8.477 -17.135  1.00  0.00     0.247 C 
HETATM   15  O3  UNL     1      -0.619   9.353 -17.636  1.00  0.00    -0.271 OA
HETATM   16  H13 UNL     1       0.783   7.694 -15.368  1.00  0.00     0.162 HD
BRANCH  14  17
HETATM   17  C9  UNL     1       1.140   7.699 -17.923  1.00  0.00     0.219 C 
BRANCH  17  18
HETATM   18  C10 UNL     1       0.658   6.334 -18.480  1.00  0.00     0.009 C 
HETATM   19  C11 UNL     1      -0.866   6.171 -18.371  1.00  0.00     0.020 C 
HETATM   20  C12 UNL     1       1.049   6.157 -19.961  1.00  0.00     0.020 C 
BRANCH  18  21
HETATM   21  C13 UNL     1       1.363   5.248 -17.618  1.00  0.00     0.192 C 
BRANCH  21  22
HETATM   22  O4  UNL     1       2.710   5.573 -17.340  1.00  0.00    -0.296 OA
BRANCH  22  23
HETATM   23  P1  UNL     1       3.947   4.826 -18.034  1.00  0.00     0.401 P 
HETATM   24  O5  UNL     1       3.576   3.572 -18.760  1.00  0.00    -0.631 OA
BRANCH  23  25
HETATM   25  O6  UNL     1       5.061   4.611 -16.892  1.00  0.00    -0.307 OA
HETATM   26  H23 UNL     1       4.671   4.331 -16.055  1.00  0.00     0.222 HD
ENDBRANCH  23  25
BRANCH  23  27
HETATM   27  O7  UNL     1       4.642   5.936 -18.938  1.00  0.00    -0.195 OA
BRANCH  27  28
HETATM   28  P2  UNL     1       5.091   7.308 -18.264  1.00  0.00     0.401 P 
HETATM   29  O8  UNL     1       4.779   8.563 -19.013  1.00  0.00    -0.631 OA
BRANCH  28  30
HETATM   30  O9  UNL     1       4.432   7.235 -16.812  1.00  0.00    -0.307 OA
HETATM   31  H24 UNL     1       4.221   6.318 -16.510  1.00  0.00     0.222 HD
ENDBRANCH  28  30
BRANCH  28  32
HETATM   32  O10 UNL     1       6.628   7.075 -17.902  1.00  0.00    -0.294 OA
BRANCH  32  33
HETATM   33  C14 UNL     1       7.574   8.075 -18.180  1.00  0.00     0.215 C 
BRANCH  33  34
HETATM   34  C15 UNL     1       8.371   8.277 -16.892  1.00  0.00     0.180 C 
HETATM   35  C16 UNL     1       7.823   7.371 -15.798  1.00  0.00     0.197 C 
HETATM   36  C17 UNL     1       7.328   8.321 -14.724  1.00  0.00     0.199 C 
HETATM   37  C18 UNL     1       8.187   9.563 -14.972  1.00  0.00     0.262 C 
HETATM   38  O11 UNL     1       8.319   9.624 -16.409  1.00  0.00    -0.353 OA
BRANCH  35  39
HETATM   39  O13 UNL     1       8.886   6.544 -15.336  1.00  0.00    -0.286 OA
BRANCH  39  40
HETATM   40  P3  UNL     1       8.557   4.982 -15.250  1.00  0.00     0.391 P 
HETATM   41  O14 UNL     1       7.681   4.613 -14.097  1.00  0.00    -0.632 OA
BRANCH  40  42
HETATM   42  O15 UNL     1      10.032   4.364 -15.288  1.00  0.00    -0.307 OA
HETATM   43  H36 UNL     1      10.026   3.428 -14.975  1.00  0.00     0.222 HD
ENDBRANCH  40  42
BRANCH  40  44
HETATM   44  O16 UNL     1       8.007   4.695 -16.714  1.00  0.00    -0.307 OA
HETATM   45  H37 UNL     1       7.940   3.748 -16.912  1.00  0.00     0.222 HD
ENDBRANCH  40  44
ENDBRANCH  39  40
ENDBRANCH  35  39
BRANCH  36  46
HETATM   46  O12 UNL     1       7.420   7.705 -13.437  1.00  0.00    -0.388 OA
HETATM   47  H35 UNL     1       8.265   7.196 -13.432  1.00  0.00     0.210 HD
ENDBRANCH  36  46
BRANCH  37  48
HETATM   48  N3  UNL     1       7.550  10.781 -14.510  1.00  0.00    -0.297 N 
HETATM   49  C19 UNL     1       6.671  10.913 -13.461  1.00  0.00     0.188 A 
HETATM   50  N4  UNL     1       6.371  12.169 -13.217  1.00  0.00    -0.346 N 
HETATM   51  C20 UNL     1       7.094  12.889 -14.152  1.00  0.00     0.116 A 
HETATM   52  H4  UNL     1       5.744  12.533 -12.499  1.00  0.00     0.167 HD
HETATM   53  C21 UNL     1       7.240  14.266 -14.389  1.00  0.00     0.109 A 
HETATM   54  C23 UNL     1       7.798  12.038 -14.984  1.00  0.00     0.142 A 
HETATM   55  N5  UNL     1       8.032  14.668 -15.413  1.00  0.00    -0.341 N 
HETATM   56  C22 UNL     1       8.640  13.724 -16.158  1.00  0.00     0.183 A 
HETATM   57  H5  UNL     1       8.165  15.659 -15.614  1.00  0.00     0.167 HD
HETATM   58  N6  UNL     1       8.583  12.383 -16.021  1.00  0.00    -0.336 N 
HETATM   59  H6  UNL     1       9.070  11.719 -16.623  1.00  0.00     0.168 HD
BRANCH  53  60
HETATM   60  N7  UNL     1       6.606  15.241 -13.635  1.00  0.00    -0.287 NA
HETATM   61  H33 UNL     1       6.304  16.053 -14.169  1.00  0.00     0.125 HD
HETATM   62  H34 UNL     1       7.068  15.422 -12.754  1.00  0.00     0.125 HD
ENDBRANCH  53  60
ENDBRANCH  37  48
ENDBRANCH  33  34
ENDBRANCH  32  33
ENDBRANCH  28  32
ENDBRANCH  27  28
ENDBRANCH  23  27
ENDBRANCH  22  23
ENDBRANCH  21  22
ENDBRANCH  18  21
ENDBRANCH  17  18
BRANCH  17  63
HETATM   63  O17 UNL     1       1.621   8.491 -19.015  1.00  0.00    -0.385 OA
HETATM   64  H38 UNL     1       2.285   9.111 -18.669  1.00  0.00     0.210 HD
ENDBRANCH  17  63
ENDBRANCH  14  17
ENDBRANCH  12  13
ENDBRANCH  11  12
ENDBRANCH   8  11
ENDBRANCH   6   7
ENDBRANCH   5   6
ENDBRANCH   4   5
ENDBRANCH   2   4
TORSDOF 27
ENDMDL
MODEL 7
REMARK VINA RESULT:      -5.3      1.964      2.985
REMARK  27 active torsions:
REMARK  status: ('A' for Active; 'I' for Inactive)
REMARK    1  A    between atoms: C2_2  and  S1_4 
REMARK    2  A    between atoms: S1_4  and  C3_5 
REMARK    3  A    between atoms: C3_5  and  C4_6 
REMARK    4  A    between atoms: C4_6  and  N1_7 
REMARK       I    between atoms: N1_7  and  C5_8 
REMARK    5  A    between atoms: C5_8  and  C6_10 
REMARK    6  A    between atoms: C6_10  and  C7_11 
REMARK    7  A    between atoms: C7_11  and  N2_12 
REMARK       I    between atoms: N2_12  and  C8_13 
REMARK    8  A    between atoms: C8_13  and  C9_15 
REMARK    9  A    between atoms: C9_15  and  C10_16 
REMARK   10  A    between atoms: C9_15  and  O17_54 
REMARK   11  A    between atoms: C10_16  and  C13_19 
REMARK   12  A    between atoms: C13_19  and  O4_20 
REMARK   13  A    between atoms: O4_20  and  P1_21 
REMARK   14  A    between atoms: P1_21  and  O6_23 
REMARK   15  A    between atoms: P1_21  and  O7_24 
REMARK   16  A    between atoms: O7_24  and  P2_25 
REMARK   17  A    between atoms: P2_25  and  O9_27 
REMARK   18  A    between atoms: P2_25  and  O10_28 
REMARK   19  A    between atoms: O10_28  and  C14_29 
REMARK   20  A    between atoms: C14_29  and  C15_30 
REMARK   21  A    between atoms: C16_31  and  O13_49 
REMARK   22  A    between atoms: C17_32  and  O12_48 
REMARK   23  A    between atoms: C18_33  and  N3_35 
REMARK   24  A    between atoms: C21_40  and  N7_47 
REMARK   25  A    between atoms: O13_49  and  P3_50 
REMARK   26  A    between atoms: P3_50  and  O15_52 
REMARK   27  A    between atoms: P3_50  and  O16_53 
ROOT
HETATM    1  C1  UNL     1       2.106   3.301 -18.753  1.00  0.00     0.104 C 
HETATM    2  C2  UNL     1       2.781   4.402 -17.994  1.00  0.00     0.182 C 
HETATM    3  O1  UNL     1       3.925   4.315 -17.555  1.00  0.00    -0.286 OA
ENDROOT
BRANCH   2   4
HETATM    4  S1  UNL     1       1.784   5.829 -17.744  1.00  0.00    -0.091 SA
BRANCH   4   5
HETATM    5  C3  UNL     1       0.521   5.571 -19.033  1.00  0.00     0.102 C 
BRANCH   5   6
HETATM    6  C4  UNL     1      -0.889   5.864 -18.517  1.00  0.00     0.133 C 
BRANCH   6   7
HETATM    7  N1  UNL     1      -0.940   7.037 -17.668  1.00  0.00    -0.360 N 
HETATM    8  C5  UNL     1      -2.124   7.496 -17.139  1.00  0.00     0.219 C 
HETATM    9  O2  UNL     1      -3.208   6.995 -17.415  1.00  0.00    -0.274 OA
HETATM   10  H8  UNL     1      -0.079   7.523 -17.456  1.00  0.00     0.162 HD
BRANCH   8  11
HETATM   11  C6  UNL     1      -1.951   8.699 -16.237  1.00  0.00     0.122 C 
BRANCH  11  12
HETATM   12  C7  UNL     1      -0.492   8.902 -15.831  1.00  0.00     0.132 C 
BRANCH  12  13
HETATM   13  N2  UNL     1       0.043  10.178 -16.258  1.00  0.00    -0.358 N 
HETATM   14  C8  UNL     1       0.631  10.304 -17.504  1.00  0.00     0.247 C 
HETATM   15  O3  UNL     1       0.828   9.340 -18.233  1.00  0.00    -0.271 OA
HETATM   16  H13 UNL     1      -0.423  10.998 -15.878  1.00  0.00     0.162 HD
BRANCH  14  17
HETATM   17  C9  UNL     1       0.995  11.743 -17.901  1.00  0.00     0.219 C 
BRANCH  17  18
HETATM   18  C10 UNL     1       2.461  12.144 -17.593  1.00  0.00     0.009 C 
HETATM   19  C11 UNL     1       3.465  11.099 -18.103  1.00  0.00     0.020 C 
HETATM   20  C12 UNL     1       2.822  13.500 -18.231  1.00  0.00     0.020 C 
BRANCH  18  21
HETATM   21  C13 UNL     1       2.558  12.250 -16.044  1.00  0.00     0.192 C 
BRANCH  21  22
HETATM   22  O4  UNL     1       3.733  11.650 -15.536  1.00  0.00    -0.296 OA
BRANCH  22  23
HETATM   23  P1  UNL     1       4.897  12.487 -14.817  1.00  0.00     0.401 P 
HETATM   24  O5  UNL     1       4.430  13.319 -13.665  1.00  0.00    -0.631 OA
BRANCH  23  25
HETATM   25  O6  UNL     1       5.642  13.331 -15.968  1.00  0.00    -0.307 OA
HETATM   26  H23 UNL     1       5.074  13.473 -16.737  1.00  0.00     0.222 HD
ENDBRANCH  23  25
BRANCH  23  27
HETATM   27  O7  UNL     1       6.011  11.411 -14.453  1.00  0.00    -0.195 OA
BRANCH  27  28
HETATM   28  P2  UNL     1       7.199  11.154 -15.482  1.00  0.00     0.401 P 
HETATM   29  O8  UNL     1       6.831  11.038 -16.925  1.00  0.00    -0.631 OA
BRANCH  28  30
HETATM   30  O9  UNL     1       8.222  12.337 -15.164  1.00  0.00    -0.307 OA
HETATM   31  H24 UNL     1       8.644  12.733 -15.966  1.00  0.00     0.222 HD
ENDBRANCH  28  30
BRANCH  28  32
HETATM   32  O10 UNL     1       7.986   9.911 -14.861  1.00  0.00    -0.294 OA
BRANCH  32  33
HETATM   33  C14 UNL     1       7.335   9.041 -13.972  1.00  0.00     0.215 C 
BRANCH  33  34
HETATM   34  C15 UNL     1       8.164   7.758 -13.946  1.00  0.00     0.180 C 
HETATM   35  C16 UNL     1       8.433   7.290 -15.370  1.00  0.00     0.197 C 
HETATM   36  C17 UNL     1       7.761   5.933 -15.462  1.00  0.00     0.199 C 
HETATM   37  C18 UNL     1       7.754   5.476 -14.001  1.00  0.00     0.262 C 
HETATM   38  O11 UNL     1       7.515   6.687 -13.251  1.00  0.00    -0.353 OA
BRANCH  35  39
HETATM   39  O13 UNL     1       9.844   7.204 -15.547  1.00  0.00    -0.286 OA
BRANCH  39  40
HETATM   40  P3  UNL     1      10.452   8.131 -16.698  1.00  0.00     0.391 P 
HETATM   41  O14 UNL     1      11.697   7.584 -17.318  1.00  0.00    -0.632 OA
BRANCH  40  42
HETATM   42  O15 UNL     1      10.560   9.530 -15.929  1.00  0.00    -0.307 OA
HETATM   43  H36 UNL     1       9.823   9.630 -15.281  1.00  0.00     0.222 HD
ENDBRANCH  40  42
BRANCH  40  44
HETATM   44  O16 UNL     1       9.188   8.334 -17.641  1.00  0.00    -0.307 OA
HETATM   45  H37 UNL     1       8.358   8.050 -17.224  1.00  0.00     0.222 HD
ENDBRANCH  40  44
ENDBRANCH  39  40
ENDBRANCH  35  39
BRANCH  36  46
HETATM   46  O12 UNL     1       8.445   5.104 -16.406  1.00  0.00    -0.388 OA
HETATM   47  H35 UNL     1       9.125   4.604 -15.895  1.00  0.00     0.210 HD
ENDBRANCH  36  46
BRANCH  37  48
HETATM   48  N3  UNL     1       6.690   4.535 -13.718  1.00  0.00    -0.297 N 
HETATM   49  C19 UNL     1       5.850   3.932 -14.625  1.00  0.00     0.188 A 
HETATM   50  N4  UNL     1       5.074   3.030 -14.064  1.00  0.00    -0.346 N 
HETATM   51  C20 UNL     1       5.432   3.046 -12.727  1.00  0.00     0.116 A 
HETATM   52  H4  UNL     1       4.367   2.449 -14.513  1.00  0.00     0.167 HD
HETATM   53  C21 UNL     1       5.007   2.294 -11.618  1.00  0.00     0.109 A 
HETATM   54  C23 UNL     1       6.404   4.001 -12.492  1.00  0.00     0.142 A 
HETATM   55  N5  UNL     1       5.553   2.559 -10.406  1.00  0.00    -0.341 N 
HETATM   56  C22 UNL     1       6.477   3.538 -10.323  1.00  0.00     0.183 A 
HETATM   57  H5  UNL     1       5.273   2.032  -9.579  1.00  0.00     0.167 HD
HETATM   58  N6  UNL     1       6.966   4.315 -11.311  1.00  0.00    -0.336 N 
HETATM   59  H6  UNL     1       7.668   5.043 -11.180  1.00  0.00     0.168 HD
BRANCH  53  60
HETATM   60  N7  UNL     1       4.048   1.297 -11.696  1.00  0.00    -0.287 NA
HETATM   61  H33 UNL     1       4.015   0.816 -12.592  1.00  0.00     0.125 HD
HETATM   62  H34 UNL     1       3.162   1.569 -11.292  1.00  0.00     0.125 HD
ENDBRANCH  53  60
ENDBRANCH  37  48
ENDBRANCH  33  34
ENDBRANCH  32  33
ENDBRANCH  28  32
ENDBRANCH  27  28
ENDBRANCH  23  27
ENDBRANCH  22  23
ENDBRANCH  21  22
ENDBRANCH  18  21
ENDBRANCH  17  18
BRANCH  17  63
HETATM   63  O17 UNL     1       0.752  11.944 -19.298  1.00  0.00    -0.385 OA
HETATM   64  H38 UNL     1      -0.194  12.134 -19.416  1.00  0.00     0.210 HD
ENDBRANCH  17  63
ENDBRANCH  14  17
ENDBRANCH  12  13
ENDBRANCH  11  12
ENDBRANCH   8  11
ENDBRANCH   6   7
ENDBRANCH   5   6
ENDBRANCH   4   5
ENDBRANCH   2   4
TORSDOF 27
ENDMDL
MODEL 8
REMARK VINA RESULT:      -5.2      2.252      7.926
REMARK  27 active torsions:
REMARK  status: ('A' for Active; 'I' for Inactive)
REMARK    1  A    between atoms: C2_2  and  S1_4 
REMARK    2  A    between atoms: S1_4  and  C3_5 
REMARK    3  A    between atoms: C3_5  and  C4_6 
REMARK    4  A    between atoms: C4_6  and  N1_7 
REMARK       I    between atoms: N1_7  and  C5_8 
REMARK    5  A    between atoms: C5_8  and  C6_10 
REMARK    6  A    between atoms: C6_10  and  C7_11 
REMARK    7  A    between atoms: C7_11  and  N2_12 
REMARK       I    between atoms: N2_12  and  C8_13 
REMARK    8  A    between atoms: C8_13  and  C9_15 
REMARK    9  A    between atoms: C9_15  and  C10_16 
REMARK   10  A    between atoms: C9_15  and  O17_54 
REMARK   11  A    between atoms: C10_16  and  C13_19 
REMARK   12  A    between atoms: C13_19  and  O4_20 
REMARK   13  A    between atoms: O4_20  and  P1_21 
REMARK   14  A    between atoms: P1_21  and  O6_23 
REMARK   15  A    between atoms: P1_21  and  O7_24 
REMARK   16  A    between atoms: O7_24  and  P2_25 
REMARK   17  A    between atoms: P2_25  and  O9_27 
REMARK   18  A    between atoms: P2_25  and  O10_28 
REMARK   19  A    between atoms: O10_28  and  C14_29 
REMARK   20  A    between atoms: C14_29  and  C15_30 
REMARK   21  A    between atoms: C16_31  and  O13_49 
REMARK   22  A    between atoms: C17_32  and  O12_48 
REMARK   23  A    between atoms: C18_33  and  N3_35 
REMARK   24  A    between atoms: C21_40  and  N7_47 
REMARK   25  A    between atoms: O13_49  and  P3_50 
REMARK   26  A    between atoms: P3_50  and  O15_52 
REMARK   27  A    between atoms: P3_50  and  O16_53 
ROOT
HETATM    1  C1  UNL     1       1.581   3.389 -19.828  1.00  0.00     0.104 C 
HETATM    2  C2  UNL     1       1.762   2.565 -18.590  1.00  0.00     0.182 C 
HETATM    3  O1  UNL     1       2.134   3.034 -17.516  1.00  0.00    -0.286 OA
ENDROOT
BRANCH   2   4
HETATM    4  S1  UNL     1       1.436   0.851 -18.805  1.00  0.00    -0.091 SA
BRANCH   4   5
HETATM    5  C3  UNL     1       0.321   0.554 -17.395  1.00  0.00     0.102 C 
BRANCH   5   6
HETATM    6  C4  UNL     1       1.076   0.031 -16.171  1.00  0.00     0.133 C 
BRANCH   6   7
HETATM    7  N1  UNL     1       1.484   1.090 -15.272  1.00  0.00    -0.360 N 
HETATM    8  C5  UNL     1       2.593   0.968 -14.466  1.00  0.00     0.219 C 
HETATM    9  O2  UNL     1       3.250  -0.064 -14.400  1.00  0.00    -0.274 OA
HETATM   10  H8  UNL     1       0.941   1.942 -15.245  1.00  0.00     0.162 HD
BRANCH   8  11
HETATM   11  C6  UNL     1       2.876   2.208 -13.645  1.00  0.00     0.122 C 
BRANCH  11  12
HETATM   12  C7  UNL     1       3.623   1.878 -12.353  1.00  0.00     0.132 C 
BRANCH  12  13
HETATM   13  N2  UNL     1       4.751   2.752 -12.111  1.00  0.00    -0.358 N 
HETATM   14  C8  UNL     1       5.814   2.779 -12.996  1.00  0.00     0.247 C 
HETATM   15  O3  UNL     1       5.900   1.998 -13.935  1.00  0.00    -0.271 OA
HETATM   16  H13 UNL     1       4.539   3.613 -11.612  1.00  0.00     0.162 HD
BRANCH  14  17
HETATM   17  C9  UNL     1       6.856   3.873 -12.718  1.00  0.00     0.219 C 
BRANCH  17  18
HETATM   18  C10 UNL     1       7.187   4.771 -13.939  1.00  0.00     0.009 C 
HETATM   19  C11 UNL     1       8.475   4.328 -14.650  1.00  0.00     0.020 C 
HETATM   20  C12 UNL     1       6.045   4.759 -14.975  1.00  0.00     0.020 C 
BRANCH  18  21
HETATM   21  C13 UNL     1       7.369   6.209 -13.375  1.00  0.00     0.192 C 
BRANCH  21  22
HETATM   22  O4  UNL     1       7.013   7.204 -14.313  1.00  0.00    -0.296 OA
BRANCH  22  23
HETATM   23  P1  UNL     1       7.796   8.597 -14.443  1.00  0.00     0.401 P 
HETATM   24  O5  UNL     1       9.263   8.453 -14.702  1.00  0.00    -0.631 OA
BRANCH  23  25
HETATM   25  O6  UNL     1       7.450   9.451 -13.123  1.00  0.00    -0.307 OA
HETATM   26  H23 UNL     1       6.588   9.882 -13.186  1.00  0.00     0.222 HD
ENDBRANCH  23  25
BRANCH  23  27
HETATM   27  O7  UNL     1       7.002   9.413 -15.555  1.00  0.00    -0.195 OA
BRANCH  27  28
HETATM   28  P2  UNL     1       6.319   8.615 -16.753  1.00  0.00     0.401 P 
HETATM   29  O8  UNL     1       7.193   7.692 -17.537  1.00  0.00    -0.631 OA
BRANCH  28  30
HETATM   30  O9  UNL     1       5.075   7.898 -16.054  1.00  0.00    -0.307 OA
HETATM   31  H24 UNL     1       4.769   7.079 -16.516  1.00  0.00     0.222 HD
ENDBRANCH  28  30
BRANCH  28  32
HETATM   32  O10 UNL     1       5.569   9.748 -17.593  1.00  0.00    -0.294 OA
BRANCH  32  33
HETATM   33  C14 UNL     1       6.269  10.891 -18.010  1.00  0.00     0.215 C 
BRANCH  33  34
HETATM   34  C15 UNL     1       5.437  12.090 -17.558  1.00  0.00     0.180 C 
HETATM   35  C16 UNL     1       5.585  12.281 -16.054  1.00  0.00     0.197 C 
HETATM   36  C17 UNL     1       4.185  12.087 -15.502  1.00  0.00     0.199 C 
HETATM   37  C18 UNL     1       3.311  12.450 -16.705  1.00  0.00     0.262 C 
HETATM   38  O11 UNL     1       4.041  11.942 -17.843  1.00  0.00    -0.353 OA
BRANCH  35  39
HETATM   39  O13 UNL     1       6.074  13.598 -15.823  1.00  0.00    -0.286 OA
BRANCH  39  40
HETATM   40  P3  UNL     1       7.261  13.715 -14.757  1.00  0.00     0.391 P 
HETATM   41  O14 UNL     1       6.819  14.201 -13.415  1.00  0.00    -0.632 OA
BRANCH  40  42
HETATM   42  O15 UNL     1       8.302  14.620 -15.567  1.00  0.00    -0.307 OA
HETATM   43  H36 UNL     1       9.067  14.867 -14.995  1.00  0.00     0.222 HD
ENDBRANCH  40  42
BRANCH  40  44
HETATM   44  O16 UNL     1       7.903  12.263 -14.840  1.00  0.00    -0.307 OA
HETATM   45  H37 UNL     1       8.015  11.850 -13.969  1.00  0.00     0.222 HD
ENDBRANCH  40  44
ENDBRANCH  39  40
ENDBRANCH  35  39
BRANCH  36  46
HETATM   46  O12 UNL     1       4.011  12.855 -14.309  1.00  0.00    -0.388 OA
HETATM   47  H35 UNL     1       4.209  12.248 -13.556  1.00  0.00     0.210 HD
ENDBRANCH  36  46
BRANCH  37  48
HETATM   48  N3  UNL     1       2.011  11.810 -16.662  1.00  0.00    -0.297 N 
HETATM   49  C19 UNL     1       0.807  12.394 -16.347  1.00  0.00     0.188 A 
HETATM   50  N4  UNL     1      -0.206  11.574 -16.522  1.00  0.00    -0.346 N 
HETATM   51  C20 UNL     1       0.369  10.401 -16.978  1.00  0.00     0.116 A 
HETATM   52  H4  UNL     1      -1.196  11.761 -16.359  1.00  0.00     0.167 HD
HETATM   53  C21 UNL     1      -0.173   9.169 -17.384  1.00  0.00     0.109 A 
HETATM   54  C23 UNL     1       1.746  10.521 -17.031  1.00  0.00     0.142 A 
HETATM   55  N5  UNL     1       0.674   8.187 -17.778  1.00  0.00    -0.341 N 
HETATM   56  C22 UNL     1       1.998   8.438 -17.756  1.00  0.00     0.183 A 
HETATM   57  H5  UNL     1       0.318   7.281 -18.082  1.00  0.00     0.167 HD
HETATM   58  N6  UNL     1       2.629   9.575 -17.398  1.00  0.00    -0.336 N 
HETATM   59  H6  UNL     1       3.641   9.701 -17.403  1.00  0.00     0.168 HD
BRANCH  53  60
HETATM   60  N7  UNL     1      -1.532   8.901 -17.394  1.00  0.00    -0.287 NA
HETATM   61  H33 UNL     1      -2.077   9.475 -16.755  1.00  0.00     0.125 HD
HETATM   62  H34 UNL     1      -1.739   7.911 -17.406  1.00  0.00     0.125 HD
ENDBRANCH  53  60
ENDBRANCH  37  48
ENDBRANCH  33  34
ENDBRANCH  32  33
ENDBRANCH  28  32
ENDBRANCH  27  28
ENDBRANCH  23  27
ENDBRANCH  22  23
ENDBRANCH  21  22
ENDBRANCH  18  21
ENDBRANCH  17  18
BRANCH  17  63
HETATM   63  O17 UNL     1       6.416   4.711 -11.644  1.00  0.00    -0.385 OA
HETATM   64  H38 UNL     1       6.384   5.627 -11.969  1.00  0.00     0.210 HD
ENDBRANCH  17  63
ENDBRANCH  14  17
ENDBRANCH  12  13
ENDBRANCH  11  12
ENDBRANCH   8  11
ENDBRANCH   6   7
ENDBRANCH   5   6
ENDBRANCH   4   5
ENDBRANCH   2   4
TORSDOF 27
ENDMDL
MODEL 9
REMARK VINA RESULT:      -5.2      1.937      3.136
REMARK  27 active torsions:
REMARK  status: ('A' for Active; 'I' for Inactive)
REMARK    1  A    between atoms: C2_2  and  S1_4 
REMARK    2  A    between atoms: S1_4  and  C3_5 
REMARK    3  A    between atoms: C3_5  and  C4_6 
REMARK    4  A    between atoms: C4_6  and  N1_7 
REMARK       I    between atoms: N1_7  and  C5_8 
REMARK    5  A    between atoms: C5_8  and  C6_10 
REMARK    6  A    between atoms: C6_10  and  C7_11 
REMARK    7  A    between atoms: C7_11  and  N2_12 
REMARK       I    between atoms: N2_12  and  C8_13 
REMARK    8  A    between atoms: C8_13  and  C9_15 
REMARK    9  A    between atoms: C9_15  and  C10_16 
REMARK   10  A    between atoms: C9_15  and  O17_54 
REMARK   11  A    between atoms: C10_16  and  C13_19 
REMARK   12  A    between atoms: C13_19  and  O4_20 
REMARK   13  A    between atoms: O4_20  and  P1_21 
REMARK   14  A    between atoms: P1_21  and  O6_23 
REMARK   15  A    between atoms: P1_21  and  O7_24 
REMARK   16  A    between atoms: O7_24  and  P2_25 
REMARK   17  A    between atoms: P2_25  and  O9_27 
REMARK   18  A    between atoms: P2_25  and  O10_28 
REMARK   19  A    between atoms: O10_28  and  C14_29 
REMARK   20  A    between atoms: C14_29  and  C15_30 
REMARK   21  A    between atoms: C16_31  and  O13_49 
REMARK   22  A    between atoms: C17_32  and  O12_48 
REMARK   23  A    between atoms: C18_33  and  N3_35 
REMARK   24  A    between atoms: C21_40  and  N7_47 
REMARK   25  A    between atoms: O13_49  and  P3_50 
REMARK   26  A    between atoms: P3_50  and  O15_52 
REMARK   27  A    between atoms: P3_50  and  O16_53 
ROOT
HETATM    1  C1  UNL     1       3.723   4.372 -20.091  1.00  0.00     0.104 C 
HETATM    2  C2  UNL     1       3.133   4.294 -18.716  1.00  0.00     0.182 C 
HETATM    3  O1  UNL     1       3.808   4.316 -17.690  1.00  0.00    -0.286 OA
ENDROOT
BRANCH   2   4
HETATM    4  S1  UNL     1       1.382   4.127 -18.687  1.00  0.00    -0.091 SA
BRANCH   4   5
HETATM    5  C3  UNL     1       0.889   5.879 -18.758  1.00  0.00     0.102 C 
BRANCH   5   6
HETATM    6  C4  UNL     1       0.627   6.454 -17.365  1.00  0.00     0.133 C 
BRANCH   6   7
HETATM    7  N1  UNL     1       0.171   7.829 -17.404  1.00  0.00    -0.360 N 
HETATM    8  C5  UNL     1      -1.164   8.151 -17.330  1.00  0.00     0.219 C 
HETATM    9  O2  UNL     1      -2.047   7.302 -17.308  1.00  0.00    -0.274 OA
HETATM   10  H8  UNL     1       0.858   8.567 -17.481  1.00  0.00     0.162 HD
BRANCH   8  11
HETATM   11  C6  UNL     1      -1.421   9.642 -17.331  1.00  0.00     0.122 C 
BRANCH  11  12
HETATM   12  C7  UNL     1      -0.645  10.357 -16.225  1.00  0.00     0.132 C 
BRANCH  12  13
HETATM   13  N2  UNL     1       0.248  11.378 -16.727  1.00  0.00    -0.358 N 
HETATM   14  C8  UNL     1       1.616  11.170 -16.726  1.00  0.00     0.247 C 
HETATM   15  O3  UNL     1       2.124  10.187 -16.203  1.00  0.00    -0.271 OA
HETATM   16  H13 UNL     1      -0.132  11.970 -17.464  1.00  0.00     0.162 HD
BRANCH  14  17
HETATM   17  C9  UNL     1       2.433  12.253 -17.447  1.00  0.00     0.219 C 
BRANCH  17  18
HETATM   18  C10 UNL     1       2.363  13.656 -16.787  1.00  0.00     0.009 C 
HETATM   19  C11 UNL     1       1.296  14.548 -17.437  1.00  0.00     0.020 C 
HETATM   20  C12 UNL     1       2.047  13.557 -15.281  1.00  0.00     0.020 C 
BRANCH  18  21
HETATM   21  C13 UNL     1       3.769  14.291 -16.988  1.00  0.00     0.192 C 
BRANCH  21  22
HETATM   22  O4  UNL     1       4.607  14.109 -15.864  1.00  0.00    -0.296 OA
BRANCH  22  23
HETATM   23  P1  UNL     1       6.202  14.257 -15.935  1.00  0.00     0.401 P 
HETATM   24  O5  UNL     1       6.746  15.407 -15.148  1.00  0.00    -0.631 OA
BRANCH  23  25
HETATM   25  O6  UNL     1       6.597  14.294 -17.496  1.00  0.00    -0.307 OA
HETATM   26  H23 UNL     1       6.673  15.197 -17.828  1.00  0.00     0.222 HD
ENDBRANCH  23  25
BRANCH  23  27
HETATM   27  O7  UNL     1       6.766  12.832 -15.508  1.00  0.00    -0.195 OA
BRANCH  27  28
HETATM   28  P2  UNL     1       6.153  12.115 -14.224  1.00  0.00     0.401 P 
HETATM   29  O8  UNL     1       5.956  12.959 -13.007  1.00  0.00    -0.631 OA
BRANCH  28  30
HETATM   30  O9  UNL     1       4.812  11.451 -14.780  1.00  0.00    -0.307 OA
HETATM   31  H24 UNL     1       4.388  10.814 -14.154  1.00  0.00     0.222 HD
ENDBRANCH  28  30
BRANCH  28  32
HETATM   32  O10 UNL     1       7.066  10.819 -14.033  1.00  0.00    -0.294 OA
BRANCH  32  33
HETATM   33  C14 UNL     1       7.555  10.133 -15.156  1.00  0.00     0.215 C 
BRANCH  33  34
HETATM   34  C15 UNL     1       8.403   8.982 -14.616  1.00  0.00     0.180 C 
HETATM   35  C16 UNL     1       9.261   8.406 -15.735  1.00  0.00     0.197 C 
HETATM   36  C17 UNL     1       8.794   6.969 -15.877  1.00  0.00     0.199 C 
HETATM   37  C18 UNL     1       8.234   6.673 -14.484  1.00  0.00     0.262 C 
HETATM   38  O11 UNL     1       7.616   7.913 -14.076  1.00  0.00    -0.353 OA
BRANCH  35  39
HETATM   39  O13 UNL     1      10.624   8.490 -15.333  1.00  0.00    -0.286 OA
BRANCH  39  40
HETATM   40  P3  UNL     1      11.620   9.134 -16.405  1.00  0.00     0.391 P 
HETATM   41  O14 UNL     1      11.744   8.342 -17.666  1.00  0.00    -0.632 OA
BRANCH  40  42
HETATM   42  O15 UNL     1      12.936   9.322 -15.515  1.00  0.00    -0.307 OA
HETATM   43  H36 UNL     1      13.436  10.125 -15.796  1.00  0.00     0.222 HD
ENDBRANCH  40  42
BRANCH  40  44
HETATM   44  O16 UNL     1      11.047  10.613 -16.518  1.00  0.00    -0.307 OA
HETATM   45  H37 UNL     1      11.680  11.286 -16.221  1.00  0.00     0.222 HD
ENDBRANCH  40  44
ENDBRANCH  39  40
ENDBRANCH  35  39
BRANCH  36  46
HETATM   46  O12 UNL     1       9.864   6.144 -16.344  1.00  0.00    -0.388 OA
HETATM   47  H35 UNL     1       9.485   5.242 -16.470  1.00  0.00     0.210 HD
ENDBRANCH  36  46
BRANCH  37  48
HETATM   48  N3  UNL     1       7.225   5.633 -14.500  1.00  0.00    -0.297 N 
HETATM   49  C19 UNL     1       6.302   5.385 -15.489  1.00  0.00     0.188 A 
HETATM   50  N4  UNL     1       5.609   4.290 -15.262  1.00  0.00    -0.346 N 
HETATM   51  C20 UNL     1       6.111   3.802 -14.068  1.00  0.00     0.116 A 
HETATM   52  H4  UNL     1       4.868   3.891 -15.837  1.00  0.00     0.167 HD
HETATM   53  C21 UNL     1       5.824   2.650 -13.315  1.00  0.00     0.109 A 
HETATM   54  C23 UNL     1       7.085   4.645 -13.566  1.00  0.00     0.142 A 
HETATM   55  N5  UNL     1       6.495   2.450 -12.154  1.00  0.00    -0.341 N 
HETATM   56  C22 UNL     1       7.403   3.371 -11.776  1.00  0.00     0.183 A 
HETATM   57  H5  UNL     1       6.317   1.625 -11.582  1.00  0.00     0.167 HD
HETATM   58  N6  UNL     1       7.767   4.502 -12.415  1.00  0.00    -0.336 N 
HETATM   59  H6  UNL     1       8.465   5.161 -12.072  1.00  0.00     0.168 HD
BRANCH  53  60
HETATM   60  N7  UNL     1       4.881   1.707 -13.692  1.00  0.00    -0.287 NA
HETATM   61  H33 UNL     1       5.191   0.743 -13.598  1.00  0.00     0.125 HD
HETATM   62  H34 UNL     1       4.402   1.950 -14.549  1.00  0.00     0.125 HD
ENDBRANCH  53  60
ENDBRANCH  37  48
ENDBRANCH  33  34
ENDBRANCH  32  33
ENDBRANCH  28  32
ENDBRANCH  27  28
ENDBRANCH  23  27
ENDBRANCH  22  23
ENDBRANCH  21  22
ENDBRANCH  18  21
ENDBRANCH  17  18
BRANCH  17  63
HETATM   63  O17 UNL     1       3.806  11.859 -17.532  1.00  0.00    -0.385 OA
HETATM   64  H38 UNL     1       4.256  12.463 -18.147  1.00  0.00     0.210 HD
ENDBRANCH  17  63
ENDBRANCH  14  17
ENDBRANCH  12  13
ENDBRANCH  11  12
ENDBRANCH   8  11
ENDBRANCH   6   7
ENDBRANCH   5   6
ENDBRANCH   4   5
ENDBRANCH   2   4
TORSDOF 27
ENDMDL
MODEL 10
REMARK VINA RESULT:      -5.1      3.848      6.652
REMARK  27 active torsions:
REMARK  status: ('A' for Active; 'I' for Inactive)
REMARK    1  A    between atoms: C2_2  and  S1_4 
REMARK    2  A    between atoms: S1_4  and  C3_5 
REMARK    3  A    between atoms: C3_5  and  C4_6 
REMARK    4  A    between atoms: C4_6  and  N1_7 
REMARK       I    between atoms: N1_7  and  C5_8 
REMARK    5  A    between atoms: C5_8  and  C6_10 
REMARK    6  A    between atoms: C6_10  and  C7_11 
REMARK    7  A    between atoms: C7_11  and  N2_12 
REMARK       I    between atoms: N2_12  and  C8_13 
REMARK    8  A    between atoms: C8_13  and  C9_15 
REMARK    9  A    between atoms: C9_15  and  C10_16 
REMARK   10  A    between atoms: C9_15  and  O17_54 
REMARK   11  A    between atoms: C10_16  and  C13_19 
REMARK   12  A    between atoms: C13_19  and  O4_20 
REMARK   13  A    between atoms: O4_20  and  P1_21 
REMARK   14  A    between atoms: P1_21  and  O6_23 
REMARK   15  A    between atoms: P1_21  and  O7_24 
REMARK   16  A    between atoms: O7_24  and  P2_25 
REMARK   17  A    between atoms: P2_25  and  O9_27 
REMARK   18  A    between atoms: P2_25  and  O10_28 
REMARK   19  A    between atoms: O10_28  and  C14_29 
REMARK   20  A    between atoms: C14_29  and  C15_30 
REMARK   21  A    between atoms: C16_31  and  O13_49 
REMARK   22  A    between atoms: C17_32  and  O12_48 
REMARK   23  A    between atoms: C18_33  and  N3_35 
REMARK   24  A    between atoms: C21_40  and  N7_47 
REMARK   25  A    between atoms: O13_49  and  P3_50 
REMARK   26  A    between atoms: P3_50  and  O15_52 
REMARK   27  A    between atoms: P3_50  and  O16_53 
ROOT
HETATM    1  C1  UNL     1      -9.048   8.078 -12.428  1.00  0.00     0.104 C 
HETATM    2  C2  UNL     1      -8.072   7.711 -11.353  1.00  0.00     0.182 C 
HETATM    3  O1  UNL     1      -8.412   7.344 -10.231  1.00  0.00    -0.286 OA
ENDROOT
BRANCH   2   4
HETATM    4  S1  UNL     1      -6.384   7.886 -11.814  1.00  0.00    -0.091 SA
BRANCH   4   5
HETATM    5  C3  UNL     1      -6.153   6.359 -12.781  1.00  0.00     0.102 C 
BRANCH   5   6
HETATM    6  C4  UNL     1      -5.246   6.584 -13.993  1.00  0.00     0.133 C 
BRANCH   6   7
HETATM    7  N1  UNL     1      -3.904   6.983 -13.621  1.00  0.00    -0.360 N 
HETATM    8  C5  UNL     1      -2.976   7.364 -14.562  1.00  0.00     0.219 C 
HETATM    9  O2  UNL     1      -3.197   7.314 -15.766  1.00  0.00    -0.274 OA
HETATM   10  H8  UNL     1      -3.651   6.986 -12.642  1.00  0.00     0.162 HD
BRANCH   8  11
HETATM   11  C6  UNL     1      -1.656   7.795 -13.960  1.00  0.00     0.122 C 
BRANCH  11  12
HETATM   12  C7  UNL     1      -0.935   8.819 -14.837  1.00  0.00     0.132 C 
BRANCH  12  13
HETATM   13  N2  UNL     1       0.032   8.218 -15.732  1.00  0.00    -0.358 N 
HETATM   14  C8  UNL     1       0.015   8.521 -17.081  1.00  0.00     0.247 C 
HETATM   15  O3  UNL     1      -0.872   9.198 -17.586  1.00  0.00    -0.271 OA
HETATM   16  H13 UNL     1       0.934   7.996 -15.316  1.00  0.00     0.162 HD
BRANCH  14  17
HETATM   17  C9  UNL     1       1.198   7.959 -17.883  1.00  0.00     0.219 C 
BRANCH  17  18
HETATM   18  C10 UNL     1       0.960   6.544 -18.474  1.00  0.00     0.009 C 
HETATM   19  C11 UNL     1      -0.517   6.130 -18.407  1.00  0.00     0.020 C 
HETATM   20  C12 UNL     1       1.409   6.465 -19.947  1.00  0.00     0.020 C 
BRANCH  18  21
HETATM   21  C13 UNL     1       1.815   5.572 -17.612  1.00  0.00     0.192 C 
BRANCH  21  22
HETATM   22  O4  UNL     1       3.149   6.015 -17.464  1.00  0.00    -0.296 OA
BRANCH  22  23
HETATM   23  P1  UNL     1       4.415   5.107 -17.844  1.00  0.00     0.401 P 
HETATM   24  O5  UNL     1       4.072   3.865 -18.604  1.00  0.00    -0.631 OA
BRANCH  23  25
HETATM   25  O6  UNL     1       5.217   4.830 -16.476  1.00  0.00    -0.307 OA
HETATM   26  H23 UNL     1       6.172   4.805 -16.615  1.00  0.00     0.222 HD
ENDBRANCH  23  25
BRANCH  23  27
HETATM   27  O7  UNL     1       5.415   6.090 -18.595  1.00  0.00    -0.195 OA
BRANCH  27  28
HETATM   28  P2  UNL     1       5.314   7.655 -18.313  1.00  0.00     0.401 P 
HETATM   29  O8  UNL     1       4.369   8.436 -19.167  1.00  0.00    -0.631 OA
BRANCH  28  30
HETATM   30  O9  UNL     1       4.990   7.726 -16.751  1.00  0.00    -0.307 OA
HETATM   31  H24 UNL     1       4.187   7.216 -16.482  1.00  0.00     0.222 HD
ENDBRANCH  28  30
BRANCH  28  32
HETATM   32  O10 UNL     1       6.832   8.148 -18.321  1.00  0.00    -0.294 OA
BRANCH  32  33
HETATM   33  C14 UNL     1       7.151   9.446 -17.894  1.00  0.00     0.215 C 
BRANCH  33  34
HETATM   34  C15 UNL     1       8.035   9.283 -16.658  1.00  0.00     0.180 C 
HETATM   35  C16 UNL     1       9.471   9.008 -17.084  1.00  0.00     0.197 C 
HETATM   36  C17 UNL     1       9.779   7.630 -16.530  1.00  0.00     0.199 C 
HETATM   37  C18 UNL     1       8.809   7.532 -15.350  1.00  0.00     0.262 C 
HETATM   38  O11 UNL     1       7.617   8.207 -15.810  1.00  0.00    -0.353 OA
BRANCH  35  39
HETATM   39  O13 UNL     1      10.301  10.014 -16.512  1.00  0.00    -0.286 OA
BRANCH  39  40
HETATM   40  P3  UNL     1      11.245  10.794 -17.540  1.00  0.00     0.391 P 
HETATM   41  O14 UNL     1      10.746  10.779 -18.948  1.00  0.00    -0.632 OA
BRANCH  40  42
HETATM   42  O15 UNL     1      12.652  10.091 -17.245  1.00  0.00    -0.307 OA
HETATM   43  H36 UNL     1      13.224  10.105 -18.050  1.00  0.00     0.222 HD
ENDBRANCH  40  42
BRANCH  40  44
HETATM   44  O16 UNL     1      11.390  12.207 -16.824  1.00  0.00    -0.307 OA
HETATM   45  H37 UNL     1      10.958  12.923 -17.315  1.00  0.00     0.222 HD
ENDBRANCH  40  44
ENDBRANCH  39  40
ENDBRANCH  35  39
BRANCH  36  46
HETATM   46  O12 UNL     1      11.175   7.511 -16.244  1.00  0.00    -0.388 OA
HETATM   47  H35 UNL     1      11.263   6.774 -15.593  1.00  0.00     0.210 HD
ENDBRANCH  36  46
BRANCH  37  48
HETATM   48  N3  UNL     1       8.471   6.162 -15.019  1.00  0.00    -0.297 N 
HETATM   49  C19 UNL     1       8.906   5.023 -15.654  1.00  0.00     0.188 A 
HETATM   50  N4  UNL     1       8.520   3.929 -15.034  1.00  0.00    -0.346 N 
HETATM   51  C20 UNL     1       7.804   4.382 -13.940  1.00  0.00     0.116 A 
HETATM   52  H4  UNL     1       8.707   2.962 -15.300  1.00  0.00     0.167 HD
HETATM   53  C21 UNL     1       7.172   3.718 -12.874  1.00  0.00     0.109 A 
HETATM   54  C23 UNL     1       7.733   5.763 -13.940  1.00  0.00     0.142 A 
HETATM   55  N5  UNL     1       6.528   4.459 -11.939  1.00  0.00    -0.341 N 
HETATM   56  C22 UNL     1       6.520   5.799 -12.081  1.00  0.00     0.183 A 
HETATM   57  H5  UNL     1       6.061   4.013 -11.150  1.00  0.00     0.167 HD
HETATM   58  N6  UNL     1       7.095   6.542 -13.049  1.00  0.00    -0.336 N 
HETATM   59  H6  UNL     1       7.051   7.560 -13.099  1.00  0.00     0.168 HD
BRANCH  53  60
HETATM   60  N7  UNL     1       7.165   2.340 -12.731  1.00  0.00    -0.287 NA
HETATM   61  H33 UNL     1       6.854   1.835 -13.558  1.00  0.00     0.125 HD
HETATM   62  H34 UNL     1       6.786   2.037 -11.844  1.00  0.00     0.125 HD
ENDBRANCH  53  60
ENDBRANCH  37  48
ENDBRANCH  33  34
ENDBRANCH  32  33
ENDBRANCH  28  32
ENDBRANCH  27  28
ENDBRANCH  23  27
ENDBRANCH  22  23
ENDBRANCH  21  22
ENDBRANCH  18  21
ENDBRANCH  17  18
BRANCH  17  63
HETATM   63  O17 UNL     1       1.536   8.848 -18.953  1.00  0.00    -0.385 OA
HETATM   64  H38 UNL     1       2.140   9.524 -18.604  1.00  0.00     0.210 HD
ENDBRANCH  17  63
ENDBRANCH  14  17
ENDBRANCH  12  13
ENDBRANCH  11  12
ENDBRANCH   8  11
ENDBRANCH   6   7
ENDBRANCH   5   6
ENDBRANCH   4   5
ENDBRANCH   2   4
TORSDOF 27
ENDMDL
MODEL 11
REMARK VINA RESULT:      -5.1      2.883      7.163
REMARK  27 active torsions:
REMARK  status: ('A' for Active; 'I' for Inactive)
REMARK    1  A    between atoms: C2_2  and  S1_4 
REMARK    2  A    between atoms: S1_4  and  C3_5 
REMARK    3  A    between atoms: C3_5  and  C4_6 
REMARK    4  A    between atoms: C4_6  and  N1_7 
REMARK       I    between atoms: N1_7  and  C5_8 
REMARK    5  A    between atoms: C5_8  and  C6_10 
REMARK    6  A    between atoms: C6_10  and  C7_11 
REMARK    7  A    between atoms: C7_11  and  N2_12 
REMARK       I    between atoms: N2_12  and  C8_13 
REMARK    8  A    between atoms: C8_13  and  C9_15 
REMARK    9  A    between atoms: C9_15  and  C10_16 
REMARK   10  A    between atoms: C9_15  and  O17_54 
REMARK   11  A    between atoms: C10_16  and  C13_19 
REMARK   12  A    between atoms: C13_19  and  O4_20 
REMARK   13  A    between atoms: O4_20  and  P1_21 
REMARK   14  A    between atoms: P1_21  and  O6_23 
REMARK   15  A    between atoms: P1_21  and  O7_24 
REMARK   16  A    between atoms: O7_24  and  P2_25 
REMARK   17  A    between atoms: P2_25  and  O9_27 
REMARK   18  A    between atoms: P2_25  and  O10_28 
REMARK   19  A    between atoms: O10_28  and  C14_29 
REMARK   20  A    between atoms: C14_29  and  C15_30 
REMARK   21  A    between atoms: C16_31  and  O13_49 
REMARK   22  A    between atoms: C17_32  and  O12_48 
REMARK   23  A    between atoms: C18_33  and  N3_35 
REMARK   24  A    between atoms: C21_40  and  N7_47 
REMARK   25  A    between atoms: O13_49  and  P3_50 
REMARK   26  A    between atoms: P3_50  and  O15_52 
REMARK   27  A    between atoms: P3_50  and  O16_53 
ROOT
HETATM    1  C1  UNL     1       2.086  -1.324 -20.723  1.00  0.00     0.104 C 
HETATM    2  C2  UNL     1       1.495  -0.441 -19.667  1.00  0.00     0.182 C 
HETATM    3  O1  UNL     1       0.944   0.629 -19.914  1.00  0.00    -0.286 OA
ENDROOT
BRANCH   2   4
HETATM    4  S1  UNL     1       1.690  -1.042 -18.026  1.00  0.00    -0.091 SA
BRANCH   4   5
HETATM    5  C3  UNL     1       0.863   0.288 -17.094  1.00  0.00     0.102 C 
BRANCH   5   6
HETATM    6  C4  UNL     1       1.100   0.161 -15.588  1.00  0.00     0.133 C 
BRANCH   6   7
HETATM    7  N1  UNL     1       1.860   1.268 -15.045  1.00  0.00    -0.360 N 
HETATM    8  C5  UNL     1       2.722   1.105 -13.986  1.00  0.00     0.219 C 
HETATM    9  O2  UNL     1       2.839   0.041 -13.388  1.00  0.00    -0.274 OA
HETATM   10  H8  UNL     1       1.755   2.182 -15.465  1.00  0.00     0.162 HD
BRANCH   8  11
HETATM   11  C6  UNL     1       3.457   2.373 -13.610  1.00  0.00     0.122 C 
BRANCH  11  12
HETATM   12  C7  UNL     1       4.690   2.086 -12.753  1.00  0.00     0.132 C 
BRANCH  12  13
HETATM   13  N2  UNL     1       5.560   3.234 -12.608  1.00  0.00    -0.358 N 
HETATM   14  C8  UNL     1       6.762   3.287 -13.288  1.00  0.00     0.247 C 
HETATM   15  O3  UNL     1       7.189   2.338 -13.933  1.00  0.00    -0.271 OA
HETATM   16  H13 UNL     1       5.091   4.118 -12.420  1.00  0.00     0.162 HD
BRANCH  14  17
HETATM   17  C9  UNL     1       7.501   4.630 -13.186  1.00  0.00     0.219 C 
BRANCH  17  18
HETATM   18  C10 UNL     1       7.523   5.453 -14.500  1.00  0.00     0.009 C 
HETATM   19  C11 UNL     1       8.701   5.066 -15.406  1.00  0.00     0.020 C 
HETATM   20  C12 UNL     1       6.222   5.266 -15.306  1.00  0.00     0.020 C 
BRANCH  18  21
HETATM   21  C13 UNL     1       7.663   6.942 -14.069  1.00  0.00     0.192 C 
BRANCH  21  22
HETATM   22  O4  UNL     1       6.958   7.818 -14.924  1.00  0.00    -0.296 OA
BRANCH  22  23
HETATM   23  P1  UNL     1       7.391   9.345 -15.155  1.00  0.00     0.401 P 
HETATM   24  O5  UNL     1       8.869   9.574 -15.116  1.00  0.00    -0.631 OA
BRANCH  23  25
HETATM   25  O6  UNL     1       6.568  10.228 -14.090  1.00  0.00    -0.307 OA
HETATM   26  H23 UNL     1       6.716  11.175 -14.214  1.00  0.00     0.222 HD
ENDBRANCH  23  25
BRANCH  23  27
HETATM   27  O7  UNL     1       6.688   9.769 -16.518  1.00  0.00    -0.195 OA
BRANCH  27  28
HETATM   28  P2  UNL     1       7.270   9.211 -17.891  1.00  0.00     0.401 P 
HETATM   29  O8  UNL     1       8.521   9.846 -18.404  1.00  0.00    -0.631 OA
BRANCH  28  30
HETATM   30  O9  UNL     1       7.399   7.642 -17.624  1.00  0.00    -0.307 OA
HETATM   31  H24 UNL     1       8.325   7.300 -17.665  1.00  0.00     0.222 HD
ENDBRANCH  28  30
BRANCH  28  32
HETATM   32  O10 UNL     1       6.017   9.238 -18.881  1.00  0.00    -0.294 OA
BRANCH  32  33
HETATM   33  C14 UNL     1       5.551  10.461 -19.390  1.00  0.00     0.215 C 
BRANCH  33  34
HETATM   34  C15 UNL     1       4.064  10.527 -19.044  1.00  0.00     0.180 C 
HETATM   35  C16 UNL     1       3.892  10.825 -17.561  1.00  0.00     0.197 C 
HETATM   36  C17 UNL     1       3.173   9.611 -17.005  1.00  0.00     0.199 C 
HETATM   37  C18 UNL     1       2.447   9.072 -18.240  1.00  0.00     0.262 C 
HETATM   38  O11 UNL     1       3.370   9.306 -19.326  1.00  0.00    -0.353 OA
BRANCH  35  39
HETATM   39  O13 UNL     1       3.115  12.012 -17.437  1.00  0.00    -0.286 OA
BRANCH  39  40
HETATM   40  P3  UNL     1       3.781  13.185 -16.577  1.00  0.00     0.391 P 
HETATM   41  O14 UNL     1       3.670  14.534 -17.210  1.00  0.00    -0.632 OA
BRANCH  40  42
HETATM   42  O15 UNL     1       5.249  12.592 -16.349  1.00  0.00    -0.307 OA
HETATM   43  H36 UNL     1       5.789  12.672 -17.170  1.00  0.00     0.222 HD
ENDBRANCH  40  42
BRANCH  40  44
HETATM   44  O16 UNL     1       3.082  12.974 -15.164  1.00  0.00    -0.307 OA
HETATM   45  H37 UNL     1       2.862  13.811 -14.725  1.00  0.00     0.222 HD
ENDBRANCH  40  44
ENDBRANCH  39  40
ENDBRANCH  35  39
BRANCH  36  46
HETATM   46  O12 UNL     1       2.370   9.982 -15.881  1.00  0.00    -0.388 OA
HETATM   47  H35 UNL     1       2.998  10.249 -15.168  1.00  0.00     0.210 HD
ENDBRANCH  36  46
BRANCH  37  48
HETATM   48  N3  UNL     1       2.180   7.651 -18.152  1.00  0.00    -0.297 N 
HETATM   49  C19 UNL     1       0.968   7.045 -17.915  1.00  0.00     0.188 A 
HETATM   50  N4  UNL     1       1.034   5.736 -18.023  1.00  0.00    -0.346 N 
HETATM   51  C20 UNL     1       2.354   5.480 -18.351  1.00  0.00     0.116 A 
HETATM   52  H4  UNL     1       0.282   5.061 -17.894  1.00  0.00     0.167 HD
HETATM   53  C21 UNL     1       3.051   4.294 -18.640  1.00  0.00     0.109 A 
HETATM   54  C23 UNL     1       3.084   6.654 -18.395  1.00  0.00     0.142 A 
HETATM   55  N5  UNL     1       4.375   4.372 -18.922  1.00  0.00    -0.341 N 
HETATM   56  C22 UNL     1       4.961   5.585 -18.906  1.00  0.00     0.183 A 
HETATM   57  H5  UNL     1       4.913   3.533 -19.140  1.00  0.00     0.167 HD
HETATM   58  N6  UNL     1       4.397   6.784 -18.653  1.00  0.00    -0.336 N 
HETATM   59  H6  UNL     1       4.900   7.672 -18.656  1.00  0.00     0.168 HD
BRANCH  53  60
HETATM   60  N7  UNL     1       2.457   3.042 -18.644  1.00  0.00    -0.287 NA
HETATM   61  H33 UNL     1       1.919   2.836 -19.483  1.00  0.00     0.125 HD
HETATM   62  H34 UNL     1       2.028   2.806 -17.759  1.00  0.00     0.125 HD
ENDBRANCH  53  60
ENDBRANCH  37  48
ENDBRANCH  33  34
ENDBRANCH  32  33
ENDBRANCH  28  32
ENDBRANCH  27  28
ENDBRANCH  23  27
ENDBRANCH  22  23
ENDBRANCH  21  22
ENDBRANCH  18  21
ENDBRANCH  17  18
BRANCH  17  63
HETATM   63  O17 UNL     1       6.920   5.435 -12.155  1.00  0.00    -0.385 OA
HETATM   64  H38 UNL     1       7.225   6.350 -12.278  1.00  0.00     0.210 HD
ENDBRANCH  17  63
ENDBRANCH  14  17
ENDBRANCH  12  13
ENDBRANCH  11  12
ENDBRANCH   8  11
ENDBRANCH   6   7
ENDBRANCH   5   6
ENDBRANCH   4   5
ENDBRANCH   2   4
TORSDOF 27
ENDMDL
MODEL 12
REMARK VINA RESULT:      -5.1      3.099      7.744
REMARK  27 active torsions:
REMARK  status: ('A' for Active; 'I' for Inactive)
REMARK    1  A    between atoms: C2_2  and  S1_4 
REMARK    2  A    between atoms: S1_4  and  C3_5 
REMARK    3  A    between atoms: C3_5  and  C4_6 
REMARK    4  A    between atoms: C4_6  and  N1_7 
REMARK       I    between atoms: N1_7  and  C5_8 
REMARK    5  A    between atoms: C5_8  and  C6_10 
REMARK    6  A    between atoms: C6_10  and  C7_11 
REMARK    7  A    between atoms: C7_11  and  N2_12 
REMARK       I    between atoms: N2_12  and  C8_13 
REMARK    8  A    between atoms: C8_13  and  C9_15 
REMARK    9  A    between atoms: C9_15  and  C10_16 
REMARK   10  A    between atoms: C9_15  and  O17_54 
REMARK   11  A    between atoms: C10_16  and  C13_19 
REMARK   12  A    between atoms: C13_19  and  O4_20 
REMARK   13  A    between atoms: O4_20  and  P1_21 
REMARK   14  A    between atoms: P1_21  and  O6_23 
REMARK   15  A    between atoms: P1_21  and  O7_24 
REMARK   16  A    between atoms: O7_24  and  P2_25 
REMARK   17  A    between atoms: P2_25  and  O9_27 
REMARK   18  A    between atoms: P2_25  and  O10_28 
REMARK   19  A    between atoms: O10_28  and  C14_29 
REMARK   20  A    between atoms: C14_29  and  C15_30 
REMARK   21  A    between atoms: C16_31  and  O13_49 
REMARK   22  A    between atoms: C17_32  and  O12_48 
REMARK   23  A    between atoms: C18_33  and  N3_35 
REMARK   24  A    between atoms: C21_40  and  N7_47 
REMARK   25  A    between atoms: O13_49  and  P3_50 
REMARK   26  A    between atoms: P3_50  and  O15_52 
REMARK   27  A    between atoms: P3_50  and  O16_53 
ROOT
HETATM    1  C1  UNL     1       2.687   2.448 -13.948  1.00  0.00     0.104 C 
HETATM    2  C2  UNL     1       4.037   2.153 -13.370  1.00  0.00     0.182 C 
HETATM    3  O1  UNL     1       5.059   2.077 -14.048  1.00  0.00    -0.286 OA
ENDROOT
BRANCH   2   4
HETATM    4  S1  UNL     1       4.038   1.882 -11.633  1.00  0.00    -0.091 SA
BRANCH   4   5
HETATM    5  C3  UNL     1       4.045   3.604 -11.036  1.00  0.00     0.102 C 
BRANCH   5   6
HETATM    6  C4  UNL     1       5.384   3.981 -10.398  1.00  0.00     0.133 C 
BRANCH   6   7
HETATM    7  N1  UNL     1       6.337   4.496 -11.359  1.00  0.00    -0.360 N 
HETATM    8  C5  UNL     1       7.286   3.689 -11.942  1.00  0.00     0.219 C 
HETATM    9  O2  UNL     1       7.435   2.514 -11.628  1.00  0.00    -0.274 OA
HETATM   10  H8  UNL     1       6.294   5.475 -11.610  1.00  0.00     0.162 HD
BRANCH   8  11
HETATM   11  C6  UNL     1       8.145   4.411 -12.958  1.00  0.00     0.122 C 
BRANCH  11  12
HETATM   12  C7  UNL     1       7.360   4.764 -14.221  1.00  0.00     0.132 C 
BRANCH  12  13
HETATM   13  N2  UNL     1       7.970   5.828 -14.989  1.00  0.00    -0.358 N 
HETATM   14  C8  UNL     1       7.766   7.149 -14.633  1.00  0.00     0.247 C 
HETATM   15  O3  UNL     1       6.984   7.472 -13.748  1.00  0.00    -0.271 OA
HETATM   16  H13 UNL     1       8.857   5.597 -15.431  1.00  0.00     0.162 HD
BRANCH  14  17
HETATM   17  C9  UNL     1       8.610   8.165 -15.418  1.00  0.00     0.219 C 
BRANCH  17  18
HETATM   18  C10 UNL     1       7.847   8.889 -16.558  1.00  0.00     0.009 C 
HETATM   19  C11 UNL     1       8.779   9.755 -17.419  1.00  0.00     0.020 C 
HETATM   20  C12 UNL     1       7.136   7.886 -17.489  1.00  0.00     0.020 C 
BRANCH  18  21
HETATM   21  C13 UNL     1       6.792   9.794 -15.859  1.00  0.00     0.192 C 
BRANCH  21  22
HETATM   22  O4  UNL     1       7.191  11.149 -15.812  1.00  0.00    -0.296 OA
BRANCH  22  23
HETATM   23  P1  UNL     1       6.218  12.357 -16.216  1.00  0.00     0.401 P 
HETATM   24  O5  UNL     1       6.435  12.881 -17.600  1.00  0.00    -0.631 OA
BRANCH  23  25
HETATM   25  O6  UNL     1       6.365  13.476 -15.068  1.00  0.00    -0.307 OA
HETATM   26  H23 UNL     1       7.067  13.261 -14.440  1.00  0.00     0.222 HD
ENDBRANCH  23  25
BRANCH  23  27
HETATM   27  O7  UNL     1       4.750  11.815 -15.933  1.00  0.00    -0.195 OA
BRANCH  27  28
HETATM   28  P2  UNL     1       3.603  12.856 -15.557  1.00  0.00     0.401 P 
HETATM   29  O8  UNL     1       3.555  13.327 -14.140  1.00  0.00    -0.631 OA
BRANCH  28  30
HETATM   30  O9  UNL     1       3.805  14.025 -16.625  1.00  0.00    -0.307 OA
HETATM   31  H24 UNL     1       4.557  13.875 -17.250  1.00  0.00     0.222 HD
ENDBRANCH  28  30
BRANCH  28  32
HETATM   32  O10 UNL     1       2.269  12.177 -16.113  1.00  0.00    -0.294 OA
BRANCH  32  33
HETATM   33  C14 UNL     1       2.063  12.062 -17.497  1.00  0.00     0.215 C 
BRANCH  33  34
HETATM   34  C15 UNL     1       0.712  11.370 -17.671  1.00  0.00     0.180 C 
HETATM   35  C16 UNL     1       0.018  11.247 -16.321  1.00  0.00     0.197 C 
HETATM   36  C17 UNL     1      -0.120   9.753 -16.095  1.00  0.00     0.199 C 
HETATM   37  C18 UNL     1      -0.113   9.208 -17.525  1.00  0.00     0.262 C 
HETATM   38  O11 UNL     1       0.826  10.054 -18.225  1.00  0.00    -0.353 OA
BRANCH  35  39
HETATM   39  O13 UNL     1      -1.246  11.895 -16.415  1.00  0.00    -0.286 OA
BRANCH  39  40
HETATM   40  P3  UNL     1      -1.542  12.994 -15.292  1.00  0.00     0.391 P 
HETATM   41  O14 UNL     1      -2.657  13.926 -15.640  1.00  0.00    -0.632 OA
BRANCH  40  42
HETATM   42  O15 UNL     1      -0.084  13.622 -15.096  1.00  0.00    -0.307 OA
HETATM   43  H36 UNL     1       0.522  12.970 -14.671  1.00  0.00     0.222 HD
ENDBRANCH  40  42
BRANCH  40  44
HETATM   44  O16 UNL     1      -1.720  12.083 -14.000  1.00  0.00    -0.307 OA
HETATM   45  H37 UNL     1      -1.312  11.209 -14.096  1.00  0.00     0.222 HD
ENDBRANCH  40  44
ENDBRANCH  39  40
ENDBRANCH  35  39
BRANCH  36  46
HETATM   46  O12 UNL     1      -1.272   9.478 -15.293  1.00  0.00    -0.388 OA
HETATM   47  H35 UNL     1      -1.001   8.781 -14.649  1.00  0.00     0.210 HD
ENDBRANCH  36  46
BRANCH  37  48
HETATM   48  N3  UNL     1       0.352   7.837 -17.596  1.00  0.00    -0.297 N 
HETATM   49  C19 UNL     1      -0.369   6.735 -17.991  1.00  0.00     0.188 A 
HETATM   50  N4  UNL     1       0.375   5.653 -18.067  1.00  0.00    -0.346 N 
HETATM   51  C20 UNL     1       1.643   6.077 -17.708  1.00  0.00     0.116 A 
HETATM   52  H4  UNL     1       0.084   4.712 -18.331  1.00  0.00     0.167 HD
HETATM   53  C21 UNL     1       2.882   5.417 -17.632  1.00  0.00     0.109 A 
HETATM   54  C23 UNL     1       1.634   7.419 -17.376  1.00  0.00     0.142 A 
HETATM   55  N5  UNL     1       3.968   6.120 -17.227  1.00  0.00    -0.341 N 
HETATM   56  C22 UNL     1       3.805   7.421 -16.912  1.00  0.00     0.183 A 
HETATM   57  H5  UNL     1       4.884   5.677 -17.163  1.00  0.00     0.167 HD
HETATM   58  N6  UNL     1       2.676   8.158 -16.954  1.00  0.00    -0.336 N 
HETATM   59  H6  UNL     1       2.620   9.144 -16.701  1.00  0.00     0.168 HD
BRANCH  53  60
HETATM   60  N7  UNL     1       3.052   4.077 -17.941  1.00  0.00    -0.287 NA
HETATM   61  H33 UNL     1       4.024   3.787 -18.024  1.00  0.00     0.125 HD
HETATM   62  H34 UNL     1       2.417   3.753 -18.657  1.00  0.00     0.125 HD
ENDBRANCH  53  60
ENDBRANCH  37  48
ENDBRANCH  33  34
ENDBRANCH  32  33
ENDBRANCH  28  32
ENDBRANCH  27  28
ENDBRANCH  23  27
ENDBRANCH  22  23
ENDBRANCH  21  22
ENDBRANCH  18  21
ENDBRANCH  17  18
BRANCH  17  63
HETATM   63  O17 UNL     1       9.144   9.153 -14.530  1.00  0.00    -0.385 OA
HETATM   64  H38 UNL     1       8.399   9.630 -14.126  1.00  0.00     0.210 HD
ENDBRANCH  17  63
ENDBRANCH  14  17
ENDBRANCH  12  13
ENDBRANCH  11  12
ENDBRANCH   8  11
ENDBRANCH   6   7
ENDBRANCH   5   6
ENDBRANCH   4   5
ENDBRANCH   2   4
TORSDOF 27
ENDMDL
MODEL 13
REMARK VINA RESULT:      -5.0      6.583     11.074
REMARK  27 active torsions:
REMARK  status: ('A' for Active; 'I' for Inactive)
REMARK    1  A    between atoms: C2_2  and  S1_4 
REMARK    2  A    between atoms: S1_4  and  C3_5 
REMARK    3  A    between atoms: C3_5  and  C4_6 
REMARK    4  A    between atoms: C4_6  and  N1_7 
REMARK       I    between atoms: N1_7  and  C5_8 
REMARK    5  A    between atoms: C5_8  and  C6_10 
REMARK    6  A    between atoms: C6_10  and  C7_11 
REMARK    7  A    between atoms: C7_11  and  N2_12 
REMARK       I    between atoms: N2_12  and  C8_13 
REMARK    8  A    between atoms: C8_13  and  C9_15 
REMARK    9  A    between atoms: C9_15  and  C10_16 
REMARK   10  A    between atoms: C9_15  and  O17_54 
REMARK   11  A    between atoms: C10_16  and  C13_19 
REMARK   12  A    between atoms: C13_19  and  O4_20 
REMARK   13  A    between atoms: O4_20  and  P1_21 
REMARK   14  A    between atoms: P1_21  and  O6_23 
REMARK   15  A    between atoms: P1_21  and  O7_24 
REMARK   16  A    between atoms: O7_24  and  P2_25 
REMARK   17  A    between atoms: P2_25  and  O9_27 
REMARK   18  A    between atoms: P2_25  and  O10_28 
REMARK   19  A    between atoms: O10_28  and  C14_29 
REMARK   20  A    between atoms: C14_29  and  C15_30 
REMARK   21  A    between atoms: C16_31  and  O13_49 
REMARK   22  A    between atoms: C17_32  and  O12_48 
REMARK   23  A    between atoms: C18_33  and  N3_35 
REMARK   24  A    between atoms: C21_40  and  N7_47 
REMARK   25  A    between atoms: O13_49  and  P3_50 
REMARK   26  A    between atoms: P3_50  and  O15_52 
REMARK   27  A    between atoms: P3_50  and  O16_53 
ROOT
HETATM    1  C1  UNL     1      16.059   0.707 -13.237  1.00  0.00     0.104 C 
HETATM    2  C2  UNL     1      16.300   2.021 -13.916  1.00  0.00     0.182 C 
HETATM    3  O1  UNL     1      15.512   2.523 -14.713  1.00  0.00    -0.286 OA
ENDROOT
BRANCH   2   4
HETATM    4  S1  UNL     1      17.835   2.776 -13.508  1.00  0.00    -0.091 SA
BRANCH   4   5
HETATM    5  C3  UNL     1      17.696   4.325 -14.458  1.00  0.00     0.102 C 
BRANCH   5   6
HETATM    6  C4  UNL     1      18.987   4.650 -15.211  1.00  0.00     0.133 C 
BRANCH   6   7
HETATM    7  N1  UNL     1      18.877   5.846 -16.021  1.00  0.00    -0.360 N 
HETATM    8  C5  UNL     1      19.297   7.072 -15.561  1.00  0.00     0.219 C 
HETATM    9  O2  UNL     1      19.712   7.243 -14.421  1.00  0.00    -0.274 OA
HETATM   10  H8  UNL     1      18.487   5.769 -16.950  1.00  0.00     0.162 HD
BRANCH   8  11
HETATM   11  C6  UNL     1      19.145   8.179 -16.583  1.00  0.00     0.122 C 
BRANCH  11  12
HETATM   12  C7  UNL     1      17.810   8.094 -17.321  1.00  0.00     0.132 C 
BRANCH  12  13
HETATM   13  N2  UNL     1      17.061   9.332 -17.283  1.00  0.00    -0.358 N 
HETATM   14  C8  UNL     1      15.725   9.350 -17.642  1.00  0.00     0.247 C 
HETATM   15  O3  UNL     1      15.164   8.368 -18.112  1.00  0.00    -0.271 OA
HETATM   16  H13 UNL     1      17.363  10.006 -16.583  1.00  0.00     0.162 HD
BRANCH  14  17
HETATM   17  C9  UNL     1      15.007  10.683 -17.387  1.00  0.00     0.219 C 
BRANCH  17  18
HETATM   18  C10 UNL     1      14.279  10.771 -16.020  1.00  0.00     0.009 C 
HETATM   19  C11 UNL     1      13.315   9.595 -15.803  1.00  0.00     0.020 C 
HETATM   20  C12 UNL     1      15.280  10.788 -14.847  1.00  0.00     0.020 C 
BRANCH  18  21
HETATM   21  C13 UNL     1      13.479  12.104 -16.047  1.00  0.00     0.192 C 
BRANCH  21  22
HETATM   22  O4  UNL     1      13.060  12.454 -17.351  1.00  0.00    -0.296 OA
BRANCH  22  23
HETATM   23  P1  UNL     1      11.551  12.265 -17.860  1.00  0.00     0.401 P 
HETATM   24  O5  UNL     1      10.993  13.455 -18.575  1.00  0.00    -0.631 OA
BRANCH  23  25
HETATM   25  O6  UNL     1      10.683  11.808 -16.584  1.00  0.00    -0.307 OA
HETATM   26  H23 UNL     1      10.750  12.439 -15.856  1.00  0.00     0.222 HD
ENDBRANCH  23  25
BRANCH  23  27
HETATM   27  O7  UNL     1      11.572  10.924 -18.716  1.00  0.00    -0.195 OA
BRANCH  27  28
HETATM   28  P2  UNL     1      10.190  10.301 -19.204  1.00  0.00     0.401 P 
HETATM   29  O8  UNL     1       9.268  11.204 -19.957  1.00  0.00    -0.631 OA
BRANCH  28  30
HETATM   30  O9  UNL     1      10.640   9.004 -20.020  1.00  0.00    -0.307 OA
HETATM   31  H24 UNL     1      11.604   8.799 -19.951  1.00  0.00     0.222 HD
ENDBRANCH  28  30
BRANCH  28  32
HETATM   32  O10 UNL     1       9.585   9.626 -17.890  1.00  0.00    -0.294 OA
BRANCH  32  33
HETATM   33  C14 UNL     1      10.130   8.429 -17.400  1.00  0.00     0.215 C 
BRANCH  33  34
HETATM   34  C15 UNL     1       9.644   8.297 -15.957  1.00  0.00     0.180 C 
HETATM   35  C16 UNL     1       8.431   7.378 -15.904  1.00  0.00     0.197 C 
HETATM   36  C17 UNL     1       7.307   8.254 -15.384  1.00  0.00     0.199 C 
HETATM   37  C18 UNL     1       8.069   9.326 -14.601  1.00  0.00     0.262 C 
HETATM   38  O11 UNL     1       9.266   9.552 -15.378  1.00  0.00    -0.353 OA
BRANCH  35  39
HETATM   39  O13 UNL     1       8.730   6.305 -15.017  1.00  0.00    -0.286 OA
BRANCH  39  40
HETATM   40  P3  UNL     1       8.522   4.837 -15.617  1.00  0.00     0.391 P 
HETATM   41  O14 UNL     1       8.582   3.753 -14.590  1.00  0.00    -0.632 OA
BRANCH  40  42
HETATM   42  O15 UNL     1       9.629   4.826 -16.771  1.00  0.00    -0.307 OA
HETATM   43  H36 UNL     1       9.468   5.556 -17.416  1.00  0.00     0.222 HD
ENDBRANCH  40  42
BRANCH  40  44
HETATM   44  O16 UNL     1       7.162   5.015 -16.421  1.00  0.00    -0.307 OA
HETATM   45  H37 UNL     1       7.286   4.979 -17.383  1.00  0.00     0.222 HD
ENDBRANCH  40  44
ENDBRANCH  39  40
ENDBRANCH  35  39
BRANCH  36  46
HETATM   46  O12 UNL     1       6.357   7.466 -14.663  1.00  0.00    -0.388 OA
HETATM   47  H35 UNL     1       6.581   7.565 -13.708  1.00  0.00     0.210 HD
ENDBRANCH  36  46
BRANCH  37  48
HETATM   48  N3  UNL     1       7.335  10.572 -14.504  1.00  0.00    -0.297 N 
HETATM   49  C19 UNL     1       6.731  11.095 -13.385  1.00  0.00     0.188 A 
HETATM   50  N4  UNL     1       6.255  12.303 -13.594  1.00  0.00    -0.346 N 
HETATM   51  C20 UNL     1       6.570  12.579 -14.913  1.00  0.00     0.116 A 
HETATM   52  H4  UNL     1       5.763  12.903 -12.933  1.00  0.00     0.167 HD
HETATM   53  C21 UNL     1       6.376  13.711 -15.723  1.00  0.00     0.109 A 
HETATM   54  C23 UNL     1       7.205  11.499 -15.500  1.00  0.00     0.142 A 
HETATM   55  N5  UNL     1       6.797  13.668 -17.010  1.00  0.00    -0.341 N 
HETATM   56  C22 UNL     1       7.380  12.537 -17.454  1.00  0.00     0.183 A 
HETATM   57  H5  UNL     1       6.677  14.472 -17.627  1.00  0.00     0.167 HD
HETATM   58  N6  UNL     1       7.627  11.399 -16.773  1.00  0.00    -0.336 N 
HETATM   59  H6  UNL     1       8.075  10.573 -17.170  1.00  0.00     0.168 HD
BRANCH  53  60
HETATM   60  N7  UNL     1       5.764  14.871 -15.276  1.00  0.00    -0.287 NA
HETATM   61  H33 UNL     1       4.956  15.157 -15.825  1.00  0.00     0.125 HD
HETATM   62  H34 UNL     1       6.424  15.595 -15.027  1.00  0.00     0.125 HD
ENDBRANCH  53  60
ENDBRANCH  37  48
ENDBRANCH  33  34
ENDBRANCH  32  33
ENDBRANCH  28  32
ENDBRANCH  27  28
ENDBRANCH  23  27
ENDBRANCH  22  23
ENDBRANCH  21  22
ENDBRANCH  18  21
ENDBRANCH  17  18
BRANCH  17  63
HETATM   63  O17 UNL     1      15.937  11.769 -17.477  1.00  0.00    -0.385 OA
HETATM   64  H38 UNL     1      16.428  11.815 -16.640  1.00  0.00     0.210 HD
ENDBRANCH  17  63
ENDBRANCH  14  17
ENDBRANCH  12  13
ENDBRANCH  11  12
ENDBRANCH   8  11
ENDBRANCH   6   7
ENDBRANCH   5   6
ENDBRANCH   4   5
ENDBRANCH   2   4
TORSDOF 27
ENDMDL
MODEL 14
REMARK VINA RESULT:      -5.0      4.248      8.839
REMARK  27 active torsions:
REMARK  status: ('A' for Active; 'I' for Inactive)
REMARK    1  A    between atoms: C2_2  and  S1_4 
REMARK    2  A    between atoms: S1_4  and  C3_5 
REMARK    3  A    between atoms: C3_5  and  C4_6 
REMARK    4  A    between atoms: C4_6  and  N1_7 
REMARK       I    between atoms: N1_7  and  C5_8 
REMARK    5  A    between atoms: C5_8  and  C6_10 
REMARK    6  A    between atoms: C6_10  and  C7_11 
REMARK    7  A    between atoms: C7_11  and  N2_12 
REMARK       I    between atoms: N2_12  and  C8_13 
REMARK    8  A    between atoms: C8_13  and  C9_15 
REMARK    9  A    between atoms: C9_15  and  C10_16 
REMARK   10  A    between atoms: C9_15  and  O17_54 
REMARK   11  A    between atoms: C10_16  and  C13_19 
REMARK   12  A    between atoms: C13_19  and  O4_20 
REMARK   13  A    between atoms: O4_20  and  P1_21 
REMARK   14  A    between atoms: P1_21  and  O6_23 
REMARK   15  A    between atoms: P1_21  and  O7_24 
REMARK   16  A    between atoms: O7_24  and  P2_25 
REMARK   17  A    between atoms: P2_25  and  O9_27 
REMARK   18  A    between atoms: P2_25  and  O10_28 
REMARK   19  A    between atoms: O10_28  and  C14_29 
REMARK   20  A    between atoms: C14_29  and  C15_30 
REMARK   21  A    between atoms: C16_31  and  O13_49 
REMARK   22  A    between atoms: C17_32  and  O12_48 
REMARK   23  A    between atoms: C18_33  and  N3_35 
REMARK   24  A    between atoms: C21_40  and  N7_47 
REMARK   25  A    between atoms: O13_49  and  P3_50 
REMARK   26  A    between atoms: P3_50  and  O15_52 
REMARK   27  A    between atoms: P3_50  and  O16_53 
ROOT
HETATM    1  C1  UNL     1       3.927   2.051 -11.897  1.00  0.00     0.104 C 
HETATM    2  C2  UNL     1       5.019   2.175 -10.879  1.00  0.00     0.182 C 
HETATM    3  O1  UNL     1       5.369   1.251 -10.150  1.00  0.00    -0.286 OA
ENDROOT
BRANCH   2   4
HETATM    4  S1  UNL     1       5.740   3.776 -10.781  1.00  0.00    -0.091 SA
BRANCH   4   5
HETATM    5  C3  UNL     1       7.332   3.465 -11.610  1.00  0.00     0.102 C 
BRANCH   5   6
HETATM    6  C4  UNL     1       7.158   3.241 -13.113  1.00  0.00     0.133 C 
BRANCH   6   7
HETATM    7  N1  UNL     1       7.129   4.480 -13.863  1.00  0.00    -0.360 N 
HETATM    8  C5  UNL     1       8.203   4.896 -14.615  1.00  0.00     0.219 C 
HETATM    9  O2  UNL     1       9.270   4.293 -14.632  1.00  0.00    -0.274 OA
HETATM   10  H8  UNL     1       6.291   5.046 -13.836  1.00  0.00     0.162 HD
BRANCH   8  11
HETATM   11  C6  UNL     1       7.947   6.186 -15.364  1.00  0.00     0.122 C 
BRANCH  11  12
HETATM   12  C7  UNL     1       6.734   6.935 -14.812  1.00  0.00     0.132 C 
BRANCH  12  13
HETATM   13  N2  UNL     1       5.781   7.306 -15.837  1.00  0.00    -0.358 N 
HETATM   14  C8  UNL     1       4.977   6.346 -16.421  1.00  0.00     0.247 C 
HETATM   15  O3  UNL     1       5.115   5.151 -16.190  1.00  0.00    -0.271 OA
HETATM   16  H13 UNL     1       5.402   8.248 -15.762  1.00  0.00     0.162 HD
BRANCH  14  17
HETATM   17  C9  UNL     1       3.893   6.897 -17.360  1.00  0.00     0.219 C 
BRANCH  17  18
HETATM   18  C10 UNL     1       4.367   7.137 -18.818  1.00  0.00     0.009 C 
HETATM   19  C11 UNL     1       5.166   5.947 -19.370  1.00  0.00     0.020 C 
HETATM   20  C12 UNL     1       3.176   7.390 -19.764  1.00  0.00     0.020 C 
BRANCH  18  21
HETATM   21  C13 UNL     1       5.276   8.399 -18.769  1.00  0.00     0.192 C 
BRANCH  21  22
HETATM   22  O4  UNL     1       6.648   8.071 -18.683  1.00  0.00    -0.296 OA
BRANCH  22  23
HETATM   23  P1  UNL     1       7.784   9.157 -18.368  1.00  0.00     0.401 P 
HETATM   24  O5  UNL     1       7.963  10.184 -19.441  1.00  0.00    -0.631 OA
BRANCH  23  25
HETATM   25  O6  UNL     1       9.127   8.339 -18.021  1.00  0.00    -0.307 OA
HETATM   26  H23 UNL     1       9.393   7.757 -18.745  1.00  0.00     0.222 HD
ENDBRANCH  23  25
BRANCH  23  27
HETATM   27  O7  UNL     1       7.405   9.747 -16.940  1.00  0.00    -0.195 OA
BRANCH  27  28
HETATM   28  P2  UNL     1       8.562  10.339 -16.019  1.00  0.00     0.401 P 
HETATM   29  O8  UNL     1       9.414   9.355 -15.286  1.00  0.00    -0.631 OA
BRANCH  28  30
HETATM   30  O9  UNL     1       9.373  11.288 -17.014  1.00  0.00    -0.307 OA
HETATM   31  H24 UNL     1       9.319  12.249 -16.789  1.00  0.00     0.222 HD
ENDBRANCH  28  30
BRANCH  28  32
HETATM   32  O10 UNL     1       7.818  11.427 -15.116  1.00  0.00    -0.294 OA
BRANCH  32  33
HETATM   33  C14 UNL     1       6.923  11.016 -14.116  1.00  0.00     0.215 C 
BRANCH  33  34
HETATM   34  C15 UNL     1       5.905  12.145 -13.965  1.00  0.00     0.180 C 
HETATM   35  C16 UNL     1       5.302  12.481 -15.322  1.00  0.00     0.197 C 
HETATM   36  C17 UNL     1       5.703  13.922 -15.575  1.00  0.00     0.199 C 
HETATM   37  C18 UNL     1       5.900  14.456 -14.154  1.00  0.00     0.262 C 
HETATM   38  O11 UNL     1       6.477  13.346 -13.433  1.00  0.00    -0.353 OA
BRANCH  35  39
HETATM   39  O13 UNL     1       3.890  12.325 -15.229  1.00  0.00    -0.286 OA
BRANCH  39  40
HETATM   40  P3  UNL     1       3.228  11.372 -16.328  1.00  0.00     0.391 P 
HETATM   41  O14 UNL     1       1.733  11.376 -16.307  1.00  0.00    -0.632 OA
BRANCH  40  42
HETATM   42  O15 UNL     1       3.970   9.991 -16.013  1.00  0.00    -0.307 OA
HETATM   43  H36 UNL     1       4.135   9.486 -16.845  1.00  0.00     0.222 HD
ENDBRANCH  40  42
BRANCH  40  44
HETATM   44  O16 UNL     1       3.946  11.875 -17.655  1.00  0.00    -0.307 OA
HETATM   45  H37 UNL     1       4.634  11.264 -17.964  1.00  0.00     0.222 HD
ENDBRANCH  40  44
ENDBRANCH  39  40
ENDBRANCH  35  39
BRANCH  36  46
HETATM   46  O12 UNL     1       4.726  14.573 -16.392  1.00  0.00    -0.388 OA
HETATM   47  H35 UNL     1       4.086  13.874 -16.670  1.00  0.00     0.210 HD
ENDBRANCH  36  46
BRANCH  37  48
HETATM   48  N3  UNL     1       6.821  15.574 -14.103  1.00  0.00    -0.297 N 
HETATM   49  C19 UNL     1       6.541  16.865 -13.718  1.00  0.00     0.188 A 
HETATM   50  N4  UNL     1       7.621  17.613 -13.659  1.00  0.00    -0.346 N 
HETATM   51  C20 UNL     1       8.653  16.765 -14.020  1.00  0.00     0.116 A 
HETATM   52  H4  UNL     1       7.684  18.599 -13.405  1.00  0.00     0.167 HD
HETATM   53  C21 UNL     1      10.044  16.942 -14.111  1.00  0.00     0.109 A 
HETATM   54  C23 UNL     1       8.166  15.509 -14.336  1.00  0.00     0.142 A 
HETATM   55  N5  UNL     1      10.807  15.897 -14.514  1.00  0.00    -0.341 N 
HETATM   56  C22 UNL     1      10.191  14.735 -14.812  1.00  0.00     0.183 A 
HETATM   57  H5  UNL     1      11.820  15.986 -14.588  1.00  0.00     0.167 HD
HETATM   58  N6  UNL     1       8.875  14.446 -14.754  1.00  0.00    -0.336 N 
HETATM   59  H6  UNL     1       8.471  13.541 -14.995  1.00  0.00     0.168 HD
BRANCH  53  60
HETATM   60  N7  UNL     1      10.681  18.138 -13.820  1.00  0.00    -0.287 NA
HETATM   61  H33 UNL     1      10.201  18.710 -13.128  1.00  0.00     0.125 HD
HETATM   62  H34 UNL     1      11.026  18.613 -14.643  1.00  0.00     0.125 HD
ENDBRANCH  53  60
ENDBRANCH  37  48
ENDBRANCH  33  34
ENDBRANCH  32  33
ENDBRANCH  28  32
ENDBRANCH  27  28
ENDBRANCH  23  27
ENDBRANCH  22  23
ENDBRANCH  21  22
ENDBRANCH  18  21
ENDBRANCH  17  18
BRANCH  17  63
HETATM   63  O17 UNL     1       2.768   6.012 -17.388  1.00  0.00    -0.385 OA
HETATM   64  H38 UNL     1       1.976   6.538 -17.587  1.00  0.00     0.210 HD
ENDBRANCH  17  63
ENDBRANCH  14  17
ENDBRANCH  12  13
ENDBRANCH  11  12
ENDBRANCH   8  11
ENDBRANCH   6   7
ENDBRANCH   5   6
ENDBRANCH   4   5
ENDBRANCH   2   4
TORSDOF 27
ENDMDL
MODEL 15
REMARK VINA RESULT:      -4.9      3.079      8.576
REMARK  27 active torsions:
REMARK  status: ('A' for Active; 'I' for Inactive)
REMARK    1  A    between atoms: C2_2  and  S1_4 
REMARK    2  A    between atoms: S1_4  and  C3_5 
REMARK    3  A    between atoms: C3_5  and  C4_6 
REMARK    4  A    between atoms: C4_6  and  N1_7 
REMARK       I    between atoms: N1_7  and  C5_8 
REMARK    5  A    between atoms: C5_8  and  C6_10 
REMARK    6  A    between atoms: C6_10  and  C7_11 
REMARK    7  A    between atoms: C7_11  and  N2_12 
REMARK       I    between atoms: N2_12  and  C8_13 
REMARK    8  A    between atoms: C8_13  and  C9_15 
REMARK    9  A    between atoms: C9_15  and  C10_16 
REMARK   10  A    between atoms: C9_15  and  O17_54 
REMARK   11  A    between atoms: C10_16  and  C13_19 
REMARK   12  A    between atoms: C13_19  and  O4_20 
REMARK   13  A    between atoms: O4_20  and  P1_21 
REMARK   14  A    between atoms: P1_21  and  O6_23 
REMARK   15  A    between atoms: P1_21  and  O7_24 
REMARK   16  A    between atoms: O7_24  and  P2_25 
REMARK   17  A    between atoms: P2_25  and  O9_27 
REMARK   18  A    between atoms: P2_25  and  O10_28 
REMARK   19  A    between atoms: O10_28  and  C14_29 
REMARK   20  A    between atoms: C14_29  and  C15_30 
REMARK   21  A    between atoms: C16_31  and  O13_49 
REMARK   22  A    between atoms: C17_32  and  O12_48 
REMARK   23  A    between atoms: C18_33  and  N3_35 
REMARK   24  A    between atoms: C21_40  and  N7_47 
REMARK   25  A    between atoms: O13_49  and  P3_50 
REMARK   26  A    between atoms: P3_50  and  O15_52 
REMARK   27  A    between atoms: P3_50  and  O16_53 
ROOT
HETATM    1  C1  UNL     1       5.460   2.776 -13.117  1.00  0.00     0.104 C 
HETATM    2  C2  UNL     1       6.208   3.844 -12.379  1.00  0.00     0.182 C 
HETATM    3  O1  UNL     1       5.801   4.356 -11.339  1.00  0.00    -0.286 OA
ENDROOT
BRANCH   2   4
HETATM    4  S1  UNL     1       7.710   4.340 -13.147  1.00  0.00    -0.091 SA
BRANCH   4   5
HETATM    5  C3  UNL     1       7.098   5.680 -14.219  1.00  0.00     0.102 C 
BRANCH   5   6
HETATM    6  C4  UNL     1       8.087   6.845 -14.297  1.00  0.00     0.133 C 
BRANCH   6   7
HETATM    7  N1  UNL     1       8.521   7.120 -15.651  1.00  0.00    -0.360 N 
HETATM    8  C5  UNL     1       9.598   7.934 -15.915  1.00  0.00     0.219 C 
HETATM    9  O2  UNL     1      10.201   8.536 -15.034  1.00  0.00    -0.274 OA
HETATM   10  H8  UNL     1       8.020   6.694 -16.419  1.00  0.00     0.162 HD
BRANCH   8  11
HETATM   11  C6  UNL     1       9.918   8.046 -17.390  1.00  0.00     0.122 C 
BRANCH  11  12
HETATM   12  C7  UNL     1       9.219   9.241 -18.037  1.00  0.00     0.132 C 
BRANCH  12  13
HETATM   13  N2  UNL     1       8.730  10.203 -17.072  1.00  0.00    -0.358 N 
HETATM   14  C8  UNL     1       7.710  11.073 -17.411  1.00  0.00     0.247 C 
HETATM   15  O3  UNL     1       7.269  11.147 -18.551  1.00  0.00    -0.271 OA
HETATM   16  H13 UNL     1       8.792   9.916 -16.097  1.00  0.00     0.162 HD
BRANCH  14  17
HETATM   17  C9  UNL     1       7.167  11.915 -16.247  1.00  0.00     0.219 C 
BRANCH  17  18
HETATM   18  C10 UNL     1       6.213  11.151 -15.292  1.00  0.00     0.009 C 
HETATM   19  C11 UNL     1       6.978  10.342 -14.234  1.00  0.00     0.020 C 
HETATM   20  C12 UNL     1       5.261  12.115 -14.555  1.00  0.00     0.020 C 
BRANCH  18  21
HETATM   21  C13 UNL     1       5.389  10.187 -16.192  1.00  0.00     0.192 C 
BRANCH  21  22
HETATM   22  O4  UNL     1       5.973   8.903 -16.282  1.00  0.00    -0.296 OA
BRANCH  22  23
HETATM   23  P1  UNL     1       5.547   7.828 -17.392  1.00  0.00     0.401 P 
HETATM   24  O5  UNL     1       6.394   6.595 -17.407  1.00  0.00    -0.631 OA
BRANCH  23  25
HETATM   25  O6  UNL     1       5.506   8.605 -18.801  1.00  0.00    -0.307 OA
HETATM   26  H23 UNL     1       4.641   9.000 -18.971  1.00  0.00     0.222 HD
ENDBRANCH  23  25
BRANCH  23  27
HETATM   27  O7  UNL     1       3.998   7.567 -17.137  1.00  0.00    -0.195 OA
BRANCH  27  28
HETATM   28  P2  UNL     1       3.279   6.379 -17.919  1.00  0.00     0.401 P 
HETATM   29  O8  UNL     1       3.425   6.360 -19.405  1.00  0.00    -0.631 OA
BRANCH  28  30
HETATM   30  O9  UNL     1       3.837   5.072 -17.192  1.00  0.00    -0.307 OA
HETATM   31  H24 UNL     1       3.225   4.296 -17.231  1.00  0.00     0.222 HD
ENDBRANCH  28  30
BRANCH  28  32
HETATM   32  O10 UNL     1       1.781   6.405 -17.366  1.00  0.00    -0.294 OA
BRANCH  32  33
HETATM   33  C14 UNL     1       0.821   7.229 -17.975  1.00  0.00     0.215 C 
BRANCH  33  34
HETATM   34  C15 UNL     1       0.281   8.141 -16.874  1.00  0.00     0.180 C 
HETATM   35  C16 UNL     1      -1.040   8.756 -17.316  1.00  0.00     0.197 C 
HETATM   36  C17 UNL     1      -0.776  10.249 -17.350  1.00  0.00     0.199 C 
HETATM   37  C18 UNL     1       0.371  10.398 -16.348  1.00  0.00     0.262 C 
HETATM   38  O11 UNL     1       1.173   9.212 -16.547  1.00  0.00    -0.353 OA
BRANCH  35  39
HETATM   39  O13 UNL     1      -2.032   8.408 -16.356  1.00  0.00    -0.286 OA
BRANCH  39  40
HETATM   40  P3  UNL     1      -3.223   7.489 -16.898  1.00  0.00     0.391 P 
HETATM   41  O14 UNL     1      -2.767   6.369 -17.777  1.00  0.00    -0.632 OA
BRANCH  40  42
HETATM   42  O15 UNL     1      -4.184   8.593 -17.543  1.00  0.00    -0.307 OA
HETATM   43  H36 UNL     1      -4.161   9.426 -17.015  1.00  0.00     0.222 HD
ENDBRANCH  40  42
BRANCH  40  44
HETATM   44  O16 UNL     1      -3.967   7.107 -15.546  1.00  0.00    -0.307 OA
HETATM   45  H37 UNL     1      -4.312   7.882 -15.075  1.00  0.00     0.222 HD
ENDBRANCH  40  44
ENDBRANCH  39  40
ENDBRANCH  35  39
BRANCH  36  46
HETATM   46  O12 UNL     1      -1.980  10.972 -17.081  1.00  0.00    -0.388 OA
HETATM   47  H35 UNL     1      -2.676  10.295 -16.903  1.00  0.00     0.210 HD
ENDBRANCH  36  46
BRANCH  37  48
HETATM   48  N3  UNL     1       1.191  11.564 -16.609  1.00  0.00    -0.297 N 
HETATM   49  C19 UNL     1       1.204  12.745 -15.904  1.00  0.00     0.188 A 
HETATM   50  N4  UNL     1       2.151  13.560 -16.315  1.00  0.00    -0.346 N 
HETATM   51  C20 UNL     1       2.786  12.872 -17.334  1.00  0.00     0.116 A 
HETATM   52  H4  UNL     1       2.369  14.492 -15.962  1.00  0.00     0.167 HD
HETATM   53  C21 UNL     1       3.894  13.177 -18.143  1.00  0.00     0.109 A 
HETATM   54  C23 UNL     1       2.176  11.650 -17.553  1.00  0.00     0.142 A 
HETATM   55  N5  UNL     1       4.278  12.279 -19.083  1.00  0.00    -0.341 N 
HETATM   56  C22 UNL     1       3.573  11.136 -19.199  1.00  0.00     0.183 A 
HETATM   57  H5  UNL     1       5.079  12.464 -19.687  1.00  0.00     0.167 HD
HETATM   58  N6  UNL     1       2.506  10.733 -18.479  1.00  0.00    -0.336 N 
HETATM   59  H6  UNL     1       2.014   9.850 -18.619  1.00  0.00     0.168 HD
BRANCH  53  60
HETATM   60  N7  UNL     1       4.614  14.357 -18.037  1.00  0.00    -0.287 NA
HETATM   61  H33 UNL     1       4.272  15.110 -18.631  1.00  0.00     0.125 HD
HETATM   62  H34 UNL     1       5.614  14.209 -18.019  1.00  0.00     0.125 HD
ENDBRANCH  53  60
ENDBRANCH  37  48
ENDBRANCH  33  34
ENDBRANCH  32  33
ENDBRANCH  28  32
ENDBRANCH  27  28
ENDBRANCH  23  27
ENDBRANCH  22  23
ENDBRANCH  21  22
ENDBRANCH  18  21
ENDBRANCH  17  18
BRANCH  17  63
HETATM   63  O17 UNL     1       8.251  12.447 -15.477  1.00  0.00    -0.385 OA
HETATM   64  H38 UNL     1       8.905  11.740 -15.348  1.00  0.00     0.210 HD
ENDBRANCH  17  63
ENDBRANCH  14  17
ENDBRANCH  12  13
ENDBRANCH  11  12
ENDBRANCH   8  11
ENDBRANCH   6   7
ENDBRANCH   5   6
ENDBRANCH   4   5
ENDBRANCH   2   4
TORSDOF 27
ENDMDL
MODEL 16
REMARK VINA RESULT:      -4.9      4.142      8.871
REMARK  27 active torsions:
REMARK  status: ('A' for Active; 'I' for Inactive)
REMARK    1  A    between atoms: C2_2  and  S1_4 
REMARK    2  A    between atoms: S1_4  and  C3_5 
REMARK    3  A    between atoms: C3_5  and  C4_6 
REMARK    4  A    between atoms: C4_6  and  N1_7 
REMARK       I    between atoms: N1_7  and  C5_8 
REMARK    5  A    between atoms: C5_8  and  C6_10 
REMARK    6  A    between atoms: C6_10  and  C7_11 
REMARK    7  A    between atoms: C7_11  and  N2_12 
REMARK       I    between atoms: N2_12  and  C8_13 
REMARK    8  A    between atoms: C8_13  and  C9_15 
REMARK    9  A    between atoms: C9_15  and  C10_16 
REMARK   10  A    between atoms: C9_15  and  O17_54 
REMARK   11  A    between atoms: C10_16  and  C13_19 
REMARK   12  A    between atoms: C13_19  and  O4_20 
REMARK   13  A    between atoms: O4_20  and  P1_21 
REMARK   14  A    between atoms: P1_21  and  O6_23 
REMARK   15  A    between atoms: P1_21  and  O7_24 
REMARK   16  A    between atoms: O7_24  and  P2_25 
REMARK   17  A    between atoms: P2_25  and  O9_27 
REMARK   18  A    between atoms: P2_25  and  O10_28 
REMARK   19  A    between atoms: O10_28  and  C14_29 
REMARK   20  A    between atoms: C14_29  and  C15_30 
REMARK   21  A    between atoms: C16_31  and  O13_49 
REMARK   22  A    between atoms: C17_32  and  O12_48 
REMARK   23  A    between atoms: C18_33  and  N3_35 
REMARK   24  A    between atoms: C21_40  and  N7_47 
REMARK   25  A    between atoms: O13_49  and  P3_50 
REMARK   26  A    between atoms: P3_50  and  O15_52 
REMARK   27  A    between atoms: P3_50  and  O16_53 
ROOT
HETATM    1  C1  UNL     1       3.956   2.077 -12.068  1.00  0.00     0.104 C 
HETATM    2  C2  UNL     1       4.987   2.226 -10.991  1.00  0.00     0.182 C 
HETATM    3  O1  UNL     1       5.278   1.327 -10.206  1.00  0.00    -0.286 OA
ENDROOT
BRANCH   2   4
HETATM    4  S1  UNL     1       5.729   3.819 -10.913  1.00  0.00    -0.091 SA
BRANCH   4   5
HETATM    5  C3  UNL     1       7.333   3.468 -11.702  1.00  0.00     0.102 C 
BRANCH   5   6
HETATM    6  C4  UNL     1       7.197   3.292 -13.216  1.00  0.00     0.133 C 
BRANCH   6   7
HETATM    7  N1  UNL     1       7.193   4.554 -13.928  1.00  0.00    -0.360 N 
HETATM    8  C5  UNL     1       8.272   4.968 -14.673  1.00  0.00     0.219 C 
HETATM    9  O2  UNL     1       9.324   4.340 -14.717  1.00  0.00    -0.274 OA
HETATM   10  H8  UNL     1       6.370   5.139 -13.877  1.00  0.00     0.162 HD
BRANCH   8  11
HETATM   11  C6  UNL     1       8.043   6.286 -15.380  1.00  0.00     0.122 C 
BRANCH  11  12
HETATM   12  C7  UNL     1       6.992   7.139 -14.671  1.00  0.00     0.132 C 
BRANCH  12  13
HETATM   13  N2  UNL     1       5.998   7.682 -15.573  1.00  0.00    -0.358 N 
HETATM   14  C8  UNL     1       5.146   6.838 -16.260  1.00  0.00     0.247 C 
HETATM   15  O3  UNL     1       5.270   5.620 -16.230  1.00  0.00    -0.271 OA
HETATM   16  H13 UNL     1       5.643   8.604 -15.329  1.00  0.00     0.162 HD
BRANCH  14  17
HETATM   17  C9  UNL     1       4.029   7.546 -17.042  1.00  0.00     0.219 C 
BRANCH  17  18
HETATM   18  C10 UNL     1       4.498   8.236 -18.350  1.00  0.00     0.009 C 
HETATM   19  C11 UNL     1       5.891   7.760 -18.788  1.00  0.00     0.020 C 
HETATM   20  C12 UNL     1       3.518   7.971 -19.511  1.00  0.00     0.020 C 
BRANCH  18  21
HETATM   21  C13 UNL     1       4.541   9.759 -18.037  1.00  0.00     0.192 C 
BRANCH  21  22
HETATM   22  O4  UNL     1       5.700  10.128 -17.317  1.00  0.00    -0.296 OA
BRANCH  22  23
HETATM   23  P1  UNL     1       5.706  11.291 -16.213  1.00  0.00     0.401 P 
HETATM   24  O5  UNL     1       6.746  12.344 -16.439  1.00  0.00    -0.631 OA
BRANCH  23  25
HETATM   25  O6  UNL     1       5.813  10.570 -14.778  1.00  0.00    -0.307 OA
HETATM   26  H23 UNL     1       5.302   9.751 -14.746  1.00  0.00     0.222 HD
ENDBRANCH  23  25
BRANCH  23  27
HETATM   27  O7  UNL     1       4.210  11.832 -16.178  1.00  0.00    -0.195 OA
BRANCH  27  28
HETATM   28  P2  UNL     1       3.869  13.094 -15.268  1.00  0.00     0.401 P 
HETATM   29  O8  UNL     1       4.257  13.015 -13.827  1.00  0.00    -0.631 OA
BRANCH  28  30
HETATM   30  O9  UNL     1       4.541  14.308 -16.057  1.00  0.00    -0.307 OA
HETATM   31  H24 UNL     1       4.610  14.166 -17.033  1.00  0.00     0.222 HD
ENDBRANCH  28  30
BRANCH  28  32
HETATM   32  O10 UNL     1       2.324  13.374 -15.559  1.00  0.00    -0.294 OA
BRANCH  32  33
HETATM   33  C14 UNL     1       1.950  14.201 -16.630  1.00  0.00     0.215 C 
BRANCH  33  34
HETATM   34  C15 UNL     1       0.517  13.811 -16.989  1.00  0.00     0.180 C 
HETATM   35  C16 UNL     1      -0.460  14.774 -16.327  1.00  0.00     0.197 C 
HETATM   36  C17 UNL     1      -1.282  13.905 -15.394  1.00  0.00     0.199 C 
HETATM   37  C18 UNL     1      -1.174  12.529 -16.055  1.00  0.00     0.262 C 
HETATM   38  O11 UNL     1       0.176  12.486 -16.569  1.00  0.00    -0.353 OA
BRANCH  35  39
HETATM   39  O13 UNL     1      -1.255  15.367 -17.348  1.00  0.00    -0.286 OA
BRANCH  39  40
HETATM   40  P3  UNL     1      -1.288  16.965 -17.355  1.00  0.00     0.391 P 
HETATM   41  O14 UNL     1      -2.260  17.544 -18.332  1.00  0.00    -0.632 OA
BRANCH  40  42
HETATM   42  O15 UNL     1       0.263  17.295 -17.569  1.00  0.00    -0.307 OA
HETATM   43  H36 UNL     1       0.629  16.777 -18.324  1.00  0.00     0.222 HD
ENDBRANCH  40  42
BRANCH  40  44
HETATM   44  O16 UNL     1      -1.516  17.283 -15.814  1.00  0.00    -0.307 OA
HETATM   45  H37 UNL     1      -1.575  18.233 -15.630  1.00  0.00     0.222 HD
ENDBRANCH  40  44
ENDBRANCH  39  40
ENDBRANCH  35  39
BRANCH  36  46
HETATM   46  O12 UNL     1      -2.593  14.454 -15.232  1.00  0.00    -0.388 OA
HETATM   47  H35 UNL     1      -3.108  13.794 -14.708  1.00  0.00     0.210 HD
ENDBRANCH  36  46
BRANCH  37  48
HETATM   48  N3  UNL     1      -1.348  11.443 -15.111  1.00  0.00    -0.297 N 
HETATM   49  C19 UNL     1      -1.738  11.540 -13.795  1.00  0.00     0.188 A 
HETATM   50  N4  UNL     1      -1.926  10.361 -13.243  1.00  0.00    -0.346 N 
HETATM   51  C20 UNL     1      -1.648   9.455 -14.251  1.00  0.00     0.116 A 
HETATM   52  H4  UNL     1      -2.212  10.160 -12.285  1.00  0.00     0.167 HD
HETATM   53  C21 UNL     1      -1.702   8.052 -14.313  1.00  0.00     0.109 A 
HETATM   54  C23 UNL     1      -1.251  10.111 -15.402  1.00  0.00     0.142 A 
HETATM   55  N5  UNL     1      -1.350   7.439 -15.469  1.00  0.00    -0.341 N 
HETATM   56  C22 UNL     1      -0.960   8.207 -16.505  1.00  0.00     0.183 A 
HETATM   57  H5  UNL     1      -1.381   6.423 -15.553  1.00  0.00     0.167 HD
HETATM   58  N6  UNL     1      -0.877   9.552 -16.567  1.00  0.00    -0.336 N 
HETATM   59  H6  UNL     1      -0.572  10.076 -17.387  1.00  0.00     0.168 HD
BRANCH  53  60
HETATM   60  N7  UNL     1      -2.089   7.257 -13.246  1.00  0.00    -0.287 NA
HETATM   61  H33 UNL     1      -2.828   6.592 -13.465  1.00  0.00     0.125 HD
HETATM   62  H34 UNL     1      -2.183   7.774 -12.382  1.00  0.00     0.125 HD
ENDBRANCH  53  60
ENDBRANCH  37  48
ENDBRANCH  33  34
ENDBRANCH  32  33
ENDBRANCH  28  32
ENDBRANCH  27  28
ENDBRANCH  23  27
ENDBRANCH  22  23
ENDBRANCH  21  22
ENDBRANCH  18  21
ENDBRANCH  17  18
BRANCH  17  63
HETATM   63  O17 UNL     1       2.988   6.618 -17.366  1.00  0.00    -0.385 OA
HETATM   64  H38 UNL     1       2.987   6.490 -18.329  1.00  0.00     0.210 HD
ENDBRANCH  17  63
ENDBRANCH  14  17
ENDBRANCH  12  13
ENDBRANCH  11  12
ENDBRANCH   8  11
ENDBRANCH   6   7
ENDBRANCH   5   6
ENDBRANCH   4   5
ENDBRANCH   2   4
TORSDOF 27
ENDMDL
MODEL 17
REMARK VINA RESULT:      -4.8      3.952      8.839
REMARK  27 active torsions:
REMARK  status: ('A' for Active; 'I' for Inactive)
REMARK    1  A    between atoms: C2_2  and  S1_4 
REMARK    2  A    between atoms: S1_4  and  C3_5 
REMARK    3  A    between atoms: C3_5  and  C4_6 
REMARK    4  A    between atoms: C4_6  and  N1_7 
REMARK       I    between atoms: N1_7  and  C5_8 
REMARK    5  A    between atoms: C5_8  and  C6_10 
REMARK    6  A    between atoms: C6_10  and  C7_11 
REMARK    7  A    between atoms: C7_11  and  N2_12 
REMARK       I    between atoms: N2_12  and  C8_13 
REMARK    8  A    between atoms: C8_13  and  C9_15 
REMARK    9  A    between atoms: C9_15  and  C10_16 
REMARK   10  A    between atoms: C9_15  and  O17_54 
REMARK   11  A    between atoms: C10_16  and  C13_19 
REMARK   12  A    between atoms: C13_19  and  O4_20 
REMARK   13  A    between atoms: O4_20  and  P1_21 
REMARK   14  A    between atoms: P1_21  and  O6_23 
REMARK   15  A    between atoms: P1_21  and  O7_24 
REMARK   16  A    between atoms: O7_24  and  P2_25 
REMARK   17  A    between atoms: P2_25  and  O9_27 
REMARK   18  A    between atoms: P2_25  and  O10_28 
REMARK   19  A    between atoms: O10_28  and  C14_29 
REMARK   20  A    between atoms: C14_29  and  C15_30 
REMARK   21  A    between atoms: C16_31  and  O13_49 
REMARK   22  A    between atoms: C17_32  and  O12_48 
REMARK   23  A    between atoms: C18_33  and  N3_35 
REMARK   24  A    between atoms: C21_40  and  N7_47 
REMARK   25  A    between atoms: O13_49  and  P3_50 
REMARK   26  A    between atoms: P3_50  and  O15_52 
REMARK   27  A    between atoms: P3_50  and  O16_53 
ROOT
HETATM    1  C1  UNL     1       5.079   4.701 -10.234  1.00  0.00     0.104 C 
HETATM    2  C2  UNL     1       3.984   3.861  -9.652  1.00  0.00     0.182 C 
HETATM    3  O1  UNL     1       3.197   4.274  -8.803  1.00  0.00    -0.286 OA
ENDROOT
BRANCH   2   4
HETATM    4  S1  UNL     1       3.937   2.210 -10.254  1.00  0.00    -0.091 SA
BRANCH   4   5
HETATM    5  C3  UNL     1       3.242   2.490 -11.914  1.00  0.00     0.102 C 
BRANCH   5   6
HETATM    6  C4  UNL     1       4.094   1.840 -13.006  1.00  0.00     0.133 C 
BRANCH   6   7
HETATM    7  N1  UNL     1       5.491   2.216 -12.924  1.00  0.00    -0.360 N 
HETATM    8  C5  UNL     1       6.045   3.132 -13.788  1.00  0.00     0.219 C 
HETATM    9  O2  UNL     1       5.420   3.620 -14.723  1.00  0.00    -0.274 OA
HETATM   10  H8  UNL     1       6.066   1.797 -12.206  1.00  0.00     0.162 HD
BRANCH   8  11
HETATM   11  C6  UNL     1       7.501   3.425 -13.497  1.00  0.00     0.122 C 
BRANCH  11  12
HETATM   12  C7  UNL     1       7.716   4.874 -13.063  1.00  0.00     0.132 C 
BRANCH  12  13
HETATM   13  N2  UNL     1       7.932   5.774 -14.177  1.00  0.00    -0.358 N 
HETATM   14  C8  UNL     1       7.729   7.133 -14.024  1.00  0.00     0.247 C 
HETATM   15  O3  UNL     1       7.254   7.610 -13.001  1.00  0.00    -0.271 OA
HETATM   16  H13 UNL     1       8.642   5.482 -14.845  1.00  0.00     0.162 HD
BRANCH  14  17
HETATM   17  C9  UNL     1       8.163   7.989 -15.223  1.00  0.00     0.219 C 
BRANCH  17  18
HETATM   18  C10 UNL     1       7.010   8.380 -16.184  1.00  0.00     0.009 C 
HETATM   19  C11 UNL     1       7.495   8.547 -17.632  1.00  0.00     0.020 C 
HETATM   20  C12 UNL     1       5.886   7.324 -16.179  1.00  0.00     0.020 C 
BRANCH  18  21
HETATM   21  C13 UNL     1       6.458   9.736 -15.659  1.00  0.00     0.192 C 
BRANCH  21  22
HETATM   22  O4  UNL     1       7.041  10.845 -16.312  1.00  0.00    -0.296 OA
BRANCH  22  23
HETATM   23  P1  UNL     1       6.352  12.292 -16.355  1.00  0.00     0.401 P 
HETATM   24  O5  UNL     1       6.430  12.968 -17.688  1.00  0.00    -0.631 OA
BRANCH  23  25
HETATM   25  O6  UNL     1       6.995  13.149 -15.154  1.00  0.00    -0.307 OA
HETATM   26  H23 UNL     1       7.849  12.795 -14.873  1.00  0.00     0.222 HD
ENDBRANCH  23  25
BRANCH  23  27
HETATM   27  O7  UNL     1       4.875  12.060 -15.813  1.00  0.00    -0.195 OA
BRANCH  27  28
HETATM   28  P2  UNL     1       4.136  13.252 -15.056  1.00  0.00     0.401 P 
HETATM   29  O8  UNL     1       4.366  13.364 -13.584  1.00  0.00    -0.631 OA
BRANCH  28  30
HETATM   30  O9  UNL     1       4.579  14.542 -15.885  1.00  0.00    -0.307 OA
HETATM   31  H24 UNL     1       5.284  14.369 -16.555  1.00  0.00     0.222 HD
ENDBRANCH  28  30
BRANCH  28  32
HETATM   32  O10 UNL     1       2.613  13.115 -15.516  1.00  0.00    -0.294 OA
BRANCH  32  33
HETATM   33  C14 UNL     1       2.249  13.415 -16.838  1.00  0.00     0.215 C 
BRANCH  33  34
HETATM   34  C15 UNL     1       0.722  13.460 -16.861  1.00  0.00     0.180 C 
HETATM   35  C16 UNL     1       0.222  14.486 -15.853  1.00  0.00     0.197 C 
HETATM   36  C17 UNL     1      -0.590  13.682 -14.856  1.00  0.00     0.199 C 
HETATM   37  C18 UNL     1      -1.018  12.472 -15.689  1.00  0.00     0.262 C 
HETATM   38  O11 UNL     1       0.121  12.201 -16.536  1.00  0.00    -0.353 OA
BRANCH  35  39
HETATM   39  O13 UNL     1      -0.575  15.438 -16.551  1.00  0.00    -0.286 OA
BRANCH  39  40
HETATM   40  P3  UNL     1      -0.120  16.963 -16.398  1.00  0.00     0.391 P 
HETATM   41  O14 UNL     1       1.298  17.212 -16.799  1.00  0.00    -0.632 OA
BRANCH  40  42
HETATM   42  O15 UNL     1      -0.519  17.242 -14.874  1.00  0.00    -0.307 OA
HETATM   43  H36 UNL     1      -0.593  18.211 -14.705  1.00  0.00     0.222 HD
ENDBRANCH  40  42
BRANCH  40  44
HETATM   44  O16 UNL     1      -1.260  17.715 -17.213  1.00  0.00    -0.307 OA
HETATM   45  H37 UNL     1      -1.697  18.409 -16.696  1.00  0.00     0.222 HD
ENDBRANCH  40  44
ENDBRANCH  39  40
ENDBRANCH  35  39
BRANCH  36  46
HETATM   46  O12 UNL     1      -1.627  14.491 -14.293  1.00  0.00    -0.388 OA
HETATM   47  H35 UNL     1      -1.187  15.304 -13.947  1.00  0.00     0.210 HD
ENDBRANCH  36  46
BRANCH  37  48
HETATM   48  N3  UNL     1      -1.283  11.302 -14.876  1.00  0.00    -0.297 N 
HETATM   49  C19 UNL     1      -1.701  11.277 -13.566  1.00  0.00     0.188 A 
HETATM   50  N4  UNL     1      -1.974  10.059 -13.153  1.00  0.00    -0.346 N 
HETATM   51  C20 UNL     1      -1.726   9.254 -14.251  1.00  0.00     0.116 A 
HETATM   52  H4  UNL     1      -2.297   9.771 -12.229  1.00  0.00     0.167 HD
HETATM   53  C21 UNL     1      -1.865   7.873 -14.470  1.00  0.00     0.109 A 
HETATM   54  C23 UNL     1      -1.260  10.007 -15.313  1.00  0.00     0.142 A 
HETATM   55  N5  UNL     1      -1.521   7.370 -15.682  1.00  0.00    -0.341 N 
HETATM   56  C22 UNL     1      -1.058   8.222 -16.618  1.00  0.00     0.183 A 
HETATM   57  H5  UNL     1      -1.612   6.374 -15.879  1.00  0.00     0.167 HD
HETATM   58  N6  UNL     1      -0.891   9.557 -16.526  1.00  0.00    -0.336 N 
HETATM   59  H6  UNL     1      -0.533  10.148 -17.277  1.00  0.00     0.168 HD
BRANCH  53  60
HETATM   60  N7  UNL     1      -2.327   6.990 -13.507  1.00  0.00    -0.287 NA
HETATM   61  H33 UNL     1      -1.870   6.081 -13.518  1.00  0.00     0.125 HD
HETATM   62  H34 UNL     1      -3.334   6.993 -13.420  1.00  0.00     0.125 HD
ENDBRANCH  53  60
ENDBRANCH  37  48
ENDBRANCH  33  34
ENDBRANCH  32  33
ENDBRANCH  28  32
ENDBRANCH  27  28
ENDBRANCH  23  27
ENDBRANCH  22  23
ENDBRANCH  21  22
ENDBRANCH  18  21
ENDBRANCH  17  18
BRANCH  17  63
HETATM   63  O17 UNL     1       8.802   9.187 -14.769  1.00  0.00    -0.385 OA
HETATM   64  H38 UNL     1       8.404   9.938 -15.239  1.00  0.00     0.210 HD
ENDBRANCH  17  63
ENDBRANCH  14  17
ENDBRANCH  12  13
ENDBRANCH  11  12
ENDBRANCH   8  11
ENDBRANCH   6   7
ENDBRANCH   5   6
ENDBRANCH   4   5
ENDBRANCH   2   4
TORSDOF 27
ENDMDL
MODEL 18
REMARK VINA RESULT:      -4.7      5.681      9.339
REMARK  27 active torsions:
REMARK  status: ('A' for Active; 'I' for Inactive)
REMARK    1  A    between atoms: C2_2  and  S1_4 
REMARK    2  A    between atoms: S1_4  and  C3_5 
REMARK    3  A    between atoms: C3_5  and  C4_6 
REMARK    4  A    between atoms: C4_6  and  N1_7 
REMARK       I    between atoms: N1_7  and  C5_8 
REMARK    5  A    between atoms: C5_8  and  C6_10 
REMARK    6  A    between atoms: C6_10  and  C7_11 
REMARK    7  A    between atoms: C7_11  and  N2_12 
REMARK       I    between atoms: N2_12  and  C8_13 
REMARK    8  A    between atoms: C8_13  and  C9_15 
REMARK    9  A    between atoms: C9_15  and  C10_16 
REMARK   10  A    between atoms: C9_15  and  O17_54 
REMARK   11  A    between atoms: C10_16  and  C13_19 
REMARK   12  A    between atoms: C13_19  and  O4_20 
REMARK   13  A    between atoms: O4_20  and  P1_21 
REMARK   14  A    between atoms: P1_21  and  O6_23 
REMARK   15  A    between atoms: P1_21  and  O7_24 
REMARK   16  A    between atoms: O7_24  and  P2_25 
REMARK   17  A    between atoms: P2_25  and  O9_27 
REMARK   18  A    between atoms: P2_25  and  O10_28 
REMARK   19  A    between atoms: O10_28  and  C14_29 
REMARK   20  A    between atoms: C14_29  and  C15_30 
REMARK   21  A    between atoms: C16_31  and  O13_49 
REMARK   22  A    between atoms: C17_32  and  O12_48 
REMARK   23  A    between atoms: C18_33  and  N3_35 
REMARK   24  A    between atoms: C21_40  and  N7_47 
REMARK   25  A    between atoms: O13_49  and  P3_50 
REMARK   26  A    between atoms: P3_50  and  O15_52 
REMARK   27  A    between atoms: P3_50  and  O16_53 
ROOT
HETATM    1  C1  UNL     1       3.306   3.577  -9.425  1.00  0.00     0.104 C 
HETATM    2  C2  UNL     1       4.533   2.880  -9.928  1.00  0.00     0.182 C 
HETATM    3  O1  UNL     1       4.698   1.665  -9.850  1.00  0.00    -0.286 OA
ENDROOT
BRANCH   2   4
HETATM    4  S1  UNL     1       5.748   3.952 -10.611  1.00  0.00    -0.091 SA
BRANCH   4   5
HETATM    5  C3  UNL     1       6.607   2.798 -11.728  1.00  0.00     0.102 C 
BRANCH   5   6
HETATM    6  C4  UNL     1       6.223   3.028 -13.191  1.00  0.00     0.133 C 
BRANCH   6   7
HETATM    7  N1  UNL     1       6.629   4.330 -13.677  1.00  0.00    -0.360 N 
HETATM    8  C5  UNL     1       7.747   4.493 -14.463  1.00  0.00     0.219 C 
HETATM    9  O2  UNL     1       8.506   3.569 -14.730  1.00  0.00    -0.274 OA
HETATM   10  H8  UNL     1       6.068   5.136 -13.436  1.00  0.00     0.162 HD
BRANCH   8  11
HETATM   11  C6  UNL     1       7.962   5.923 -14.910  1.00  0.00     0.122 C 
BRANCH  11  12
HETATM   12  C7  UNL     1       6.693   6.763 -14.764  1.00  0.00     0.132 C 
BRANCH  12  13
HETATM   13  N2  UNL     1       6.965   8.167 -14.538  1.00  0.00    -0.358 N 
HETATM   14  C8  UNL     1       6.521   9.117 -15.440  1.00  0.00     0.247 C 
HETATM   15  O3  UNL     1       5.997   8.811 -16.503  1.00  0.00    -0.271 OA
HETATM   16  H13 UNL     1       7.034   8.448 -13.562  1.00  0.00     0.162 HD
BRANCH  14  17
HETATM   17  C9  UNL     1       6.720  10.573 -14.992  1.00  0.00     0.219 C 
BRANCH  17  18
HETATM   18  C10 UNL     1       7.526  11.447 -15.988  1.00  0.00     0.009 C 
HETATM   19  C11 UNL     1       8.749  10.707 -16.548  1.00  0.00     0.020 C 
HETATM   20  C12 UNL     1       6.655  11.895 -17.179  1.00  0.00     0.020 C 
BRANCH  18  21
HETATM   21  C13 UNL     1       7.992  12.693 -15.181  1.00  0.00     0.192 C 
BRANCH  21  22
HETATM   22  O4  UNL     1       7.257  13.854 -15.511  1.00  0.00    -0.296 OA
BRANCH  22  23
HETATM   23  P1  UNL     1       6.482  14.734 -14.417  1.00  0.00     0.401 P 
HETATM   24  O5  UNL     1       5.302  14.048 -13.805  1.00  0.00    -0.631 OA
BRANCH  23  25
HETATM   25  O6  UNL     1       6.127  16.139 -15.117  1.00  0.00    -0.307 OA
HETATM   26  H23 UNL     1       6.688  16.313 -15.884  1.00  0.00     0.222 HD
ENDBRANCH  23  25
BRANCH  23  27
HETATM   27  O7  UNL     1       7.603  15.180 -13.380  1.00  0.00    -0.195 OA
BRANCH  27  28
HETATM   28  P2  UNL     1       8.044  16.710 -13.334  1.00  0.00     0.401 P 
HETATM   29  O8  UNL     1       6.976  17.715 -13.049  1.00  0.00    -0.631 OA
BRANCH  28  30
HETATM   30  O9  UNL     1       9.241  16.715 -12.278  1.00  0.00    -0.307 OA
HETATM   31  H24 UNL     1       9.238  17.493 -11.668  1.00  0.00     0.222 HD
ENDBRANCH  28  30
BRANCH  28  32
HETATM   32  O10 UNL     1       8.853  16.919 -14.695  1.00  0.00    -0.294 OA
BRANCH  32  33
HETATM   33  C14 UNL     1      10.035  17.676 -14.701  1.00  0.00     0.215 C 
BRANCH  33  34
HETATM   34  C15 UNL     1      11.000  16.955 -15.641  1.00  0.00     0.180 C 
HETATM   35  C16 UNL     1      10.316  15.734 -16.243  1.00  0.00     0.197 C 
HETATM   36  C17 UNL     1      11.135  14.555 -15.754  1.00  0.00     0.199 C 
HETATM   37  C18 UNL     1      12.502  15.194 -15.499  1.00  0.00     0.262 C 
HETATM   38  O11 UNL     1      12.191  16.507 -14.983  1.00  0.00    -0.353 OA
BRANCH  35  39
HETATM   39  O13 UNL     1      10.354  15.863 -17.660  1.00  0.00    -0.286 OA
BRANCH  39  40
HETATM   40  P3  UNL     1       8.940  15.756 -18.399  1.00  0.00     0.391 P 
HETATM   41  O14 UNL     1       8.915  16.399 -19.748  1.00  0.00    -0.632 OA
BRANCH  40  42
HETATM   42  O15 UNL     1       7.969  16.353 -17.277  1.00  0.00    -0.307 OA
HETATM   43  H36 UNL     1       7.356  15.657 -16.940  1.00  0.00     0.222 HD
ENDBRANCH  40  42
BRANCH  40  44
HETATM   44  O16 UNL     1       8.662  14.192 -18.324  1.00  0.00    -0.307 OA
HETATM   45  H37 UNL     1       8.360  13.822 -19.168  1.00  0.00     0.222 HD
ENDBRANCH  40  44
ENDBRANCH  39  40
ENDBRANCH  35  39
BRANCH  36  46
HETATM   46  O12 UNL     1      11.077  13.484 -16.700  1.00  0.00    -0.388 OA
HETATM   47  H35 UNL     1      11.951  13.029 -16.659  1.00  0.00     0.210 HD
ENDBRANCH  36  46
BRANCH  37  48
HETATM   48  N3  UNL     1      13.276  14.475 -14.507  1.00  0.00    -0.297 N 
HETATM   49  C19 UNL     1      13.425  14.794 -13.177  1.00  0.00     0.188 A 
HETATM   50  N4  UNL     1      14.088  13.872 -12.514  1.00  0.00    -0.346 N 
HETATM   51  C20 UNL     1      14.378  12.904 -13.459  1.00  0.00     0.116 A 
HETATM   52  H4  UNL     1      14.333  13.870 -11.524  1.00  0.00     0.167 HD
HETATM   53  C21 UNL     1      15.024  11.658 -13.379  1.00  0.00     0.109 A 
HETATM   54  C23 UNL     1      13.916  13.283 -14.706  1.00  0.00     0.142 A 
HETATM   55  N5  UNL     1      15.167  10.927 -14.512  1.00  0.00    -0.341 N 
HETATM   56  C22 UNL     1      14.685  11.435 -15.664  1.00  0.00     0.183 A 
HETATM   57  H5  UNL     1      15.626  10.017 -14.493  1.00  0.00     0.167 HD
HETATM   58  N6  UNL     1      14.045  12.606 -15.860  1.00  0.00    -0.336 N 
HETATM   59  H6  UNL     1      13.704  12.934 -16.764  1.00  0.00     0.168 HD
BRANCH  53  60
HETATM   60  N7  UNL     1      15.533  11.137 -12.200  1.00  0.00    -0.287 NA
HETATM   61  H33 UNL     1      16.512  10.863 -12.252  1.00  0.00     0.125 HD
HETATM   62  H34 UNL     1      14.902  10.489 -11.749  1.00  0.00     0.125 HD
ENDBRANCH  53  60
ENDBRANCH  37  48
ENDBRANCH  33  34
ENDBRANCH  32  33
ENDBRANCH  28  32
ENDBRANCH  27  28
ENDBRANCH  23  27
ENDBRANCH  22  23
ENDBRANCH  21  22
ENDBRANCH  18  21
ENDBRANCH  17  18
BRANCH  17  63
HETATM   63  O17 UNL     1       5.451  11.196 -14.763  1.00  0.00    -0.385 OA
HETATM   64  H38 UNL     1       5.612  12.102 -14.451  1.00  0.00     0.210 HD
ENDBRANCH  17  63
ENDBRANCH  14  17
ENDBRANCH  12  13
ENDBRANCH  11  12
ENDBRANCH   8  11
ENDBRANCH   6   7
ENDBRANCH   5   6
ENDBRANCH   4   5
ENDBRANCH   2   4
TORSDOF 27
ENDMDL
MODEL 19
REMARK VINA RESULT:      -4.7      3.197      9.870
REMARK  27 active torsions:
REMARK  status: ('A' for Active; 'I' for Inactive)
REMARK    1  A    between atoms: C2_2  and  S1_4 
REMARK    2  A    between atoms: S1_4  and  C3_5 
REMARK    3  A    between atoms: C3_5  and  C4_6 
REMARK    4  A    between atoms: C4_6  and  N1_7 
REMARK       I    between atoms: N1_7  and  C5_8 
REMARK    5  A    between atoms: C5_8  and  C6_10 
REMARK    6  A    between atoms: C6_10  and  C7_11 
REMARK    7  A    between atoms: C7_11  and  N2_12 
REMARK       I    between atoms: N2_12  and  C8_13 
REMARK    8  A    between atoms: C8_13  and  C9_15 
REMARK    9  A    between atoms: C9_15  and  C10_16 
REMARK   10  A    between atoms: C9_15  and  O17_54 
REMARK   11  A    between atoms: C10_16  and  C13_19 
REMARK   12  A    between atoms: C13_19  and  O4_20 
REMARK   13  A    between atoms: O4_20  and  P1_21 
REMARK   14  A    between atoms: P1_21  and  O6_23 
REMARK   15  A    between atoms: P1_21  and  O7_24 
REMARK   16  A    between atoms: O7_24  and  P2_25 
REMARK   17  A    between atoms: P2_25  and  O9_27 
REMARK   18  A    between atoms: P2_25  and  O10_28 
REMARK   19  A    between atoms: O10_28  and  C14_29 
REMARK   20  A    between atoms: C14_29  and  C15_30 
REMARK   21  A    between atoms: C16_31  and  O13_49 
REMARK   22  A    between atoms: C17_32  and  O12_48 
REMARK   23  A    between atoms: C18_33  and  N3_35 
REMARK   24  A    between atoms: C21_40  and  N7_47 
REMARK   25  A    between atoms: O13_49  and  P3_50 
REMARK   26  A    between atoms: P3_50  and  O15_52 
REMARK   27  A    between atoms: P3_50  and  O16_53 
ROOT
HETATM    1  C1  UNL     1       3.976   2.078 -12.146  1.00  0.00     0.104 C 
HETATM    2  C2  UNL     1       4.980   2.314 -11.059  1.00  0.00     0.182 C 
HETATM    3  O1  UNL     1       5.288   1.463 -10.229  1.00  0.00    -0.286 OA
ENDROOT
BRANCH   2   4
HETATM    4  S1  UNL     1       5.660   3.936 -11.041  1.00  0.00    -0.091 SA
BRANCH   4   5
HETATM    5  C3  UNL     1       7.338   3.590 -11.661  1.00  0.00     0.102 C 
BRANCH   5   6
HETATM    6  C4  UNL     1       7.326   3.176 -13.134  1.00  0.00     0.133 C 
BRANCH   6   7
HETATM    7  N1  UNL     1       7.157   4.302 -14.030  1.00  0.00    -0.360 N 
HETATM    8  C5  UNL     1       8.191   4.772 -14.805  1.00  0.00     0.219 C 
HETATM    9  O2  UNL     1       9.330   4.326 -14.727  1.00  0.00    -0.274 OA
HETATM   10  H8  UNL     1       6.250   4.745 -14.088  1.00  0.00     0.162 HD
BRANCH   8  11
HETATM   11  C6  UNL     1       7.789   5.917 -15.710  1.00  0.00     0.122 C 
BRANCH  11  12
HETATM   12  C7  UNL     1       6.447   6.523 -15.302  1.00  0.00     0.132 C 
BRANCH  12  13
HETATM   13  N2  UNL     1       5.457   6.474 -16.357  1.00  0.00    -0.358 N 
HETATM   14  C8  UNL     1       4.711   5.328 -16.559  1.00  0.00     0.247 C 
HETATM   15  O3  UNL     1       4.933   4.290 -15.949  1.00  0.00    -0.271 OA
HETATM   16  H13 UNL     1       5.017   7.363 -16.586  1.00  0.00     0.162 HD
BRANCH  14  17
HETATM   17  C9  UNL     1       3.580   5.469 -17.589  1.00  0.00     0.219 C 
BRANCH  17  18
HETATM   18  C10 UNL     1       3.984   5.106 -19.042  1.00  0.00     0.009 C 
HETATM   19  C11 UNL     1       5.462   4.703 -19.148  1.00  0.00     0.020 C 
HETATM   20  C12 UNL     1       3.134   3.942 -19.590  1.00  0.00     0.020 C 
BRANCH  18  21
HETATM   21  C13 UNL     1       3.728   6.386 -19.888  1.00  0.00     0.192 C 
BRANCH  21  22
HETATM   22  O4  UNL     1       4.714   7.377 -19.676  1.00  0.00    -0.296 OA
BRANCH  22  23
HETATM   23  P1  UNL     1       4.372   8.836 -19.107  1.00  0.00     0.401 P 
HETATM   24  O5  UNL     1       4.456   9.926 -20.128  1.00  0.00    -0.631 OA
BRANCH  23  25
HETATM   25  O6  UNL     1       5.321   9.071 -17.828  1.00  0.00    -0.307 OA
HETATM   26  H23 UNL     1       6.256   9.095 -18.071  1.00  0.00     0.222 HD
ENDBRANCH  23  25
BRANCH  23  27
HETATM   27  O7  UNL     1       2.949   8.684 -18.412  1.00  0.00    -0.195 OA
BRANCH  27  28
HETATM   28  P2  UNL     1       2.284   9.961 -17.731  1.00  0.00     0.401 P 
HETATM   29  O8  UNL     1       3.106  10.695 -16.721  1.00  0.00    -0.631 OA
BRANCH  28  30
HETATM   30  O9  UNL     1       1.838  10.852 -18.979  1.00  0.00    -0.307 OA
HETATM   31  H24 UNL     1       1.015  11.377 -18.826  1.00  0.00     0.222 HD
ENDBRANCH  28  30
BRANCH  28  32
HETATM   32  O10 UNL     1       0.865   9.433 -17.224  1.00  0.00    -0.294 OA
BRANCH  32  33
HETATM   33  C14 UNL     1       0.605   9.327 -15.849  1.00  0.00     0.215 C 
BRANCH  33  34
HETATM   34  C15 UNL     1      -0.798   9.891 -15.634  1.00  0.00     0.180 C 
HETATM   35  C16 UNL     1      -1.641   9.664 -16.882  1.00  0.00     0.197 C 
HETATM   36  C17 UNL     1      -1.996  11.058 -17.365  1.00  0.00     0.199 C 
HETATM   37  C18 UNL     1      -1.909  11.878 -16.076  1.00  0.00     0.262 C 
HETATM   38  O11 UNL     1      -0.799  11.296 -15.357  1.00  0.00    -0.353 OA
BRANCH  35  39
HETATM   39  O13 UNL     1      -2.793   8.917 -16.506  1.00  0.00    -0.286 OA
BRANCH  39  40
HETATM   40  P3  UNL     1      -2.647   7.328 -16.604  1.00  0.00     0.391 P 
HETATM   41  O14 UNL     1      -3.913   6.628 -16.979  1.00  0.00    -0.632 OA
BRANCH  40  42
HETATM   42  O15 UNL     1      -2.012   6.997 -15.174  1.00  0.00    -0.307 OA
HETATM   43  H36 UNL     1      -1.339   6.279 -15.249  1.00  0.00     0.222 HD
ENDBRANCH  40  42
BRANCH  40  44
HETATM   44  O16 UNL     1      -1.408   7.187 -17.591  1.00  0.00    -0.307 OA
HETATM   45  H37 UNL     1      -0.950   8.029 -17.744  1.00  0.00     0.222 HD
ENDBRANCH  40  44
ENDBRANCH  39  40
ENDBRANCH  35  39
BRANCH  36  46
HETATM   46  O12 UNL     1      -3.252  11.041 -18.049  1.00  0.00    -0.388 OA
HETATM   47  H35 UNL     1      -3.945  10.937 -17.354  1.00  0.00     0.210 HD
ENDBRANCH  36  46
BRANCH  37  48
HETATM   48  N3  UNL     1      -1.622  13.277 -16.324  1.00  0.00    -0.297 N 
HETATM   49  C19 UNL     1      -2.496  14.334 -16.232  1.00  0.00     0.188 A 
HETATM   50  N4  UNL     1      -1.897  15.493 -16.397  1.00  0.00    -0.346 N 
HETATM   51  C20 UNL     1      -0.567  15.171 -16.601  1.00  0.00     0.116 A 
HETATM   52  H4  UNL     1      -2.318  16.422 -16.378  1.00  0.00     0.167 HD
HETATM   53  C21 UNL     1       0.584  15.955 -16.795  1.00  0.00     0.109 A 
HETATM   54  C23 UNL     1      -0.389  13.800 -16.598  1.00  0.00     0.142 A 
HETATM   55  N5  UNL     1       1.772  15.329 -16.982  1.00  0.00    -0.341 N 
HETATM   56  C22 UNL     1       1.790  13.981 -16.978  1.00  0.00     0.183 A 
HETATM   57  H5  UNL     1       2.629  15.864 -17.123  1.00  0.00     0.167 HD
HETATM   58  N6  UNL     1       0.760  13.130 -16.794  1.00  0.00    -0.336 N 
HETATM   59  H6  UNL     1       0.842  12.113 -16.803  1.00  0.00     0.168 HD
BRANCH  53  60
HETATM   60  N7  UNL     1       0.568  17.341 -16.815  1.00  0.00    -0.287 NA
HETATM   61  H33 UNL     1       1.487  17.771 -16.737  1.00  0.00     0.125 HD
HETATM   62  H34 UNL     1      -0.170  17.735 -16.247  1.00  0.00     0.125 HD
ENDBRANCH  53  60
ENDBRANCH  37  48
ENDBRANCH  33  34
ENDBRANCH  32  33
ENDBRANCH  28  32
ENDBRANCH  27  28
ENDBRANCH  23  27
ENDBRANCH  22  23
ENDBRANCH  21  22
ENDBRANCH  18  21
ENDBRANCH  17  18
BRANCH  17  63
HETATM   63  O17 UNL     1       2.465   4.655 -17.210  1.00  0.00    -0.385 OA
HETATM   64  H38 UNL     1       1.753   4.797 -17.857  1.00  0.00     0.210 HD
ENDBRANCH  17  63
ENDBRANCH  14  17
ENDBRANCH  12  13
ENDBRANCH  11  12
ENDBRANCH   8  11
ENDBRANCH   6   7
ENDBRANCH   5   6
ENDBRANCH   4   5
ENDBRANCH   2   4
TORSDOF 27
ENDMDL
MODEL 20
REMARK VINA RESULT:      -4.6      7.163     10.447
REMARK  27 active torsions:
REMARK  status: ('A' for Active; 'I' for Inactive)
REMARK    1  A    between atoms: C2_2  and  S1_4 
REMARK    2  A    between atoms: S1_4  and  C3_5 
REMARK    3  A    between atoms: C3_5  and  C4_6 
REMARK    4  A    between atoms: C4_6  and  N1_7 
REMARK       I    between atoms: N1_7  and  C5_8 
REMARK    5  A    between atoms: C5_8  and  C6_10 
REMARK    6  A    between atoms: C6_10  and  C7_11 
REMARK    7  A    between atoms: C7_11  and  N2_12 
REMARK       I    between atoms: N2_12  and  C8_13 
REMARK    8  A    between atoms: C8_13  and  C9_15 
REMARK    9  A    between atoms: C9_15  and  C10_16 
REMARK   10  A    between atoms: C9_15  and  O17_54 
REMARK   11  A    between atoms: C10_16  and  C13_19 
REMARK   12  A    between atoms: C13_19  and  O4_20 
REMARK   13  A    between atoms: O4_20  and  P1_21 
REMARK   14  A    between atoms: P1_21  and  O6_23 
REMARK   15  A    between atoms: P1_21  and  O7_24 
REMARK   16  A    between atoms: O7_24  and  P2_25 
REMARK   17  A    between atoms: P2_25  and  O9_27 
REMARK   18  A    between atoms: P2_25  and  O10_28 
REMARK   19  A    between atoms: O10_28  and  C14_29 
REMARK   20  A    between atoms: C14_29  and  C15_30 
REMARK   21  A    between atoms: C16_31  and  O13_49 
REMARK   22  A    between atoms: C17_32  and  O12_48 
REMARK   23  A    between atoms: C18_33  and  N3_35 
REMARK   24  A    between atoms: C21_40  and  N7_47 
REMARK   25  A    between atoms: O13_49  and  P3_50 
REMARK   26  A    between atoms: P3_50  and  O15_52 
REMARK   27  A    between atoms: P3_50  and  O16_53 
ROOT
HETATM    1  C1  UNL     1       5.147   4.704 -10.252  1.00  0.00     0.104 C 
HETATM    2  C2  UNL     1       4.043   3.889  -9.651  1.00  0.00     0.182 C 
HETATM    3  O1  UNL     1       3.274   4.322  -8.795  1.00  0.00    -0.286 OA
ENDROOT
BRANCH   2   4
HETATM    4  S1  UNL     1       3.957   2.236 -10.242  1.00  0.00    -0.091 SA
BRANCH   4   5
HETATM    5  C3  UNL     1       3.214   2.516 -11.882  1.00  0.00     0.102 C 
BRANCH   5   6
HETATM    6  C4  UNL     1       3.986   1.795 -12.988  1.00  0.00     0.133 C 
BRANCH   6   7
HETATM    7  N1  UNL     1       5.403   2.095 -12.969  1.00  0.00    -0.360 N 
HETATM    8  C5  UNL     1       5.959   3.022 -13.820  1.00  0.00     0.219 C 
HETATM    9  O2  UNL     1       5.311   3.587 -14.695  1.00  0.00    -0.274 OA
HETATM   10  H8  UNL     1       5.994   1.613 -12.304  1.00  0.00     0.162 HD
BRANCH   8  11
HETATM   11  C6  UNL     1       7.442   3.226 -13.599  1.00  0.00     0.122 C 
BRANCH  11  12
HETATM   12  C7  UNL     1       7.729   4.481 -12.775  1.00  0.00     0.132 C 
BRANCH  12  13
HETATM   13  N2  UNL     1       7.148   5.678 -13.344  1.00  0.00    -0.358 N 
HETATM   14  C8  UNL     1       7.735   6.286 -14.439  1.00  0.00     0.247 C 
HETATM   15  O3  UNL     1       8.812   5.915 -14.889  1.00  0.00    -0.271 OA
HETATM   16  H13 UNL     1       6.137   5.762 -13.252  1.00  0.00     0.162 HD
BRANCH  14  17
HETATM   17  C9  UNL     1       6.923   7.438 -15.049  1.00  0.00     0.219 C 
BRANCH  17  18
HETATM   18  C10 UNL     1       7.464   8.853 -14.713  1.00  0.00     0.009 C 
HETATM   19  C11 UNL     1       6.683   9.957 -15.441  1.00  0.00     0.020 C 
HETATM   20  C12 UNL     1       7.395   9.140 -13.200  1.00  0.00     0.020 C 
BRANCH  18  21
HETATM   21  C13 UNL     1       8.947   8.866 -15.183  1.00  0.00     0.192 C 
BRANCH  21  22
HETATM   22  O4  UNL     1       9.065   8.877 -16.591  1.00  0.00    -0.296 OA
BRANCH  22  23
HETATM   23  P1  UNL     1      10.278   9.595 -17.357  1.00  0.00     0.401 P 
HETATM   24  O5  UNL     1       9.868  10.773 -18.183  1.00  0.00    -0.631 OA
BRANCH  23  25
HETATM   25  O6  UNL     1      11.042   8.450 -18.192  1.00  0.00    -0.307 OA
HETATM   26  H23 UNL     1      11.750   8.040 -17.679  1.00  0.00     0.222 HD
ENDBRANCH  23  25
BRANCH  23  27
HETATM   27  O7  UNL     1      11.347   9.916 -16.224  1.00  0.00    -0.195 OA
BRANCH  27  28
HETATM   28  P2  UNL     1      12.879  10.069 -16.631  1.00  0.00     0.401 P 
HETATM   29  O8  UNL     1      13.701   8.821 -16.653  1.00  0.00    -0.631 OA
BRANCH  28  30
HETATM   30  O9  UNL     1      12.812  10.828 -18.034  1.00  0.00    -0.307 OA
HETATM   31  H24 UNL     1      12.054  11.458 -18.116  1.00  0.00     0.222 HD
ENDBRANCH  28  30
BRANCH  28  32
HETATM   32  O10 UNL     1      13.415  11.240 -15.688  1.00  0.00    -0.294 OA
BRANCH  32  33
HETATM   33  C14 UNL     1      13.406  12.568 -16.143  1.00  0.00     0.215 C 
BRANCH  33  34
HETATM   34  C15 UNL     1      14.414  13.323 -15.279  1.00  0.00     0.180 C 
HETATM   35  C16 UNL     1      15.081  12.360 -14.306  1.00  0.00     0.197 C 
HETATM   36  C17 UNL     1      14.692  12.871 -12.931  1.00  0.00     0.199 C 
HETATM   37  C18 UNL     1      14.426  14.354 -13.201  1.00  0.00     0.262 C 
HETATM   38  O11 UNL     1      13.816  14.374 -14.511  1.00  0.00    -0.353 OA
BRANCH  35  39
HETATM   39  O13 UNL     1      16.487  12.418 -14.521  1.00  0.00    -0.286 OA
BRANCH  39  40
HETATM   40  P3  UNL     1      17.213  11.008 -14.725  1.00  0.00     0.391 P 
HETATM   41  O14 UNL     1      18.361  11.054 -15.680  1.00  0.00    -0.632 OA
BRANCH  40  42
HETATM   42  O15 UNL     1      15.965  10.083 -15.108  1.00  0.00    -0.307 OA
HETATM   43  H36 UNL     1      15.384  10.535 -15.765  1.00  0.00     0.222 HD
ENDBRANCH  40  42
BRANCH  40  44
HETATM   44  O16 UNL     1      17.522  10.593 -13.221  1.00  0.00    -0.307 OA
HETATM   45  H37 UNL     1      18.472  10.566 -13.026  1.00  0.00     0.222 HD
ENDBRANCH  40  44
ENDBRANCH  39  40
ENDBRANCH  35  39
BRANCH  36  46
HETATM   46  O12 UNL     1      15.707  12.549 -11.977  1.00  0.00    -0.388 OA
HETATM   47  H35 UNL     1      15.415  12.940 -11.119  1.00  0.00     0.210 HD
ENDBRANCH  36  46
BRANCH  37  48
HETATM   48  N3  UNL     1      13.503  14.936 -12.248  1.00  0.00    -0.297 N 
HETATM   49  C19 UNL     1      12.134  14.802 -12.228  1.00  0.00     0.188 A 
HETATM   50  N4  UNL     1      11.596  15.349 -11.160  1.00  0.00    -0.346 N 
HETATM   51  C20 UNL     1      12.668  15.859 -10.450  1.00  0.00     0.116 A 
HETATM   52  H4  UNL     1      10.608  15.388 -10.910  1.00  0.00     0.167 HD
HETATM   53  C21 UNL     1      12.765  16.519  -9.213  1.00  0.00     0.109 A 
HETATM   54  C23 UNL     1      13.852  15.645 -11.133  1.00  0.00     0.142 A 
HETATM   55  N5  UNL     1      13.988  16.915  -8.783  1.00  0.00    -0.341 N 
HETATM   56  C22 UNL     1      15.054  16.659  -9.566  1.00  0.00     0.183 A 
HETATM   57  H5  UNL     1      14.098  17.394  -7.889  1.00  0.00     0.167 HD
HETATM   58  N6  UNL     1      15.085  16.030 -10.759  1.00  0.00    -0.336 N 
HETATM   59  H6  UNL     1      15.932  15.867 -11.305  1.00  0.00     0.168 HD
BRANCH  53  60
HETATM   60  N7  UNL     1      11.670  16.798  -8.410  1.00  0.00    -0.287 NA
HETATM   61  H33 UNL     1      11.290  15.989  -7.925  1.00  0.00     0.125 HD
HETATM   62  H34 UNL     1      11.005  17.419  -8.852  1.00  0.00     0.125 HD
ENDBRANCH  53  60
ENDBRANCH  37  48
ENDBRANCH  33  34
ENDBRANCH  32  33
ENDBRANCH  28  32
ENDBRANCH  27  28
ENDBRANCH  23  27
ENDBRANCH  22  23
ENDBRANCH  21  22
ENDBRANCH  18  21
ENDBRANCH  17  18
BRANCH  17  63
HETATM   63  O17 UNL     1       6.865   7.300 -16.473  1.00  0.00    -0.385 OA
HETATM   64  H38 UNL     1       7.371   6.508 -16.720  1.00  0.00     0.210 HD
ENDBRANCH  17  63
ENDBRANCH  14  17
ENDBRANCH  12  13
ENDBRANCH  11  12
ENDBRANCH   8  11
ENDBRANCH   6   7
ENDBRANCH   5   6
ENDBRANCH   4   5
ENDBRANCH   2   4
TORSDOF 27
ENDMDL
