HETATM    1  C1  UNL     1      -8.832   4.352  -2.046  1.00  0.00     0.026 A 
HETATM    2  C2  UNL     1      -9.416   3.087  -2.146  1.00  0.00     0.038 A 
HETATM    3  C3  UNL     1      -9.694   2.365  -0.994  1.00  0.00     0.065 A 
HETATM    4  C4  UNL     1      -9.412   2.896   0.260  1.00  0.00     0.038 A 
HETATM    5  C5  UNL     1      -8.825   4.162   0.352  1.00  0.00     0.026 A 
HETATM    6  C6  UNL     1      -8.484   4.880  -0.798  1.00  0.00     0.005 A 
HETATM    7  N1  UNL     1      -8.008   6.192  -0.695  1.00  0.00    -0.303 NA
HETATM    8  H5  UNL     1      -8.137   6.601   0.225  1.00  0.00     0.124 HD
HETATM    9  H6  UNL     1      -8.329   6.804  -1.438  1.00  0.00     0.124 HD
HETATM   10  O1  UNL     1     -10.267   1.137  -1.133  1.00  0.00    -0.361 OA
HETATM   11  H7  UNL     1      -9.662   0.470  -0.770  1.00  0.00     0.217 HD
HETATM    1  C1  UNL     1      -8.982   4.605  -2.221  1.00  0.00     0.026 A 
HETATM    2  C2  UNL     1      -9.105   5.655  -1.307  1.00  0.00     0.038 A 
HETATM    3  C3  UNL     1      -9.156   5.381   0.052  1.00  0.00     0.065 A 
HETATM    4  C4  UNL     1      -9.070   4.073   0.515  1.00  0.00     0.038 A 
HETATM    5  C5  UNL     1      -8.948   3.027  -0.406  1.00  0.00     0.026 A 
HETATM    6  C6  UNL     1      -8.954   3.278  -1.781  1.00  0.00     0.005 A 
HETATM    7  N1  UNL     1      -8.712   2.240  -2.688  1.00  0.00    -0.303 NA
HETATM    8  H5  UNL     1      -9.544   1.924  -3.177  1.00  0.00     0.124 HD
HETATM    9  H6  UNL     1      -8.178   1.471  -2.299  1.00  0.00     0.124 HD
HETATM   10  O1  UNL     1      -9.274   6.432   0.911  1.00  0.00    -0.361 OA
HETATM   11  H7  UNL     1      -8.609   7.100   0.677  1.00  0.00     0.217 HD
HETATM    1  C1  UNL     1      -9.396   5.548   0.826  1.00  0.00     0.026 A 
HETATM    2  C2  UNL     1     -10.033   4.520   1.524  1.00  0.00     0.038 A 
HETATM    3  C3  UNL     1      -9.900   3.209   1.090  1.00  0.00     0.065 A 
HETATM    4  C4  UNL     1      -9.124   2.907  -0.024  1.00  0.00     0.038 A 
HETATM    5  C5  UNL     1      -8.490   3.942  -0.718  1.00  0.00     0.026 A 
HETATM    6  C6  UNL     1      -8.661   5.275  -0.331  1.00  0.00     0.005 A 
HETATM    7  N1  UNL     1      -7.929   6.290  -0.958  1.00  0.00    -0.303 NA
HETATM    8  H5  UNL     1      -8.100   6.359  -1.956  1.00  0.00     0.124 HD
HETATM    9  H6  UNL     1      -6.939   6.279  -0.736  1.00  0.00     0.124 HD
HETATM   10  O1  UNL     1     -10.534   2.234   1.800  1.00  0.00    -0.361 OA
HETATM   11  H7  UNL     1     -11.492   2.387   1.748  1.00  0.00     0.217 HD
HETATM    1  C1  UNL     1      -8.741   3.279  -0.311  1.00  0.00     0.026 A 
HETATM    2  C2  UNL     1      -8.283   4.338  -1.098  1.00  0.00     0.038 A 
HETATM    3  C3  UNL     1      -8.549   5.645  -0.714  1.00  0.00     0.065 A 
HETATM    4  C4  UNL     1      -9.254   5.910   0.454  1.00  0.00     0.038 A 
HETATM    5  C5  UNL     1      -9.711   4.844   1.236  1.00  0.00     0.026 A 
HETATM    6  C6  UNL     1      -9.503   3.520   0.835  1.00  0.00     0.005 A 
HETATM    7  N1  UNL     1      -9.859   2.464   1.682  1.00  0.00    -0.303 NA
HETATM    8  H5  UNL     1      -9.216   1.679   1.646  1.00  0.00     0.124 HD
HETATM    9  H6  UNL     1     -10.827   2.175   1.593  1.00  0.00     0.124 HD
HETATM   10  O1  UNL     1      -8.082   6.650  -1.507  1.00  0.00    -0.361 OA
HETATM   11  H7  UNL     1      -8.738   6.829  -2.200  1.00  0.00     0.217 HD
HETATM    1  C1  UNL     1     -10.105   4.495   1.045  1.00  0.00     0.026 A 
HETATM    2  C2  UNL     1      -9.312   5.549   0.587  1.00  0.00     0.038 A 
HETATM    3  C3  UNL     1      -8.515   5.373  -0.536  1.00  0.00     0.065 A 
HETATM    4  C4  UNL     1      -8.512   4.162  -1.219  1.00  0.00     0.038 A 
HETATM    5  C5  UNL     1      -9.308   3.111  -0.754  1.00  0.00     0.026 A 
HETATM    6  C6  UNL     1     -10.072   3.250   0.409  1.00  0.00     0.005 A 
HETATM    7  N1  UNL     1     -10.955   2.236   0.798  1.00  0.00    -0.303 NA
HETATM    8  H5  UNL     1     -11.285   2.327   1.754  1.00  0.00     0.124 HD
HETATM    9  H6  UNL     1     -10.621   1.300   0.593  1.00  0.00     0.124 HD
HETATM   10  O1  UNL     1      -7.757   6.426  -0.953  1.00  0.00    -0.361 OA
HETATM   11  H7  UNL     1      -7.385   6.214  -1.824  1.00  0.00     0.217 HD
HETATM    1  C1  UNL     1      -8.469   4.050  -0.914  1.00  0.00     0.026 A 
HETATM    2  C2  UNL     1      -8.978   3.020  -0.119  1.00  0.00     0.038 A 
HETATM    3  C3  UNL     1      -9.628   3.326   1.068  1.00  0.00     0.065 A 
HETATM    4  C4  UNL     1      -9.792   4.648   1.466  1.00  0.00     0.038 A 
HETATM    5  C5  UNL     1      -9.278   5.673   0.665  1.00  0.00     0.026 A 
HETATM    6  C6  UNL     1      -8.569   5.383  -0.505  1.00  0.00     0.005 A 
HETATM    7  N1  UNL     1      -8.165   6.415  -1.358  1.00  0.00    -0.303 NA
HETATM    8  H5  UNL     1      -7.189   6.676  -1.250  1.00  0.00     0.124 HD
HETATM    9  H6  UNL     1      -8.782   7.220  -1.350  1.00  0.00     0.124 HD
HETATM   10  O1  UNL     1     -10.112   2.294   1.815  1.00  0.00    -0.361 OA
HETATM   11  H7  UNL     1     -10.967   2.019   1.446  1.00  0.00     0.217 HD
HETATM    1  C1  UNL     1      -8.741   5.071  -0.183  1.00  0.00     0.026 A 
HETATM    2  C2  UNL     1      -8.548   4.508  -1.447  1.00  0.00     0.038 A 
HETATM    3  C3  UNL     1      -8.958   3.205  -1.689  1.00  0.00     0.065 A 
HETATM    4  C4  UNL     1      -9.573   2.459  -0.689  1.00  0.00     0.038 A 
HETATM    5  C5  UNL     1      -9.761   3.028   0.574  1.00  0.00     0.026 A 
HETATM    6  C6  UNL     1      -9.302   4.319   0.854  1.00  0.00     0.005 A 
HETATM    7  N1  UNL     1      -9.601   4.922   2.081  1.00  0.00    -0.303 NA
HETATM    8  H5  UNL     1      -8.828   5.449   2.475  1.00  0.00     0.124 HD
HETATM    9  H6  UNL     1     -10.023   4.293   2.755  1.00  0.00     0.124 HD
HETATM   10  O1  UNL     1      -8.755   2.693  -2.935  1.00  0.00    -0.361 OA
HETATM   11  H7  UNL     1      -8.224   1.884  -2.855  1.00  0.00     0.217 HD
HETATM    1  C1  UNL     1      -9.220   3.149  -0.760  1.00  0.00     0.026 A 
HETATM    2  C2  UNL     1      -9.340   3.332   0.619  1.00  0.00     0.038 A 
HETATM    3  C3  UNL     1      -9.374   4.617   1.142  1.00  0.00     0.065 A 
HETATM    4  C4  UNL     1      -9.306   5.724   0.305  1.00  0.00     0.038 A 
HETATM    5  C5  UNL     1      -9.185   5.534  -1.075  1.00  0.00     0.026 A 
HETATM    6  C6  UNL     1      -9.090   4.248  -1.616  1.00  0.00     0.005 A 
HETATM    7  N1  UNL     1      -9.089   4.065  -3.003  1.00  0.00    -0.303 NA
HETATM    8  H5  UNL     1      -9.998   4.200  -3.433  1.00  0.00     0.124 HD
HETATM    9  H6  UNL     1      -8.644   3.204  -3.304  1.00  0.00     0.124 HD
HETATM   10  O1  UNL     1      -9.495   4.753   2.493  1.00  0.00    -0.361 OA
HETATM   11  H7  UNL     1     -10.437   4.832   2.713  1.00  0.00     0.217 HD
HETATM    1  C1  UNL     1      -8.565   3.954  -0.203  1.00  0.00     0.026 A 
HETATM    2  C2  UNL     1      -9.530   3.066   0.280  1.00  0.00     0.038 A 
HETATM    3  C3  UNL     1     -10.785   3.540   0.635  1.00  0.00     0.065 A 
HETATM    4  C4  UNL     1     -11.097   4.888   0.499  1.00  0.00     0.038 A 
HETATM    5  C5  UNL     1     -10.126   5.771   0.017  1.00  0.00     0.026 A 
HETATM    6  C6  UNL     1      -8.838   5.322  -0.291  1.00  0.00     0.005 A 
HETATM    7  N1  UNL     1      -7.912   6.189  -0.884  1.00  0.00    -0.303 NA
HETATM    8  H5  UNL     1      -6.946   5.909  -0.748  1.00  0.00     0.124 HD
HETATM    9  H6  UNL     1      -8.066   7.167  -0.663  1.00  0.00     0.124 HD
HETATM   10  O1  UNL     1     -11.698   2.642   1.099  1.00  0.00    -0.361 OA
HETATM   11  H7  UNL     1     -12.586   2.947   0.852  1.00  0.00     0.217 HD
HETATM    1  C1  UNL     1      -8.953   4.152   0.086  1.00  0.00     0.026 A 
HETATM    2  C2  UNL     1      -8.873   3.209  -0.941  1.00  0.00     0.038 A 
HETATM    3  C3  UNL     1      -9.123   3.595  -2.250  1.00  0.00     0.065 A 
HETATM    4  C4  UNL     1      -9.437   4.916  -2.551  1.00  0.00     0.038 A 
HETATM    5  C5  UNL     1      -9.516   5.854  -1.518  1.00  0.00     0.026 A 
HETATM    6  C6  UNL     1      -9.325   5.472  -0.186  1.00  0.00     0.005 A 
HETATM    7  N1  UNL     1      -9.289   6.438   0.826  1.00  0.00    -0.303 NA
HETATM    8  H5  UNL     1     -10.207   6.766   1.110  1.00  0.00     0.124 HD
HETATM    9  H6  UNL     1      -8.645   7.200   0.643  1.00  0.00     0.124 HD
HETATM   10  O1  UNL     1      -9.033   2.646  -3.224  1.00  0.00    -0.361 OA
HETATM   11  H7  UNL     1      -8.099   2.405  -3.336  1.00  0.00     0.217 HD
HETATM    1  C1  UNL     1     -12.159   3.838   3.492  1.00  0.00     0.026 A 
HETATM    2  C2  UNL     1     -11.445   3.334   2.402  1.00  0.00     0.038 A 
HETATM    3  C3  UNL     1     -10.159   2.847   2.588  1.00  0.00     0.065 A 
HETATM    4  C4  UNL     1      -9.581   2.840   3.853  1.00  0.00     0.038 A 
HETATM    5  C5  UNL     1     -10.301   3.347   4.938  1.00  0.00     0.026 A 
HETATM    6  C6  UNL     1     -11.575   3.896   4.761  1.00  0.00     0.005 A 
HETATM    7  N1  UNL     1     -12.333   4.290   5.869  1.00  0.00    -0.303 NA
HETATM    8  H5  UNL     1     -13.253   4.647   5.628  1.00  0.00     0.124 HD
HETATM    9  H6  UNL     1     -11.837   4.900   6.509  1.00  0.00     0.124 HD
HETATM   10  O1  UNL     1      -9.496   2.362   1.500  1.00  0.00    -0.361 OA
HETATM   11  H7  UNL     1      -9.454   3.060   0.827  1.00  0.00     0.217 HD
HETATM    1  C1  UNL     1     -11.562   3.425   2.410  1.00  0.00     0.026 A 
HETATM    2  C2  UNL     1     -12.191   3.882   3.570  1.00  0.00     0.038 A 
HETATM    3  C3  UNL     1     -11.521   3.823   4.784  1.00  0.00     0.065 A 
HETATM    4  C4  UNL     1     -10.223   3.328   4.853  1.00  0.00     0.038 A 
HETATM    5  C5  UNL     1      -9.601   2.871   3.687  1.00  0.00     0.026 A 
HETATM    6  C6  UNL     1     -10.281   2.868   2.465  1.00  0.00     0.005 A 
HETATM    7  N1  UNL     1      -9.610   2.521   1.287  1.00  0.00    -0.303 NA
HETATM    8  H5  UNL     1      -9.999   1.707   0.821  1.00  0.00     0.124 HD
HETATM    9  H6  UNL     1      -8.603   2.464   1.389  1.00  0.00     0.124 HD
HETATM   10  O1  UNL     1     -12.167   4.281   5.893  1.00  0.00    -0.361 OA
HETATM   11  H7  UNL     1     -12.932   3.709   6.064  1.00  0.00     0.217 HD
HETATM    1  C1  UNL     1      -9.559   3.867   3.123  1.00  0.00     0.026 A 
HETATM    2  C2  UNL     1      -9.593   4.294   1.794  1.00  0.00     0.038 A 
HETATM    3  C3  UNL     1     -10.813   4.450   1.152  1.00  0.00     0.065 A 
HETATM    4  C4  UNL     1     -12.004   4.200   1.825  1.00  0.00     0.038 A 
HETATM    5  C5  UNL     1     -11.963   3.772   3.155  1.00  0.00     0.026 A 
HETATM    6  C6  UNL     1     -10.741   3.553   3.801  1.00  0.00     0.005 A 
HETATM    7  N1  UNL     1     -10.711   3.241   5.165  1.00  0.00    -0.303 NA
HETATM    8  H5  UNL     1      -9.999   3.746   5.683  1.00  0.00     0.124 HD
HETATM    9  H6  UNL     1     -10.695   2.245   5.357  1.00  0.00     0.124 HD
HETATM   10  O1  UNL     1     -10.804   4.870  -0.144  1.00  0.00    -0.361 OA
HETATM   11  H7  UNL     1     -11.494   4.391  -0.630  1.00  0.00     0.217 HD
HETATM    1  C1  UNL     1      -9.616   4.367   1.737  1.00  0.00     0.026 A 
HETATM    2  C2  UNL     1      -9.698   4.020   3.088  1.00  0.00     0.038 A 
HETATM    3  C3  UNL     1     -10.884   3.508   3.595  1.00  0.00     0.065 A 
HETATM    4  C4  UNL     1     -11.986   3.322   2.768  1.00  0.00     0.038 A 
HETATM    5  C5  UNL     1     -11.896   3.672   1.418  1.00  0.00     0.026 A 
HETATM    6  C6  UNL     1     -10.729   4.244   0.901  1.00  0.00     0.005 A 
HETATM    7  N1  UNL     1     -10.609   4.480  -0.473  1.00  0.00    -0.303 NA
HETATM    8  H5  UNL     1      -9.921   5.189  -0.706  1.00  0.00     0.124 HD
HETATM    9  H6  UNL     1     -11.495   4.633  -0.942  1.00  0.00     0.124 HD
HETATM   10  O1  UNL     1     -10.923   3.179   4.917  1.00  0.00    -0.361 OA
HETATM   11  H7  UNL     1     -10.013   3.088   5.241  1.00  0.00     0.217 HD
HETATM    1  C1  UNL     1     -12.828  -5.264   0.069  1.00  0.00     0.026 A 
HETATM    2  C2  UNL     1     -11.887  -5.597  -0.908  1.00  0.00     0.038 A 
HETATM    3  C3  UNL     1     -10.864  -6.484  -0.604  1.00  0.00     0.065 A 
HETATM    4  C4  UNL     1     -10.776  -7.057   0.660  1.00  0.00     0.038 A 
HETATM    5  C5  UNL     1     -11.721  -6.718   1.633  1.00  0.00     0.026 A 
HETATM    6  C6  UNL     1     -12.724  -5.782   1.364  1.00  0.00     0.005 A 
HETATM    7  N1  UNL     1     -13.733  -5.539   2.303  1.00  0.00    -0.303 NA
HETATM    8  H5  UNL     1     -13.922  -6.330   2.911  1.00  0.00     0.124 HD
HETATM    9  H6  UNL     1     -14.579  -5.147   1.905  1.00  0.00     0.124 HD
HETATM   10  O1  UNL     1      -9.968  -6.785  -1.585  1.00  0.00    -0.361 OA
HETATM   11  H7  UNL     1     -10.050  -7.728  -1.801  1.00  0.00     0.217 HD
HETATM    1  C1  UNL     1     -11.127   6.349  -1.781  1.00  0.00     0.026 A 
HETATM    2  C2  UNL     1     -10.815   6.137  -0.436  1.00  0.00     0.038 A 
HETATM    3  C3  UNL     1      -9.487   6.036  -0.045  1.00  0.00     0.065 A 
HETATM    4  C4  UNL     1      -8.463   6.161  -0.978  1.00  0.00     0.038 A 
HETATM    5  C5  UNL     1      -8.783   6.372  -2.323  1.00  0.00     0.026 A 
HETATM    6  C6  UNL     1     -10.116   6.418  -2.744  1.00  0.00     0.005 A 
HETATM    7  N1  UNL     1     -10.425   6.748  -4.069  1.00  0.00    -0.303 NA
HETATM    8  H5  UNL     1      -9.756   7.378  -4.499  1.00  0.00     0.124 HD
HETATM    9  H6  UNL     1     -11.383   7.052  -4.203  1.00  0.00     0.124 HD
HETATM   10  O1  UNL     1      -9.224   5.832   1.276  1.00  0.00    -0.361 OA
HETATM   11  H7  UNL     1      -8.263   5.868   1.410  1.00  0.00     0.217 HD
HETATM    1  C1  UNL     1     -14.929   3.643   7.260  1.00  0.00     0.026 A 
HETATM    2  C2  UNL     1     -14.308   3.797   6.019  1.00  0.00     0.038 A 
HETATM    3  C3  UNL     1     -13.422   4.846   5.818  1.00  0.00     0.065 A 
HETATM    4  C4  UNL     1     -13.135   5.736   6.846  1.00  0.00     0.038 A 
HETATM    5  C5  UNL     1     -13.761   5.577   8.086  1.00  0.00     0.026 A 
HETATM    6  C6  UNL     1     -14.700   4.561   8.290  1.00  0.00     0.005 A 
HETATM    7  N1  UNL     1     -15.231   4.337   9.565  1.00  0.00    -0.303 NA
HETATM    8  H5  UNL     1     -15.975   3.646   9.582  1.00  0.00     0.124 HD
HETATM    9  H6  UNL     1     -15.481   5.186  10.061  1.00  0.00     0.124 HD
HETATM   10  O1  UNL     1     -12.835   4.961   4.593  1.00  0.00    -0.361 OA
HETATM   11  H7  UNL     1     -12.477   5.858   4.504  1.00  0.00     0.217 HD
HETATM    1  C1  UNL     1     -10.473   3.811   2.693  1.00  0.00     0.026 A 
HETATM    2  C2  UNL     1      -9.452   4.290   1.869  1.00  0.00     0.038 A 
HETATM    3  C3  UNL     1      -9.457   3.981   0.516  1.00  0.00     0.065 A 
HETATM    4  C4  UNL     1     -10.478   3.211  -0.030  1.00  0.00     0.038 A 
HETATM    5  C5  UNL     1     -11.496   2.734   0.801  1.00  0.00     0.026 A 
HETATM    6  C6  UNL     1     -11.477   2.986   2.177  1.00  0.00     0.005 A 
HETATM    7  N1  UNL     1     -12.559   2.606   2.978  1.00  0.00    -0.303 NA
HETATM    8  H5  UNL     1     -12.841   3.316   3.647  1.00  0.00     0.124 HD
HETATM    9  H6  UNL     1     -12.452   1.693   3.407  1.00  0.00     0.124 HD
HETATM   10  O1  UNL     1      -8.445   4.470  -0.254  1.00  0.00    -0.361 OA
HETATM   11  H7  UNL     1      -7.600   4.167   0.115  1.00  0.00     0.217 HD
HETATM    1  C1  UNL     1     -12.440  -7.881  -0.921  1.00  0.00     0.026 A 
HETATM    2  C2  UNL     1     -12.556  -7.270  -2.171  1.00  0.00     0.038 A 
HETATM    3  C3  UNL     1     -11.601  -6.349  -2.577  1.00  0.00     0.065 A 
HETATM    4  C4  UNL     1     -10.521  -6.041  -1.757  1.00  0.00     0.038 A 
HETATM    5  C5  UNL     1     -10.412  -6.655  -0.506  1.00  0.00     0.026 A 
HETATM    6  C6  UNL     1     -11.396  -7.542  -0.055  1.00  0.00     0.005 A 
HETATM    7  N1  UNL     1     -11.218  -8.240   1.144  1.00  0.00    -0.303 NA
HETATM    8  H5  UNL     1     -10.244  -8.391   1.388  1.00  0.00     0.124 HD
HETATM    9  H6  UNL     1     -11.769  -9.090   1.210  1.00  0.00     0.124 HD
HETATM   10  O1  UNL     1     -11.747  -5.777  -3.805  1.00  0.00    -0.361 OA
HETATM   11  H7  UNL     1     -12.069  -4.869  -3.688  1.00  0.00     0.217 HD
HETATM    1  C1  UNL     1     -11.933  -5.518  -1.083  1.00  0.00     0.026 A 
HETATM    2  C2  UNL     1     -12.635  -4.434  -1.615  1.00  0.00     0.038 A 
HETATM    3  C3  UNL     1     -12.086  -3.705  -2.660  1.00  0.00     0.065 A 
HETATM    4  C4  UNL     1     -10.850  -4.054  -3.193  1.00  0.00     0.038 A 
HETATM    5  C5  UNL     1     -10.152  -5.138  -2.654  1.00  0.00     0.026 A 
HETATM    6  C6  UNL     1     -10.662  -5.849  -1.563  1.00  0.00     0.005 A 
HETATM    7  N1  UNL     1     -10.015  -7.003  -1.108  1.00  0.00    -0.303 NA
HETATM    8  H5  UNL     1      -9.486  -6.865  -0.253  1.00  0.00     0.124 HD
HETATM    9  H6  UNL     1      -9.475  -7.479  -1.823  1.00  0.00     0.124 HD
HETATM   10  O1  UNL     1     -12.803  -2.657  -3.154  1.00  0.00    -0.361 OA
HETATM   11  H7  UNL     1     -13.409  -2.344  -2.464  1.00  0.00     0.217 HD
