MODEL 1
REMARK VINA RESULT:      -4.7      0.000      0.000
REMARK  2 active torsions:
REMARK  status: ('A' for Active; 'I' for Inactive)
REMARK    1  A    between atoms: C3_3  and  O1_8 
REMARK    2  A    between atoms: C6_6  and  N1_7 
ROOT
HETATM    1  C1  UNL     1       1.316   6.434  -2.446  1.00  0.00     0.026 A 
HETATM    2  C2  UNL     1       1.143   7.692  -3.027  1.00  0.00     0.038 A 
HETATM    3  C3  UNL     1       0.099   7.901  -3.918  1.00  0.00     0.065 A 
HETATM    4  C4  UNL     1      -0.786   6.873  -4.224  1.00  0.00     0.038 A 
HETATM    5  C5  UNL     1      -0.605   5.616  -3.640  1.00  0.00     0.026 A 
HETATM    6  C6  UNL     1       0.475   5.370  -2.786  1.00  0.00     0.005 A 
ENDROOT
BRANCH   6   7
HETATM    7  N1  UNL     1       0.578   4.146  -2.115  1.00  0.00    -0.303 NA
HETATM    8  H5  UNL     1       1.321   3.550  -2.467  1.00  0.00     0.124 HD
HETATM    9  H6  UNL     1      -0.303   3.653  -2.024  1.00  0.00     0.124 HD
ENDBRANCH   6   7
BRANCH   3  10
HETATM   10  O1  UNL     1      -0.038   9.143  -4.461  1.00  0.00    -0.361 OA
HETATM   11  H7  UNL     1       0.815   9.413  -4.837  1.00  0.00     0.217 HD
ENDBRANCH   3  10
TORSDOF 2
ENDMDL
MODEL 2
REMARK VINA RESULT:      -4.7      2.781      3.682
REMARK  2 active torsions:
REMARK  status: ('A' for Active; 'I' for Inactive)
REMARK    1  A    between atoms: C3_3  and  O1_8 
REMARK    2  A    between atoms: C6_6  and  N1_7 
ROOT
HETATM    1  C1  UNL     1      -0.686   6.697  -4.180  1.00  0.00     0.026 A 
HETATM    2  C2  UNL     1      -0.509   5.468  -3.540  1.00  0.00     0.038 A 
HETATM    3  C3  UNL     1       0.503   5.320  -2.603  1.00  0.00     0.065 A 
HETATM    4  C4  UNL     1       1.333   6.388  -2.282  1.00  0.00     0.038 A 
HETATM    5  C5  UNL     1       1.152   7.615  -2.928  1.00  0.00     0.026 A 
HETATM    6  C6  UNL     1       0.175   7.767  -3.917  1.00  0.00     0.005 A 
ENDROOT
BRANCH   6   7
HETATM    7  N1  UNL     1      -0.077   9.028  -4.471  1.00  0.00    -0.303 NA
HETATM    8  H5  UNL     1       0.722   9.654  -4.440  1.00  0.00     0.124 HD
HETATM    9  H6  UNL     1      -0.924   9.465  -4.125  1.00  0.00     0.124 HD
ENDBRANCH   6   7
BRANCH   3  10
HETATM   10  O1  UNL     1       0.641   4.106  -1.998  1.00  0.00    -0.361 OA
HETATM   11  H7  UNL     1       1.528   3.763  -2.191  1.00  0.00     0.217 HD
ENDBRANCH   3  10
TORSDOF 2
ENDMDL
MODEL 3
REMARK VINA RESULT:      -4.5      2.591      3.361
REMARK  2 active torsions:
REMARK  status: ('A' for Active; 'I' for Inactive)
REMARK    1  A    between atoms: C3_3  and  O1_8 
REMARK    2  A    between atoms: C6_6  and  N1_7 
ROOT
HETATM    1  C1  UNL     1      -1.250   6.622  -3.784  1.00  0.00     0.026 A 
HETATM    2  C2  UNL     1      -0.032   6.318  -3.172  1.00  0.00     0.038 A 
HETATM    3  C3  UNL     1       0.998   7.247  -3.192  1.00  0.00     0.065 A 
HETATM    4  C4  UNL     1       0.824   8.485  -3.802  1.00  0.00     0.038 A 
HETATM    5  C5  UNL     1      -0.398   8.781  -4.414  1.00  0.00     0.026 A 
HETATM    6  C6  UNL     1      -1.427   7.836  -4.455  1.00  0.00     0.005 A 
ENDROOT
BRANCH   6   7
HETATM    7  N1  UNL     1      -2.684   8.184  -4.963  1.00  0.00    -0.303 NA
HETATM    8  H5  UNL     1      -3.354   7.421  -4.952  1.00  0.00     0.124 HD
HETATM    9  H6  UNL     1      -2.648   8.653  -5.862  1.00  0.00     0.124 HD
ENDBRANCH   6   7
BRANCH   3  10
HETATM   10  O1  UNL     1       2.170   6.914  -2.582  1.00  0.00    -0.361 OA
HETATM   11  H7  UNL     1       2.658   6.305  -3.159  1.00  0.00     0.217 HD
ENDBRANCH   3  10
TORSDOF 2
ENDMDL
MODEL 4
REMARK VINA RESULT:      -4.4     10.291     11.186
REMARK  2 active torsions:
REMARK  status: ('A' for Active; 'I' for Inactive)
REMARK    1  A    between atoms: C3_3  and  O1_8 
REMARK    2  A    between atoms: C6_6  and  N1_7 
ROOT
HETATM    1  C1  UNL     1       0.010  -5.047  -6.169  1.00  0.00     0.026 A 
HETATM    2  C2  UNL     1       0.788  -4.713  -5.059  1.00  0.00     0.038 A 
HETATM    3  C3  UNL     1       0.420  -3.642  -4.258  1.00  0.00     0.065 A 
HETATM    4  C4  UNL     1      -0.725  -2.906  -4.541  1.00  0.00     0.038 A 
HETATM    5  C5  UNL     1      -1.499  -3.245  -5.655  1.00  0.00     0.026 A 
HETATM    6  C6  UNL     1      -1.112  -4.284  -6.508  1.00  0.00     0.005 A 
ENDROOT
BRANCH   6   7
HETATM    7  N1  UNL     1      -1.954  -4.691  -7.549  1.00  0.00    -0.303 NA
HETATM    8  H5  UNL     1      -1.495  -4.728  -8.454  1.00  0.00     0.124 HD
HETATM    9  H6  UNL     1      -2.836  -4.191  -7.584  1.00  0.00     0.124 HD
ENDBRANCH   6   7
BRANCH   3  10
HETATM   10  O1  UNL     1       1.204  -3.350  -3.182  1.00  0.00    -0.361 OA
HETATM   11  H7  UNL     1       1.411  -2.402  -3.197  1.00  0.00     0.217 HD
ENDBRANCH   3  10
TORSDOF 2
ENDMDL
MODEL 5
REMARK VINA RESULT:      -4.4     11.144     11.604
REMARK  2 active torsions:
REMARK  status: ('A' for Active; 'I' for Inactive)
REMARK    1  A    between atoms: C3_3  and  O1_8 
REMARK    2  A    between atoms: C6_6  and  N1_7 
ROOT
HETATM    1  C1  UNL     1       6.924  -1.514  -6.260  1.00  0.00     0.026 A 
HETATM    2  C2  UNL     1       5.681  -2.067  -6.574  1.00  0.00     0.038 A 
HETATM    3  C3  UNL     1       5.172  -3.100  -5.800  1.00  0.00     0.065 A 
HETATM    4  C4  UNL     1       5.881  -3.580  -4.705  1.00  0.00     0.038 A 
HETATM    5  C5  UNL     1       7.126  -3.023  -4.397  1.00  0.00     0.026 A 
HETATM    6  C6  UNL     1       7.682  -2.021  -5.199  1.00  0.00     0.005 A 
ENDROOT
BRANCH   6   7
HETATM    7  N1  UNL     1       8.870  -1.389  -4.816  1.00  0.00    -0.303 NA
HETATM    8  H5  UNL     1       9.642  -2.030  -4.663  1.00  0.00     0.124 HD
HETATM    9  H6  UNL     1       8.757  -0.732  -4.051  1.00  0.00     0.124 HD
ENDBRANCH   6   7
BRANCH   3  10
HETATM   10  O1  UNL     1       3.954  -3.610  -6.138  1.00  0.00    -0.361 OA
HETATM   11  H7  UNL     1       3.395  -3.627  -5.345  1.00  0.00     0.217 HD
ENDBRANCH   3  10
TORSDOF 2
ENDMDL
MODEL 6
REMARK VINA RESULT:      -4.4      1.951      2.723
REMARK  2 active torsions:
REMARK  status: ('A' for Active; 'I' for Inactive)
REMARK    1  A    between atoms: C3_3  and  O1_8 
REMARK    2  A    between atoms: C6_6  and  N1_7 
ROOT
HETATM    1  C1  UNL     1      -0.410   6.438  -3.436  1.00  0.00     0.026 A 
HETATM    2  C2  UNL     1      -1.693   6.739  -3.901  1.00  0.00     0.038 A 
HETATM    3  C3  UNL     1      -1.927   7.949  -4.539  1.00  0.00     0.065 A 
HETATM    4  C4  UNL     1      -0.893   8.858  -4.735  1.00  0.00     0.038 A 
HETATM    5  C5  UNL     1       0.388   8.550  -4.266  1.00  0.00     0.026 A 
HETATM    6  C6  UNL     1       0.631   7.362  -3.569  1.00  0.00     0.005 A 
ENDROOT
BRANCH   6   7
HETATM    7  N1  UNL     1       1.937   7.010  -3.209  1.00  0.00    -0.303 NA
HETATM    8  H5  UNL     1       2.456   6.554  -3.954  1.00  0.00     0.124 HD
HETATM    9  H6  UNL     1       1.999   6.507  -2.331  1.00  0.00     0.124 HD
ENDBRANCH   6   7
BRANCH   3  10
HETATM   10  O1  UNL     1      -3.191   8.204  -4.980  1.00  0.00    -0.361 OA
HETATM   11  H7  UNL     1      -3.154   8.929  -5.624  1.00  0.00     0.217 HD
ENDBRANCH   3  10
TORSDOF 2
ENDMDL
MODEL 7
REMARK VINA RESULT:      -4.4     10.455     11.220
REMARK  2 active torsions:
REMARK  status: ('A' for Active; 'I' for Inactive)
REMARK    1  A    between atoms: C3_3  and  O1_8 
REMARK    2  A    between atoms: C6_6  and  N1_7 
ROOT
HETATM    1  C1  UNL     1       4.294  -1.791  -6.303  1.00  0.00     0.026 A 
HETATM    2  C2  UNL     1       5.561  -1.278  -6.587  1.00  0.00     0.038 A 
HETATM    3  C3  UNL     1       6.671  -2.108  -6.520  1.00  0.00     0.065 A 
HETATM    4  C4  UNL     1       6.531  -3.451  -6.188  1.00  0.00     0.038 A 
HETATM    5  C5  UNL     1       5.260  -3.958  -5.903  1.00  0.00     0.026 A 
HETATM    6  C6  UNL     1       4.137  -3.123  -5.909  1.00  0.00     0.005 A 
ENDROOT
BRANCH   6   7
HETATM    7  N1  UNL     1       2.857  -3.663  -5.740  1.00  0.00    -0.303 NA
HETATM    8  H5  UNL     1       2.852  -4.671  -5.615  1.00  0.00     0.124 HD
HETATM    9  H6  UNL     1       2.187  -3.357  -6.438  1.00  0.00     0.124 HD
ENDBRANCH   6   7
BRANCH   3  10
HETATM   10  O1  UNL     1       7.889  -1.570  -6.807  1.00  0.00    -0.361 OA
HETATM   11  H7  UNL     1       8.578  -2.190  -6.519  1.00  0.00     0.217 HD
ENDBRANCH   3  10
TORSDOF 2
ENDMDL
MODEL 8
REMARK VINA RESULT:      -4.4     10.202     11.098
REMARK  2 active torsions:
REMARK  status: ('A' for Active; 'I' for Inactive)
REMARK    1  A    between atoms: C3_3  and  O1_8 
REMARK    2  A    between atoms: C6_6  and  N1_7 
ROOT
HETATM    1  C1  UNL     1      -0.669  -2.898  -4.545  1.00  0.00     0.026 A 
HETATM    2  C2  UNL     1      -1.504  -3.210  -5.620  1.00  0.00     0.038 A 
HETATM    3  C3  UNL     1      -1.195  -4.284  -6.442  1.00  0.00     0.065 A 
HETATM    4  C4  UNL     1      -0.070  -5.063  -6.196  1.00  0.00     0.038 A 
HETATM    5  C5  UNL     1       0.762  -4.744  -5.119  1.00  0.00     0.026 A 
HETATM    6  C6  UNL     1       0.500  -3.630  -4.315  1.00  0.00     0.005 A 
ENDROOT
BRANCH   6   7
HETATM    7  N1  UNL     1       1.269  -3.390  -3.171  1.00  0.00    -0.303 NA
HETATM    8  H5  UNL     1       2.124  -3.936  -3.132  1.00  0.00     0.124 HD
HETATM    9  H6  UNL     1       0.743  -3.435  -2.305  1.00  0.00     0.124 HD
ENDBRANCH   6   7
BRANCH   3  10
HETATM   10  O1  UNL     1      -2.037  -4.558  -7.478  1.00  0.00    -0.361 OA
HETATM   11  H7  UNL     1      -2.575  -3.770  -7.657  1.00  0.00     0.217 HD
ENDBRANCH   3  10
TORSDOF 2
ENDMDL
MODEL 9
REMARK VINA RESULT:      -4.4     10.751     11.574
REMARK  2 active torsions:
REMARK  status: ('A' for Active; 'I' for Inactive)
REMARK    1  A    between atoms: C3_3  and  O1_8 
REMARK    2  A    between atoms: C6_6  and  N1_7 
ROOT
HETATM    1  C1  UNL     1      -1.984  -3.356  -6.214  1.00  0.00     0.026 A 
HETATM    2  C2  UNL     1      -1.458  -4.172  -7.219  1.00  0.00     0.038 A 
HETATM    3  C3  UNL     1      -0.344  -4.956  -6.955  1.00  0.00     0.065 A 
HETATM    4  C4  UNL     1       0.244  -4.949  -5.695  1.00  0.00     0.038 A 
HETATM    5  C5  UNL     1      -0.287  -4.129  -4.695  1.00  0.00     0.026 A 
HETATM    6  C6  UNL     1      -1.373  -3.289  -4.958  1.00  0.00     0.005 A 
ENDROOT
BRANCH   6   7
HETATM    7  N1  UNL     1      -1.971  -2.563  -3.922  1.00  0.00    -0.303 NA
HETATM    8  H5  UNL     1      -2.093  -3.098  -3.067  1.00  0.00     0.124 HD
HETATM    9  H6  UNL     1      -2.817  -2.075  -4.196  1.00  0.00     0.124 HD
ENDBRANCH   6   7
BRANCH   3  10
HETATM   10  O1  UNL     1       0.137  -5.740  -7.960  1.00  0.00    -0.361 OA
HETATM   11  H7  UNL     1      -0.102  -6.662  -7.775  1.00  0.00     0.217 HD
ENDBRANCH   3  10
TORSDOF 2
ENDMDL
MODEL 10
REMARK VINA RESULT:      -4.4     11.160     11.560
REMARK  2 active torsions:
REMARK  status: ('A' for Active; 'I' for Inactive)
REMARK    1  A    between atoms: C3_3  and  O1_8 
REMARK    2  A    between atoms: C6_6  and  N1_7 
ROOT
HETATM    1  C1  UNL     1       6.048  -3.546  -4.690  1.00  0.00     0.026 A 
HETATM    2  C2  UNL     1       7.275  -2.973  -4.348  1.00  0.00     0.038 A 
HETATM    3  C3  UNL     1       7.792  -1.944  -5.122  1.00  0.00     0.065 A 
HETATM    4  C4  UNL     1       7.093  -1.467  -6.225  1.00  0.00     0.038 A 
HETATM    5  C5  UNL     1       5.866  -2.046  -6.562  1.00  0.00     0.026 A 
HETATM    6  C6  UNL     1       5.356  -3.123  -5.829  1.00  0.00     0.005 A 
ENDROOT
BRANCH   6   7
HETATM    7  N1  UNL     1       4.075  -3.616  -6.101  1.00  0.00    -0.303 NA
HETATM    8  H5  UNL     1       4.076  -4.492  -6.614  1.00  0.00     0.124 HD
HETATM    9  H6  UNL     1       3.449  -2.930  -6.510  1.00  0.00     0.124 HD
ENDBRANCH   6   7
BRANCH   3  10
HETATM   10  O1  UNL     1       8.991  -1.410  -4.754  1.00  0.00    -0.361 OA
HETATM   11  H7  UNL     1       9.627  -1.551  -5.473  1.00  0.00     0.217 HD
ENDBRANCH   3  10
TORSDOF 2
ENDMDL
MODEL 11
REMARK VINA RESULT:      -4.4     10.733     11.510
REMARK  2 active torsions:
REMARK  status: ('A' for Active; 'I' for Inactive)
REMARK    1  A    between atoms: C3_3  and  O1_8 
REMARK    2  A    between atoms: C6_6  and  N1_7 
ROOT
HETATM    1  C1  UNL     1       6.733  -3.518  -6.176  1.00  0.00     0.026 A 
HETATM    2  C2  UNL     1       5.444  -4.015  -5.970  1.00  0.00     0.038 A 
HETATM    3  C3  UNL     1       4.355  -3.159  -6.054  1.00  0.00     0.065 A 
HETATM    4  C4  UNL     1       4.534  -1.814  -6.357  1.00  0.00     0.038 A 
HETATM    5  C5  UNL     1       5.827  -1.323  -6.561  1.00  0.00     0.026 A 
HETATM    6  C6  UNL     1       6.941  -2.158  -6.423  1.00  0.00     0.005 A 
ENDROOT
BRANCH   6   7
HETATM    7  N1  UNL     1       8.219  -1.687  -6.745  1.00  0.00    -0.303 NA
HETATM    8  H5  UNL     1       8.216  -0.782  -7.206  1.00  0.00     0.124 HD
HETATM    9  H6  UNL     1       8.796  -2.366  -7.230  1.00  0.00     0.124 HD
ENDBRANCH   6   7
BRANCH   3  10
HETATM   10  O1  UNL     1       3.114  -3.682  -5.849  1.00  0.00    -0.361 OA
HETATM   11  H7  UNL     1       3.084  -4.571  -6.239  1.00  0.00     0.217 HD
ENDBRANCH   3  10
TORSDOF 2
ENDMDL
MODEL 12
REMARK VINA RESULT:      -4.4     10.429     11.180
REMARK  2 active torsions:
REMARK  status: ('A' for Active; 'I' for Inactive)
REMARK    1  A    between atoms: C3_3  and  O1_8 
REMARK    2  A    between atoms: C6_6  and  N1_7 
ROOT
HETATM    1  C1  UNL     1       5.256  -3.991  -5.839  1.00  0.00     0.026 A 
HETATM    2  C2  UNL     1       6.491  -3.421  -6.159  1.00  0.00     0.038 A 
HETATM    3  C3  UNL     1       6.558  -2.084  -6.523  1.00  0.00     0.065 A 
HETATM    4  C4  UNL     1       5.409  -1.301  -6.557  1.00  0.00     0.038 A 
HETATM    5  C5  UNL     1       4.177  -1.878  -6.236  1.00  0.00     0.026 A 
HETATM    6  C6  UNL     1       4.081  -3.238  -5.924  1.00  0.00     0.005 A 
ENDROOT
BRANCH   6   7
HETATM    7  N1  UNL     1       2.865  -3.778  -5.490  1.00  0.00    -0.303 NA
HETATM    8  H5  UNL     1       2.958  -4.415  -4.706  1.00  0.00     0.124 HD
HETATM    9  H6  UNL     1       2.298  -4.165  -6.237  1.00  0.00     0.124 HD
ENDBRANCH   6   7
BRANCH   3  10
HETATM   10  O1  UNL     1       7.781  -1.565  -6.825  1.00  0.00    -0.361 OA
HETATM   11  H7  UNL     1       7.687  -0.974  -7.589  1.00  0.00     0.217 HD
ENDBRANCH   3  10
TORSDOF 2
ENDMDL
MODEL 13
REMARK VINA RESULT:      -4.3     10.615     11.367
REMARK  2 active torsions:
REMARK  status: ('A' for Active; 'I' for Inactive)
REMARK    1  A    between atoms: C3_3  and  O1_8 
REMARK    2  A    between atoms: C6_6  and  N1_7 
ROOT
HETATM    1  C1  UNL     1      -1.498  -4.059  -7.138  1.00  0.00     0.026 A 
HETATM    2  C2  UNL     1      -2.022  -3.254  -6.125  1.00  0.00     0.038 A 
HETATM    3  C3  UNL     1      -1.440  -3.268  -4.865  1.00  0.00     0.065 A 
HETATM    4  C4  UNL     1      -0.330  -4.064  -4.607  1.00  0.00     0.038 A 
HETATM    5  C5  UNL     1       0.188  -4.869  -5.626  1.00  0.00     0.026 A 
HETATM    6  C6  UNL     1      -0.420  -4.912  -6.884  1.00  0.00     0.005 A 
ENDROOT
BRANCH   6   7
HETATM    7  N1  UNL     1       0.175  -5.628  -7.930  1.00  0.00    -0.303 NA
HETATM    8  H5  UNL     1       0.675  -5.042  -8.592  1.00  0.00     0.124 HD
HETATM    9  H6  UNL     1      -0.450  -6.281  -8.388  1.00  0.00     0.124 HD
ENDBRANCH   6   7
BRANCH   3  10
HETATM   10  O1  UNL     1      -1.979  -2.466  -3.904  1.00  0.00    -0.361 OA
HETATM   11  H7  UNL     1      -1.382  -1.715  -3.756  1.00  0.00     0.217 HD
ENDBRANCH   3  10
TORSDOF 2
ENDMDL
MODEL 14
REMARK VINA RESULT:      -4.2      3.320      4.153
REMARK  2 active torsions:
REMARK  status: ('A' for Active; 'I' for Inactive)
REMARK    1  A    between atoms: C3_3  and  O1_8 
REMARK    2  A    between atoms: C6_6  and  N1_7 
ROOT
HETATM    1  C1  UNL     1      -1.317   7.225  -3.925  1.00  0.00     0.026 A 
HETATM    2  C2  UNL     1      -2.622   6.734  -3.998  1.00  0.00     0.038 A 
HETATM    3  C3  UNL     1      -3.574   7.421  -4.738  1.00  0.00     0.065 A 
HETATM    4  C4  UNL     1      -3.237   8.584  -5.420  1.00  0.00     0.038 A 
HETATM    5  C5  UNL     1      -1.928   9.070  -5.341  1.00  0.00     0.026 A 
HETATM    6  C6  UNL     1      -0.970   8.424  -4.553  1.00  0.00     0.005 A 
ENDROOT
BRANCH   6   7
HETATM    7  N1  UNL     1       0.363   8.849  -4.576  1.00  0.00    -0.303 NA
HETATM    8  H5  UNL     1       0.770   8.967  -3.653  1.00  0.00     0.124 HD
HETATM    9  H6  UNL     1       0.529   9.651  -5.176  1.00  0.00     0.124 HD
ENDBRANCH   6   7
BRANCH   3  10
HETATM   10  O1  UNL     1      -4.836   6.908  -4.787  1.00  0.00    -0.361 OA
HETATM   11  H7  UNL     1      -5.368   7.451  -5.391  1.00  0.00     0.217 HD
ENDBRANCH   3  10
TORSDOF 2
ENDMDL
MODEL 15
REMARK VINA RESULT:      -4.1      9.392     10.341
REMARK  2 active torsions:
REMARK  status: ('A' for Active; 'I' for Inactive)
REMARK    1  A    between atoms: C3_3  and  O1_8 
REMARK    2  A    between atoms: C6_6  and  N1_7 
ROOT
HETATM    1  C1  UNL     1      -0.196  -2.804  -3.888  1.00  0.00     0.026 A 
HETATM    2  C2  UNL     1      -0.249  -4.023  -4.569  1.00  0.00     0.038 A 
HETATM    3  C3  UNL     1       0.601  -4.249  -5.642  1.00  0.00     0.065 A 
HETATM    4  C4  UNL     1       1.517  -3.279  -6.036  1.00  0.00     0.038 A 
HETATM    5  C5  UNL     1       1.563  -2.061  -5.351  1.00  0.00     0.026 A 
HETATM    6  C6  UNL     1       0.675  -1.792  -4.305  1.00  0.00     0.005 A 
ENDROOT
BRANCH   6   7
HETATM    7  N1  UNL     1       0.808  -0.621  -3.551  1.00  0.00    -0.303 NA
HETATM    8  H5  UNL     1       0.324   0.178  -3.949  1.00  0.00     0.124 HD
HETATM    9  H6  UNL     1       1.766  -0.405  -3.295  1.00  0.00     0.124 HD
ENDBRANCH   6   7
BRANCH   3  10
HETATM   10  O1  UNL     1       0.521  -5.451  -6.277  1.00  0.00    -0.361 OA
HETATM   11  H7  UNL     1      -0.381  -5.562  -6.618  1.00  0.00     0.217 HD
ENDBRANCH   3  10
TORSDOF 2
ENDMDL
MODEL 16
REMARK VINA RESULT:      -4.1     10.163     10.497
REMARK  2 active torsions:
REMARK  status: ('A' for Active; 'I' for Inactive)
REMARK    1  A    between atoms: C3_3  and  O1_8 
REMARK    2  A    between atoms: C6_6  and  N1_7 
ROOT
HETATM    1  C1  UNL     1      -0.808  -3.092  -5.685  1.00  0.00     0.026 A 
HETATM    2  C2  UNL     1      -0.623  -3.711  -4.447  1.00  0.00     0.038 A 
HETATM    3  C3  UNL     1      -1.623  -3.640  -3.487  1.00  0.00     0.065 A 
HETATM    4  C4  UNL     1      -2.814  -2.972  -3.753  1.00  0.00     0.038 A 
HETATM    5  C5  UNL     1      -2.990  -2.355  -4.995  1.00  0.00     0.026 A 
HETATM    6  C6  UNL     1      -1.971  -2.365  -5.953  1.00  0.00     0.005 A 
ENDROOT
BRANCH   6   7
HETATM    7  N1  UNL     1      -2.202  -1.848  -7.233  1.00  0.00    -0.303 NA
HETATM    8  H5  UNL     1      -2.362  -0.846  -7.245  1.00  0.00     0.124 HD
HETATM    9  H6  UNL     1      -2.903  -2.358  -7.761  1.00  0.00     0.124 HD
ENDBRANCH   6   7
BRANCH   3  10
HETATM   10  O1  UNL     1      -1.406  -4.258  -2.292  1.00  0.00    -0.361 OA
HETATM   11  H7  UNL     1      -0.724  -4.938  -2.415  1.00  0.00     0.217 HD
ENDBRANCH   3  10
TORSDOF 2
ENDMDL
MODEL 17
REMARK VINA RESULT:      -4.1      9.532      9.911
REMARK  2 active torsions:
REMARK  status: ('A' for Active; 'I' for Inactive)
REMARK    1  A    between atoms: C3_3  and  O1_8 
REMARK    2  A    between atoms: C6_6  and  N1_7 
ROOT
HETATM    1  C1  UNL     1      -2.810  -2.915  -3.954  1.00  0.00     0.026 A 
HETATM    2  C2  UNL     1      -2.883  -2.174  -5.136  1.00  0.00     0.038 A 
HETATM    3  C3  UNL     1      -1.758  -2.047  -5.938  1.00  0.00     0.065 A 
HETATM    4  C4  UNL     1      -0.564  -2.665  -5.586  1.00  0.00     0.038 A 
HETATM    5  C5  UNL     1      -0.498  -3.404  -4.401  1.00  0.00     0.026 A 
HETATM    6  C6  UNL     1      -1.604  -3.494  -3.549  1.00  0.00     0.005 A 
ENDROOT
BRANCH   6   7
HETATM    7  N1  UNL     1      -1.565  -4.332  -2.429  1.00  0.00    -0.303 NA
HETATM    8  H5  UNL     1      -1.534  -5.320  -2.660  1.00  0.00     0.124 HD
HETATM    9  H6  UNL     1      -2.272  -4.120  -1.733  1.00  0.00     0.124 HD
ENDBRANCH   6   7
BRANCH   3  10
HETATM   10  O1  UNL     1      -1.871  -1.319  -7.084  1.00  0.00    -0.361 OA
HETATM   11  H7  UNL     1      -2.812  -1.158  -7.258  1.00  0.00     0.217 HD
ENDBRANCH   3  10
TORSDOF 2
ENDMDL
MODEL 18
REMARK VINA RESULT:      -4.1     11.195     12.049
REMARK  2 active torsions:
REMARK  status: ('A' for Active; 'I' for Inactive)
REMARK    1  A    between atoms: C3_3  and  O1_8 
REMARK    2  A    between atoms: C6_6  and  N1_7 
ROOT
HETATM    1  C1  UNL     1       4.732  -3.229  -6.218  1.00  0.00     0.026 A 
HETATM    2  C2  UNL     1       5.698  -4.206  -5.964  1.00  0.00     0.038 A 
HETATM    3  C3  UNL     1       7.043  -3.867  -5.993  1.00  0.00     0.065 A 
HETATM    4  C4  UNL     1       7.438  -2.560  -6.258  1.00  0.00     0.038 A 
HETATM    5  C5  UNL     1       6.466  -1.588  -6.513  1.00  0.00     0.026 A 
HETATM    6  C6  UNL     1       5.109  -1.923  -6.546  1.00  0.00     0.005 A 
ENDROOT
BRANCH   6   7
HETATM    7  N1  UNL     1       4.140  -0.923  -6.683  1.00  0.00    -0.303 NA
HETATM    8  H5  UNL     1       3.247  -1.158  -6.260  1.00  0.00     0.124 HD
HETATM    9  H6  UNL     1       4.038  -0.578  -7.632  1.00  0.00     0.124 HD
ENDBRANCH   6   7
BRANCH   3  10
HETATM   10  O1  UNL     1       7.954  -4.847  -5.737  1.00  0.00    -0.361 OA
HETATM   11  H7  UNL     1       7.784  -5.205  -4.851  1.00  0.00     0.217 HD
ENDBRANCH   3  10
TORSDOF 2
ENDMDL
MODEL 19
REMARK VINA RESULT:      -4.0      8.441      9.518
REMARK  2 active torsions:
REMARK  status: ('A' for Active; 'I' for Inactive)
REMARK    1  A    between atoms: C3_3  and  O1_8 
REMARK    2  A    between atoms: C6_6  and  N1_7 
ROOT
HETATM    1  C1  UNL     1      -4.583  -0.493  -2.640  1.00  0.00     0.026 A 
HETATM    2  C2  UNL     1      -4.849  -1.857  -2.776  1.00  0.00     0.038 A 
HETATM    3  C3  UNL     1      -3.937  -2.674  -3.430  1.00  0.00     0.065 A 
HETATM    4  C4  UNL     1      -2.754  -2.149  -3.938  1.00  0.00     0.038 A 
HETATM    5  C5  UNL     1      -2.495  -0.782  -3.800  1.00  0.00     0.026 A 
HETATM    6  C6  UNL     1      -3.428   0.067  -3.195  1.00  0.00     0.005 A 
ENDROOT
BRANCH   6   7
HETATM    7  N1  UNL     1      -3.108   1.408  -2.955  1.00  0.00    -0.303 NA
HETATM    8  H5  UNL     1      -2.400   1.777  -3.582  1.00  0.00     0.124 HD
HETATM    9  H6  UNL     1      -2.909   1.615  -1.982  1.00  0.00     0.124 HD
ENDBRANCH   6   7
BRANCH   3  10
HETATM   10  O1  UNL     1      -4.232  -4.000  -3.540  1.00  0.00    -0.361 OA
HETATM   11  H7  UNL     1      -4.566  -4.314  -2.685  1.00  0.00     0.217 HD
ENDBRANCH   3  10
TORSDOF 2
ENDMDL
MODEL 20
REMARK VINA RESULT:      -4.0      9.424      9.868
REMARK  2 active torsions:
REMARK  status: ('A' for Active; 'I' for Inactive)
REMARK    1  A    between atoms: C3_3  and  O1_8 
REMARK    2  A    between atoms: C6_6  and  N1_7 
ROOT
HETATM    1  C1  UNL     1      -1.545  -3.559  -3.473  1.00  0.00     0.026 A 
HETATM    2  C2  UNL     1      -0.476  -3.005  -4.181  1.00  0.00     0.038 A 
HETATM    3  C3  UNL     1      -0.725  -2.200  -5.283  1.00  0.00     0.065 A 
HETATM    4  C4  UNL     1      -2.029  -1.926  -5.679  1.00  0.00     0.038 A 
HETATM    5  C5  UNL     1      -3.094  -2.485  -4.966  1.00  0.00     0.026 A 
HETATM    6  C6  UNL     1      -2.862  -3.346  -3.889  1.00  0.00     0.005 A 
ENDROOT
BRANCH   6   7
HETATM    7  N1  UNL     1      -3.931  -3.804  -3.110  1.00  0.00    -0.303 NA
HETATM    8  H5  UNL     1      -4.747  -4.069  -3.653  1.00  0.00     0.124 HD
HETATM    9  H6  UNL     1      -4.165  -3.194  -2.335  1.00  0.00     0.124 HD
ENDBRANCH   6   7
BRANCH   3  10
HETATM   10  O1  UNL     1       0.345  -1.676  -5.945  1.00  0.00    -0.361 OA
HETATM   11  H7  UNL     1       1.138  -1.801  -5.400  1.00  0.00     0.217 HD
ENDBRANCH   3  10
TORSDOF 2
ENDMDL
