MODEL 1
REMARK VINA RESULT:      -3.8      0.000      0.000
REMARK  2 active torsions:
REMARK  status: ('A' for Active; 'I' for Inactive)
REMARK    1  A    between atoms: C3_3  and  O1_8 
REMARK    2  A    between atoms: C6_6  and  N1_7 
ROOT
HETATM    1  C1  UNL     1      -7.494  11.971  -7.358  1.00  0.00     0.026 A 
HETATM    2  C2  UNL     1      -8.078  10.706  -7.458  1.00  0.00     0.038 A 
HETATM    3  C3  UNL     1      -8.356   9.984  -6.306  1.00  0.00     0.065 A 
HETATM    4  C4  UNL     1      -8.074  10.515  -5.052  1.00  0.00     0.038 A 
HETATM    5  C5  UNL     1      -7.487  11.781  -4.960  1.00  0.00     0.026 A 
HETATM    6  C6  UNL     1      -7.146  12.499  -6.110  1.00  0.00     0.005 A 
ENDROOT
BRANCH   6   7
HETATM    7  N1  UNL     1      -6.670  13.811  -6.007  1.00  0.00    -0.303 NA
HETATM    8  H5  UNL     1      -6.799  14.220  -5.087  1.00  0.00     0.124 HD
HETATM    9  H6  UNL     1      -6.991  14.423  -6.750  1.00  0.00     0.124 HD
ENDBRANCH   6   7
BRANCH   3  10
HETATM   10  O1  UNL     1      -8.929   8.756  -6.445  1.00  0.00    -0.361 OA
HETATM   11  H7  UNL     1      -8.324   8.089  -6.082  1.00  0.00     0.217 HD
ENDBRANCH   3  10
TORSDOF 2
ENDMDL
MODEL 2
REMARK VINA RESULT:      -3.8      2.675      3.132
REMARK  2 active torsions:
REMARK  status: ('A' for Active; 'I' for Inactive)
REMARK    1  A    between atoms: C3_3  and  O1_8 
REMARK    2  A    between atoms: C6_6  and  N1_7 
ROOT
HETATM    1  C1  UNL     1      -7.644  12.224  -7.533  1.00  0.00     0.026 A 
HETATM    2  C2  UNL     1      -7.767  13.274  -6.619  1.00  0.00     0.038 A 
HETATM    3  C3  UNL     1      -7.818  13.000  -5.260  1.00  0.00     0.065 A 
HETATM    4  C4  UNL     1      -7.732  11.692  -4.797  1.00  0.00     0.038 A 
HETATM    5  C5  UNL     1      -7.610  10.646  -5.718  1.00  0.00     0.026 A 
HETATM    6  C6  UNL     1      -7.616  10.897  -7.093  1.00  0.00     0.005 A 
ENDROOT
BRANCH   6   7
HETATM    7  N1  UNL     1      -7.374   9.859  -8.000  1.00  0.00    -0.303 NA
HETATM    8  H5  UNL     1      -8.206   9.543  -8.489  1.00  0.00     0.124 HD
HETATM    9  H6  UNL     1      -6.840   9.090  -7.611  1.00  0.00     0.124 HD
ENDBRANCH   6   7
BRANCH   3  10
HETATM   10  O1  UNL     1      -7.936  14.051  -4.401  1.00  0.00    -0.361 OA
HETATM   11  H7  UNL     1      -7.271  14.719  -4.635  1.00  0.00     0.217 HD
ENDBRANCH   3  10
TORSDOF 2
ENDMDL
MODEL 3
REMARK VINA RESULT:      -3.8      1.544      2.314
REMARK  2 active torsions:
REMARK  status: ('A' for Active; 'I' for Inactive)
REMARK    1  A    between atoms: C3_3  and  O1_8 
REMARK    2  A    between atoms: C6_6  and  N1_7 
ROOT
HETATM    1  C1  UNL     1      -8.058  13.167  -4.486  1.00  0.00     0.026 A 
HETATM    2  C2  UNL     1      -8.695  12.139  -3.788  1.00  0.00     0.038 A 
HETATM    3  C3  UNL     1      -8.562  10.828  -4.222  1.00  0.00     0.065 A 
HETATM    4  C4  UNL     1      -7.786  10.526  -5.336  1.00  0.00     0.038 A 
HETATM    5  C5  UNL     1      -7.152  11.561  -6.030  1.00  0.00     0.026 A 
HETATM    6  C6  UNL     1      -7.323  12.894  -5.643  1.00  0.00     0.005 A 
ENDROOT
BRANCH   6   7
HETATM    7  N1  UNL     1      -6.591  13.909  -6.270  1.00  0.00    -0.303 NA
HETATM    8  H5  UNL     1      -6.762  13.978  -7.268  1.00  0.00     0.124 HD
HETATM    9  H6  UNL     1      -5.601  13.898  -6.048  1.00  0.00     0.124 HD
ENDBRANCH   6   7
BRANCH   3  10
HETATM   10  O1  UNL     1      -9.196   9.853  -3.512  1.00  0.00    -0.361 OA
HETATM   11  H7  UNL     1     -10.154  10.006  -3.564  1.00  0.00     0.217 HD
ENDBRANCH   3  10
TORSDOF 2
ENDMDL
MODEL 4
REMARK VINA RESULT:      -3.8      2.911      3.451
REMARK  2 active torsions:
REMARK  status: ('A' for Active; 'I' for Inactive)
REMARK    1  A    between atoms: C3_3  and  O1_8 
REMARK    2  A    between atoms: C6_6  and  N1_7 
ROOT
HETATM    1  C1  UNL     1      -7.403  10.898  -5.623  1.00  0.00     0.026 A 
HETATM    2  C2  UNL     1      -6.945  11.957  -6.410  1.00  0.00     0.038 A 
HETATM    3  C3  UNL     1      -7.211  13.264  -6.026  1.00  0.00     0.065 A 
HETATM    4  C4  UNL     1      -7.916  13.529  -4.858  1.00  0.00     0.038 A 
HETATM    5  C5  UNL     1      -8.373  12.463  -4.076  1.00  0.00     0.026 A 
HETATM    6  C6  UNL     1      -8.165  11.139  -4.477  1.00  0.00     0.005 A 
ENDROOT
BRANCH   6   7
HETATM    7  N1  UNL     1      -8.521  10.083  -3.630  1.00  0.00    -0.303 NA
HETATM    8  H5  UNL     1      -7.878   9.298  -3.666  1.00  0.00     0.124 HD
HETATM    9  H6  UNL     1      -9.489   9.794  -3.719  1.00  0.00     0.124 HD
ENDBRANCH   6   7
BRANCH   3  10
HETATM   10  O1  UNL     1      -6.744  14.269  -6.819  1.00  0.00    -0.361 OA
HETATM   11  H7  UNL     1      -7.400  14.448  -7.512  1.00  0.00     0.217 HD
ENDBRANCH   3  10
TORSDOF 2
ENDMDL
MODEL 5
REMARK VINA RESULT:      -3.7      2.908      3.709
REMARK  2 active torsions:
REMARK  status: ('A' for Active; 'I' for Inactive)
REMARK    1  A    between atoms: C3_3  and  O1_8 
REMARK    2  A    between atoms: C6_6  and  N1_7 
ROOT
HETATM    1  C1  UNL     1      -8.767  12.114  -4.267  1.00  0.00     0.026 A 
HETATM    2  C2  UNL     1      -7.974  13.168  -4.725  1.00  0.00     0.038 A 
HETATM    3  C3  UNL     1      -7.177  12.992  -5.848  1.00  0.00     0.065 A 
HETATM    4  C4  UNL     1      -7.174  11.781  -6.531  1.00  0.00     0.038 A 
HETATM    5  C5  UNL     1      -7.970  10.730  -6.066  1.00  0.00     0.026 A 
HETATM    6  C6  UNL     1      -8.734  10.869  -4.903  1.00  0.00     0.005 A 
ENDROOT
BRANCH   6   7
HETATM    7  N1  UNL     1      -9.617   9.855  -4.514  1.00  0.00    -0.303 NA
HETATM    8  H5  UNL     1      -9.947   9.946  -3.558  1.00  0.00     0.124 HD
HETATM    9  H6  UNL     1      -9.283   8.919  -4.719  1.00  0.00     0.124 HD
ENDBRANCH   6   7
BRANCH   3  10
HETATM   10  O1  UNL     1      -6.419  14.045  -6.265  1.00  0.00    -0.361 OA
HETATM   11  H7  UNL     1      -6.047  13.833  -7.136  1.00  0.00     0.217 HD
ENDBRANCH   3  10
TORSDOF 2
ENDMDL
MODEL 6
REMARK VINA RESULT:      -3.7      1.556      1.909
REMARK  2 active torsions:
REMARK  status: ('A' for Active; 'I' for Inactive)
REMARK    1  A    between atoms: C3_3  and  O1_8 
REMARK    2  A    between atoms: C6_6  and  N1_7 
ROOT
HETATM    1  C1  UNL     1      -7.131  11.669  -6.226  1.00  0.00     0.026 A 
HETATM    2  C2  UNL     1      -7.640  10.639  -5.431  1.00  0.00     0.038 A 
HETATM    3  C3  UNL     1      -8.290  10.945  -4.244  1.00  0.00     0.065 A 
HETATM    4  C4  UNL     1      -8.454  12.267  -3.846  1.00  0.00     0.038 A 
HETATM    5  C5  UNL     1      -7.940  13.292  -4.647  1.00  0.00     0.026 A 
HETATM    6  C6  UNL     1      -7.231  13.002  -5.817  1.00  0.00     0.005 A 
ENDROOT
BRANCH   6   7
HETATM    7  N1  UNL     1      -6.827  14.034  -6.670  1.00  0.00    -0.303 NA
HETATM    8  H5  UNL     1      -5.851  14.295  -6.562  1.00  0.00     0.124 HD
HETATM    9  H6  UNL     1      -7.444  14.839  -6.662  1.00  0.00     0.124 HD
ENDBRANCH   6   7
BRANCH   3  10
HETATM   10  O1  UNL     1      -8.774   9.913  -3.497  1.00  0.00    -0.361 OA
HETATM   11  H7  UNL     1      -9.629   9.638  -3.866  1.00  0.00     0.217 HD
ENDBRANCH   3  10
TORSDOF 2
ENDMDL
MODEL 7
REMARK VINA RESULT:      -3.6      1.660      2.116
REMARK  2 active torsions:
REMARK  status: ('A' for Active; 'I' for Inactive)
REMARK    1  A    between atoms: C3_3  and  O1_8 
REMARK    2  A    between atoms: C6_6  and  N1_7 
ROOT
HETATM    1  C1  UNL     1      -7.403  12.690  -5.495  1.00  0.00     0.026 A 
HETATM    2  C2  UNL     1      -7.210  12.127  -6.759  1.00  0.00     0.038 A 
HETATM    3  C3  UNL     1      -7.620  10.824  -7.001  1.00  0.00     0.065 A 
HETATM    4  C4  UNL     1      -8.235  10.078  -6.001  1.00  0.00     0.038 A 
HETATM    5  C5  UNL     1      -8.423  10.647  -4.738  1.00  0.00     0.026 A 
HETATM    6  C6  UNL     1      -7.964  11.938  -4.458  1.00  0.00     0.005 A 
ENDROOT
BRANCH   6   7
HETATM    7  N1  UNL     1      -8.263  12.541  -3.231  1.00  0.00    -0.303 NA
HETATM    8  H5  UNL     1      -7.490  13.068  -2.837  1.00  0.00     0.124 HD
HETATM    9  H6  UNL     1      -8.685  11.912  -2.557  1.00  0.00     0.124 HD
ENDBRANCH   6   7
BRANCH   3  10
HETATM   10  O1  UNL     1      -7.417  10.312  -8.247  1.00  0.00    -0.361 OA
HETATM   11  H7  UNL     1      -6.886   9.503  -8.167  1.00  0.00     0.217 HD
ENDBRANCH   3  10
TORSDOF 2
ENDMDL
MODEL 8
REMARK VINA RESULT:      -3.6      2.347      3.001
REMARK  2 active torsions:
REMARK  status: ('A' for Active; 'I' for Inactive)
REMARK    1  A    between atoms: C3_3  and  O1_8 
REMARK    2  A    between atoms: C6_6  and  N1_7 
ROOT
HETATM    1  C1  UNL     1      -7.882  10.768  -6.072  1.00  0.00     0.026 A 
HETATM    2  C2  UNL     1      -8.002  10.951  -4.693  1.00  0.00     0.038 A 
HETATM    3  C3  UNL     1      -8.036  12.236  -4.170  1.00  0.00     0.065 A 
HETATM    4  C4  UNL     1      -7.968  13.343  -5.007  1.00  0.00     0.038 A 
HETATM    5  C5  UNL     1      -7.847  13.153  -6.387  1.00  0.00     0.026 A 
HETATM    6  C6  UNL     1      -7.752  11.867  -6.928  1.00  0.00     0.005 A 
ENDROOT
BRANCH   6   7
HETATM    7  N1  UNL     1      -7.751  11.684  -8.315  1.00  0.00    -0.303 NA
HETATM    8  H5  UNL     1      -8.660  11.819  -8.745  1.00  0.00     0.124 HD
HETATM    9  H6  UNL     1      -7.306  10.823  -8.616  1.00  0.00     0.124 HD
ENDBRANCH   6   7
BRANCH   3  10
HETATM   10  O1  UNL     1      -8.157  12.372  -2.819  1.00  0.00    -0.361 OA
HETATM   11  H7  UNL     1      -9.099  12.451  -2.599  1.00  0.00     0.217 HD
ENDBRANCH   3  10
TORSDOF 2
ENDMDL
MODEL 9
REMARK VINA RESULT:      -3.3      1.684      2.119
REMARK  2 active torsions:
REMARK  status: ('A' for Active; 'I' for Inactive)
REMARK    1  A    between atoms: C3_3  and  O1_8 
REMARK    2  A    between atoms: C6_6  and  N1_7 
ROOT
HETATM    1  C1  UNL     1      -7.227  11.573  -5.515  1.00  0.00     0.026 A 
HETATM    2  C2  UNL     1      -8.192  10.685  -5.032  1.00  0.00     0.038 A 
HETATM    3  C3  UNL     1      -9.447  11.159  -4.677  1.00  0.00     0.065 A 
HETATM    4  C4  UNL     1      -9.759  12.507  -4.813  1.00  0.00     0.038 A 
HETATM    5  C5  UNL     1      -8.788  13.390  -5.295  1.00  0.00     0.026 A 
HETATM    6  C6  UNL     1      -7.500  12.941  -5.603  1.00  0.00     0.005 A 
ENDROOT
BRANCH   6   7
HETATM    7  N1  UNL     1      -6.574  13.808  -6.196  1.00  0.00    -0.303 NA
HETATM    8  H5  UNL     1      -5.608  13.528  -6.060  1.00  0.00     0.124 HD
HETATM    9  H6  UNL     1      -6.728  14.786  -5.975  1.00  0.00     0.124 HD
ENDBRANCH   6   7
BRANCH   3  10
HETATM   10  O1  UNL     1     -10.360  10.261  -4.213  1.00  0.00    -0.361 OA
HETATM   11  H7  UNL     1     -11.248  10.566  -4.460  1.00  0.00     0.217 HD
ENDBRANCH   3  10
TORSDOF 2
ENDMDL
MODEL 10
REMARK VINA RESULT:      -3.3      1.538      2.297
REMARK  2 active torsions:
REMARK  status: ('A' for Active; 'I' for Inactive)
REMARK    1  A    between atoms: C3_3  and  O1_8 
REMARK    2  A    between atoms: C6_6  and  N1_7 
ROOT
HETATM    1  C1  UNL     1      -7.615  11.771  -5.226  1.00  0.00     0.026 A 
HETATM    2  C2  UNL     1      -7.535  10.828  -6.253  1.00  0.00     0.038 A 
HETATM    3  C3  UNL     1      -7.785  11.214  -7.562  1.00  0.00     0.065 A 
HETATM    4  C4  UNL     1      -8.099  12.535  -7.863  1.00  0.00     0.038 A 
HETATM    5  C5  UNL     1      -8.178  13.473  -6.830  1.00  0.00     0.026 A 
HETATM    6  C6  UNL     1      -7.987  13.091  -5.498  1.00  0.00     0.005 A 
ENDROOT
BRANCH   6   7
HETATM    7  N1  UNL     1      -7.951  14.057  -4.486  1.00  0.00    -0.303 NA
HETATM    8  H5  UNL     1      -8.869  14.385  -4.202  1.00  0.00     0.124 HD
HETATM    9  H6  UNL     1      -7.307  14.819  -4.669  1.00  0.00     0.124 HD
ENDBRANCH   6   7
BRANCH   3  10
HETATM   10  O1  UNL     1      -7.695  10.265  -8.536  1.00  0.00    -0.361 OA
HETATM   11  H7  UNL     1      -6.761  10.024  -8.648  1.00  0.00     0.217 HD
ENDBRANCH   3  10
TORSDOF 2
ENDMDL
MODEL 11
REMARK VINA RESULT:      -3.2      4.609      5.395
REMARK  2 active torsions:
REMARK  status: ('A' for Active; 'I' for Inactive)
REMARK    1  A    between atoms: C3_3  and  O1_8 
REMARK    2  A    between atoms: C6_6  and  N1_7 
ROOT
HETATM    1  C1  UNL     1     -10.821  11.457  -1.820  1.00  0.00     0.026 A 
HETATM    2  C2  UNL     1     -10.107  10.953  -2.910  1.00  0.00     0.038 A 
HETATM    3  C3  UNL     1      -8.821  10.466  -2.724  1.00  0.00     0.065 A 
HETATM    4  C4  UNL     1      -8.243  10.459  -1.459  1.00  0.00     0.038 A 
HETATM    5  C5  UNL     1      -8.963  10.966  -0.374  1.00  0.00     0.026 A 
HETATM    6  C6  UNL     1     -10.237  11.515  -0.551  1.00  0.00     0.005 A 
ENDROOT
BRANCH   6   7
HETATM    7  N1  UNL     1     -10.995  11.909   0.557  1.00  0.00    -0.303 NA
HETATM    8  H5  UNL     1     -11.915  12.266   0.316  1.00  0.00     0.124 HD
HETATM    9  H6  UNL     1     -10.499  12.519   1.197  1.00  0.00     0.124 HD
ENDBRANCH   6   7
BRANCH   3  10
HETATM   10  O1  UNL     1      -8.158   9.981  -3.812  1.00  0.00    -0.361 OA
HETATM   11  H7  UNL     1      -8.116  10.679  -4.485  1.00  0.00     0.217 HD
ENDBRANCH   3  10
TORSDOF 2
ENDMDL
MODEL 12
REMARK VINA RESULT:      -3.1      4.705      5.524
REMARK  2 active torsions:
REMARK  status: ('A' for Active; 'I' for Inactive)
REMARK    1  A    between atoms: C3_3  and  O1_8 
REMARK    2  A    between atoms: C6_6  and  N1_7 
ROOT
HETATM    1  C1  UNL     1     -10.224  11.044  -2.902  1.00  0.00     0.026 A 
HETATM    2  C2  UNL     1     -10.853  11.501  -1.742  1.00  0.00     0.038 A 
HETATM    3  C3  UNL     1     -10.183  11.442  -0.528  1.00  0.00     0.065 A 
HETATM    4  C4  UNL     1      -8.885  10.947  -0.459  1.00  0.00     0.038 A 
HETATM    5  C5  UNL     1      -8.263  10.490  -1.625  1.00  0.00     0.026 A 
HETATM    6  C6  UNL     1      -8.943  10.487  -2.847  1.00  0.00     0.005 A 
ENDROOT
BRANCH   6   7
HETATM    7  N1  UNL     1      -8.272  10.140  -4.025  1.00  0.00    -0.303 NA
HETATM    8  H5  UNL     1      -8.661   9.326  -4.491  1.00  0.00     0.124 HD
HETATM    9  H6  UNL     1      -7.265  10.083  -3.923  1.00  0.00     0.124 HD
ENDBRANCH   6   7
BRANCH   3  10
HETATM   10  O1  UNL     1     -10.829  11.900   0.581  1.00  0.00    -0.361 OA
HETATM   11  H7  UNL     1     -11.594  11.328   0.752  1.00  0.00     0.217 HD
ENDBRANCH   3  10
TORSDOF 2
ENDMDL
MODEL 13
REMARK VINA RESULT:      -3.1      3.913      4.703
REMARK  2 active torsions:
REMARK  status: ('A' for Active; 'I' for Inactive)
REMARK    1  A    between atoms: C3_3  and  O1_8 
REMARK    2  A    between atoms: C6_6  and  N1_7 
ROOT
HETATM    1  C1  UNL     1      -8.221  11.486  -2.189  1.00  0.00     0.026 A 
HETATM    2  C2  UNL     1      -8.255  11.913  -3.518  1.00  0.00     0.038 A 
HETATM    3  C3  UNL     1      -9.475  12.069  -4.160  1.00  0.00     0.065 A 
HETATM    4  C4  UNL     1     -10.666  11.819  -3.487  1.00  0.00     0.038 A 
HETATM    5  C5  UNL     1     -10.625  11.391  -2.157  1.00  0.00     0.026 A 
HETATM    6  C6  UNL     1      -9.403  11.172  -1.511  1.00  0.00     0.005 A 
ENDROOT
BRANCH   6   7
HETATM    7  N1  UNL     1      -9.373  10.860  -0.147  1.00  0.00    -0.303 NA
HETATM    8  H5  UNL     1      -8.661  11.365   0.371  1.00  0.00     0.124 HD
HETATM    9  H6  UNL     1      -9.357   9.864   0.045  1.00  0.00     0.124 HD
ENDBRANCH   6   7
BRANCH   3  10
HETATM   10  O1  UNL     1      -9.466  12.489  -5.456  1.00  0.00    -0.361 OA
HETATM   11  H7  UNL     1     -10.156  12.010  -5.942  1.00  0.00     0.217 HD
ENDBRANCH   3  10
TORSDOF 2
ENDMDL
MODEL 14
REMARK VINA RESULT:      -2.9      3.546      4.334
REMARK  2 active torsions:
REMARK  status: ('A' for Active; 'I' for Inactive)
REMARK    1  A    between atoms: C3_3  and  O1_8 
REMARK    2  A    between atoms: C6_6  and  N1_7 
ROOT
HETATM    1  C1  UNL     1      -8.278  11.986  -3.575  1.00  0.00     0.026 A 
HETATM    2  C2  UNL     1      -8.360  11.639  -2.224  1.00  0.00     0.038 A 
HETATM    3  C3  UNL     1      -9.546  11.127  -1.717  1.00  0.00     0.065 A 
HETATM    4  C4  UNL     1     -10.648  10.941  -2.544  1.00  0.00     0.038 A 
HETATM    5  C5  UNL     1     -10.558  11.291  -3.894  1.00  0.00     0.026 A 
HETATM    6  C6  UNL     1      -9.391  11.863  -4.411  1.00  0.00     0.005 A 
ENDROOT
BRANCH   6   7
HETATM    7  N1  UNL     1      -9.271  12.099  -5.785  1.00  0.00    -0.303 NA
HETATM    8  H5  UNL     1      -8.583  12.808  -6.018  1.00  0.00     0.124 HD
HETATM    9  H6  UNL     1     -10.157  12.252  -6.254  1.00  0.00     0.124 HD
ENDBRANCH   6   7
BRANCH   3  10
HETATM   10  O1  UNL     1      -9.585  10.798  -0.395  1.00  0.00    -0.361 OA
HETATM   11  H7  UNL     1      -8.675  10.707  -0.071  1.00  0.00     0.217 HD
ENDBRANCH   3  10
TORSDOF 2
ENDMDL
MODEL 15
REMARK VINA RESULT:      -2.8     10.049     10.512
REMARK  2 active torsions:
REMARK  status: ('A' for Active; 'I' for Inactive)
REMARK    1  A    between atoms: C3_3  and  O1_8 
REMARK    2  A    between atoms: C6_6  and  N1_7 
ROOT
HETATM    1  C1  UNL     1     -11.490   2.355  -5.243  1.00  0.00     0.026 A 
HETATM    2  C2  UNL     1     -10.549   2.022  -6.220  1.00  0.00     0.038 A 
HETATM    3  C3  UNL     1      -9.526   1.135  -5.916  1.00  0.00     0.065 A 
HETATM    4  C4  UNL     1      -9.438   0.562  -4.652  1.00  0.00     0.038 A 
HETATM    5  C5  UNL     1     -10.383   0.901  -3.679  1.00  0.00     0.026 A 
HETATM    6  C6  UNL     1     -11.386   1.837  -3.948  1.00  0.00     0.005 A 
ENDROOT
BRANCH   6   7
HETATM    7  N1  UNL     1     -12.395   2.080  -3.009  1.00  0.00    -0.303 NA
HETATM    8  H5  UNL     1     -12.584   1.289  -2.401  1.00  0.00     0.124 HD
HETATM    9  H6  UNL     1     -13.241   2.472  -3.407  1.00  0.00     0.124 HD
ENDBRANCH   6   7
BRANCH   3  10
HETATM   10  O1  UNL     1      -8.630   0.834  -6.897  1.00  0.00    -0.361 OA
HETATM   11  H7  UNL     1      -8.712  -0.109  -7.113  1.00  0.00     0.217 HD
ENDBRANCH   3  10
TORSDOF 2
ENDMDL
MODEL 16
REMARK VINA RESULT:      -2.8      3.391      3.846
REMARK  2 active torsions:
REMARK  status: ('A' for Active; 'I' for Inactive)
REMARK    1  A    between atoms: C3_3  and  O1_8 
REMARK    2  A    between atoms: C6_6  and  N1_7 
ROOT
HETATM    1  C1  UNL     1      -9.789  13.968  -7.093  1.00  0.00     0.026 A 
HETATM    2  C2  UNL     1      -9.477  13.756  -5.748  1.00  0.00     0.038 A 
HETATM    3  C3  UNL     1      -8.149  13.655  -5.357  1.00  0.00     0.065 A 
HETATM    4  C4  UNL     1      -7.125  13.780  -6.290  1.00  0.00     0.038 A 
HETATM    5  C5  UNL     1      -7.445  13.991  -7.635  1.00  0.00     0.026 A 
HETATM    6  C6  UNL     1      -8.778  14.037  -8.056  1.00  0.00     0.005 A 
ENDROOT
BRANCH   6   7
HETATM    7  N1  UNL     1      -9.087  14.367  -9.381  1.00  0.00    -0.303 NA
HETATM    8  H5  UNL     1      -8.418  14.997  -9.811  1.00  0.00     0.124 HD
HETATM    9  H6  UNL     1     -10.045  14.671  -9.515  1.00  0.00     0.124 HD
ENDBRANCH   6   7
BRANCH   3  10
HETATM   10  O1  UNL     1      -7.886  13.451  -4.036  1.00  0.00    -0.361 OA
HETATM   11  H7  UNL     1      -6.925  13.487  -3.902  1.00  0.00     0.217 HD
ENDBRANCH   3  10
TORSDOF 2
ENDMDL
MODEL 17
REMARK VINA RESULT:      -2.7      9.002      9.808
REMARK  2 active torsions:
REMARK  status: ('A' for Active; 'I' for Inactive)
REMARK    1  A    between atoms: C3_3  and  O1_8 
REMARK    2  A    between atoms: C6_6  and  N1_7 
ROOT
HETATM    1  C1  UNL     1     -13.591  11.262   1.948  1.00  0.00     0.026 A 
HETATM    2  C2  UNL     1     -12.970  11.416   0.707  1.00  0.00     0.038 A 
HETATM    3  C3  UNL     1     -12.084  12.465   0.506  1.00  0.00     0.065 A 
HETATM    4  C4  UNL     1     -11.797  13.355   1.534  1.00  0.00     0.038 A 
HETATM    5  C5  UNL     1     -12.423  13.196   2.774  1.00  0.00     0.026 A 
HETATM    6  C6  UNL     1     -13.362  12.180   2.978  1.00  0.00     0.005 A 
ENDROOT
BRANCH   6   7
HETATM    7  N1  UNL     1     -13.893  11.956   4.253  1.00  0.00    -0.303 NA
HETATM    8  H5  UNL     1     -14.637  11.265   4.270  1.00  0.00     0.124 HD
HETATM    9  H6  UNL     1     -14.143  12.805   4.749  1.00  0.00     0.124 HD
ENDBRANCH   6   7
BRANCH   3  10
HETATM   10  O1  UNL     1     -11.497  12.580  -0.719  1.00  0.00    -0.361 OA
HETATM   11  H7  UNL     1     -11.139  13.477  -0.808  1.00  0.00     0.217 HD
ENDBRANCH   3  10
TORSDOF 2
ENDMDL
MODEL 18
REMARK VINA RESULT:      -2.6      3.302      4.218
REMARK  2 active torsions:
REMARK  status: ('A' for Active; 'I' for Inactive)
REMARK    1  A    between atoms: C3_3  and  O1_8 
REMARK    2  A    between atoms: C6_6  and  N1_7 
ROOT
HETATM    1  C1  UNL     1      -9.135  11.430  -2.619  1.00  0.00     0.026 A 
HETATM    2  C2  UNL     1      -8.114  11.909  -3.443  1.00  0.00     0.038 A 
HETATM    3  C3  UNL     1      -8.119  11.600  -4.796  1.00  0.00     0.065 A 
HETATM    4  C4  UNL     1      -9.140  10.830  -5.342  1.00  0.00     0.038 A 
HETATM    5  C5  UNL     1     -10.158  10.353  -4.511  1.00  0.00     0.026 A 
HETATM    6  C6  UNL     1     -10.139  10.605  -3.135  1.00  0.00     0.005 A 
ENDROOT
BRANCH   6   7
HETATM    7  N1  UNL     1     -11.221  10.225  -2.334  1.00  0.00    -0.303 NA
HETATM    8  H5  UNL     1     -11.503  10.935  -1.665  1.00  0.00     0.124 HD
HETATM    9  H6  UNL     1     -11.114   9.312  -1.905  1.00  0.00     0.124 HD
ENDBRANCH   6   7
BRANCH   3  10
HETATM   10  O1  UNL     1      -7.107  12.089  -5.566  1.00  0.00    -0.361 OA
HETATM   11  H7  UNL     1      -6.262  11.786  -5.197  1.00  0.00     0.217 HD
ENDBRANCH   3  10
TORSDOF 2
ENDMDL
MODEL 19
REMARK VINA RESULT:      -2.6     10.414     11.242
REMARK  2 active torsions:
REMARK  status: ('A' for Active; 'I' for Inactive)
REMARK    1  A    between atoms: C3_3  and  O1_8 
REMARK    2  A    between atoms: C6_6  and  N1_7 
ROOT
HETATM    1  C1  UNL     1     -11.102  -0.262  -6.233  1.00  0.00     0.026 A 
HETATM    2  C2  UNL     1     -11.218   0.349  -7.483  1.00  0.00     0.038 A 
HETATM    3  C3  UNL     1     -10.263   1.270  -7.889  1.00  0.00     0.065 A 
HETATM    4  C4  UNL     1      -9.183   1.578  -7.069  1.00  0.00     0.038 A 
HETATM    5  C5  UNL     1      -9.074   0.964  -5.818  1.00  0.00     0.026 A 
HETATM    6  C6  UNL     1     -10.058   0.077  -5.367  1.00  0.00     0.005 A 
ENDROOT
BRANCH   6   7
HETATM    7  N1  UNL     1      -9.880  -0.621  -4.168  1.00  0.00    -0.303 NA
HETATM    8  H5  UNL     1      -8.906  -0.772  -3.924  1.00  0.00     0.124 HD
HETATM    9  H6  UNL     1     -10.431  -1.471  -4.102  1.00  0.00     0.124 HD
ENDBRANCH   6   7
BRANCH   3  10
HETATM   10  O1  UNL     1     -10.409   1.842  -9.117  1.00  0.00    -0.361 OA
HETATM   11  H7  UNL     1     -10.731   2.750  -9.000  1.00  0.00     0.217 HD
ENDBRANCH   3  10
TORSDOF 2
ENDMDL
MODEL 20
REMARK VINA RESULT:      -2.5      8.725      9.379
REMARK  2 active torsions:
REMARK  status: ('A' for Active; 'I' for Inactive)
REMARK    1  A    between atoms: C3_3  and  O1_8 
REMARK    2  A    between atoms: C6_6  and  N1_7 
ROOT
HETATM    1  C1  UNL     1     -10.595   2.101  -6.395  1.00  0.00     0.026 A 
HETATM    2  C2  UNL     1     -11.297   3.185  -6.927  1.00  0.00     0.038 A 
HETATM    3  C3  UNL     1     -10.748   3.914  -7.972  1.00  0.00     0.065 A 
HETATM    4  C4  UNL     1      -9.512   3.565  -8.505  1.00  0.00     0.038 A 
HETATM    5  C5  UNL     1      -8.814   2.481  -7.966  1.00  0.00     0.026 A 
HETATM    6  C6  UNL     1      -9.324   1.770  -6.875  1.00  0.00     0.005 A 
ENDROOT
BRANCH   6   7
HETATM    7  N1  UNL     1      -8.677   0.616  -6.420  1.00  0.00    -0.303 NA
HETATM    8  H5  UNL     1      -8.148   0.754  -5.565  1.00  0.00     0.124 HD
HETATM    9  H6  UNL     1      -8.137   0.140  -7.135  1.00  0.00     0.124 HD
ENDBRANCH   6   7
BRANCH   3  10
HETATM   10  O1  UNL     1     -11.465   4.962  -8.466  1.00  0.00    -0.361 OA
HETATM   11  H7  UNL     1     -12.071   5.275  -7.776  1.00  0.00     0.217 HD
ENDBRANCH   3  10
TORSDOF 2
ENDMDL
