MODEL 1
REMARK VINA RESULT:      -7.9      0.000      0.000
REMARK  27 active torsions:
REMARK  status: ('A' for Active; 'I' for Inactive)
REMARK    1  A    between atoms: C2_2  and  S1_4 
REMARK    2  A    between atoms: S1_4  and  C3_5 
REMARK    3  A    between atoms: C3_5  and  C4_6 
REMARK    4  A    between atoms: C4_6  and  N1_7 
REMARK       I    between atoms: N1_7  and  C5_8 
REMARK    5  A    between atoms: C5_8  and  C6_10 
REMARK    6  A    between atoms: C6_10  and  C7_11 
REMARK    7  A    between atoms: C7_11  and  N2_12 
REMARK       I    between atoms: N2_12  and  C8_13 
REMARK    8  A    between atoms: C8_13  and  C9_15 
REMARK    9  A    between atoms: C9_15  and  C10_16 
REMARK   10  A    between atoms: C9_15  and  O17_54 
REMARK   11  A    between atoms: C10_16  and  C13_19 
REMARK   12  A    between atoms: C13_19  and  O4_20 
REMARK   13  A    between atoms: O4_20  and  P1_21 
REMARK   14  A    between atoms: P1_21  and  O6_23 
REMARK   15  A    between atoms: P1_21  and  O7_24 
REMARK   16  A    between atoms: O7_24  and  P2_25 
REMARK   17  A    between atoms: P2_25  and  O9_27 
REMARK   18  A    between atoms: P2_25  and  O10_28 
REMARK   19  A    between atoms: O10_28  and  C14_29 
REMARK   20  A    between atoms: C14_29  and  C15_30 
REMARK   21  A    between atoms: C16_31  and  O13_49 
REMARK   22  A    between atoms: C17_32  and  O12_48 
REMARK   23  A    between atoms: C18_33  and  N3_35 
REMARK   24  A    between atoms: C21_40  and  N7_47 
REMARK   25  A    between atoms: O13_49  and  P3_50 
REMARK   26  A    between atoms: P3_50  and  O15_52 
REMARK   27  A    between atoms: P3_50  and  O16_53 
ROOT
HETATM    1  C1  UNL     1      -6.792   6.284  -3.045  1.00  0.00     0.104 C 
HETATM    2  C2  UNL     1      -8.023   6.212  -3.895  1.00  0.00     0.182 C 
HETATM    3  O1  UNL     1      -8.758   7.175  -4.099  1.00  0.00    -0.286 OA
ENDROOT
BRANCH   2   4
HETATM    4  S1  UNL     1      -8.359   4.616  -4.551  1.00  0.00    -0.091 SA
BRANCH   4   5
HETATM    5  C3  UNL     1      -7.381   3.585  -3.411  1.00  0.00     0.102 C 
BRANCH   5   6
HETATM    6  C4  UNL     1      -6.376   2.706  -4.158  1.00  0.00     0.133 C 
BRANCH   6   7
HETATM    7  N1  UNL     1      -5.911   3.311  -5.390  1.00  0.00    -0.360 N 
HETATM    8  C5  UNL     1      -5.575   2.552  -6.487  1.00  0.00     0.219 C 
HETATM    9  O2  UNL     1      -5.571   1.327  -6.466  1.00  0.00    -0.274 OA
HETATM   10  H8  UNL     1      -5.840   4.318  -5.440  1.00  0.00     0.162 HD
BRANCH   8  11
HETATM   11  C6  UNL     1      -5.168   3.381  -7.686  1.00  0.00     0.122 C 
BRANCH  11  12
HETATM   12  C7  UNL     1      -5.622   4.834  -7.557  1.00  0.00     0.132 C 
BRANCH  12  13
HETATM   13  N2  UNL     1      -4.521   5.762  -7.402  1.00  0.00    -0.358 N 
HETATM   14  C8  UNL     1      -4.574   7.011  -7.994  1.00  0.00     0.247 C 
HETATM   15  O3  UNL     1      -5.477   7.334  -8.754  1.00  0.00    -0.271 OA
HETATM   16  H13 UNL     1      -3.998   5.680  -6.533  1.00  0.00     0.162 HD
BRANCH  14  17
HETATM   17  C9  UNL     1      -3.427   7.956  -7.605  1.00  0.00     0.219 C 
BRANCH  17  18
HETATM   18  C10 UNL     1      -3.742   8.891  -6.408  1.00  0.00     0.009 C 
HETATM   19  C11 UNL     1      -3.908  10.354  -6.845  1.00  0.00     0.020 C 
HETATM   20  C12 UNL     1      -5.033   8.463  -5.681  1.00  0.00     0.020 C 
BRANCH  18  21
HETATM   21  C13 UNL     1      -2.530   8.769  -5.441  1.00  0.00     0.192 C 
BRANCH  21  22
HETATM   22  O4  UNL     1      -2.779   7.874  -4.376  1.00  0.00    -0.296 OA
BRANCH  22  23
HETATM   23  P1  UNL     1      -1.716   6.772  -3.898  1.00  0.00     0.401 P 
HETATM   24  O5  UNL     1      -0.968   7.143  -2.657  1.00  0.00    -0.631 OA
BRANCH  23  25
HETATM   25  O6  UNL     1      -0.767   6.463  -5.161  1.00  0.00    -0.307 OA
HETATM   26  H23 UNL     1      -0.324   5.609  -5.079  1.00  0.00     0.222 HD
ENDBRANCH  23  25
BRANCH  23  27
HETATM   27  O7  UNL     1      -2.546   5.419  -3.795  1.00  0.00    -0.195 OA
BRANCH  27  28
HETATM   28  P2  UNL     1      -2.144   4.197  -4.735  1.00  0.00     0.401 P 
HETATM   29  O8  UNL     1      -2.189   4.434  -6.210  1.00  0.00    -0.631 OA
BRANCH  28  30
HETATM   30  O9  UNL     1      -0.707   3.769  -4.188  1.00  0.00    -0.307 OA
HETATM   31  H24 UNL     1       0.028   4.364  -4.476  1.00  0.00     0.222 HD
ENDBRANCH  28  30
BRANCH  28  32
HETATM   32  O10 UNL     1      -3.036   2.986  -4.197  1.00  0.00    -0.294 OA
BRANCH  32  33
HETATM   33  C14 UNL     1      -2.437   1.936  -3.483  1.00  0.00     0.215 C 
BRANCH  33  34
HETATM   34  C15 UNL     1      -2.770   0.656  -4.247  1.00  0.00     0.180 C 
HETATM   35  C16 UNL     1      -3.276  -0.405  -3.278  1.00  0.00     0.197 C 
HETATM   36  C17 UNL     1      -2.264  -1.531  -3.379  1.00  0.00     0.199 C 
HETATM   37  C18 UNL     1      -1.690  -1.325  -4.783  1.00  0.00     0.262 C 
HETATM   38  O11 UNL     1      -1.643   0.111  -4.941  1.00  0.00    -0.353 OA
BRANCH  35  39
HETATM   39  O13 UNL     1      -4.573  -0.809  -3.705  1.00  0.00    -0.286 OA
BRANCH  39  40
HETATM   40  P3  UNL     1      -5.708  -0.782  -2.580  1.00  0.00     0.391 P 
HETATM   41  O14 UNL     1      -7.052  -0.374  -3.090  1.00  0.00    -0.632 OA
BRANCH  40  42
HETATM   42  O15 UNL     1      -5.017   0.152  -1.480  1.00  0.00    -0.307 OA
HETATM   43  H36 UNL     1      -5.695   0.687  -1.002  1.00  0.00     0.222 HD
ENDBRANCH  40  42
BRANCH  40  44
HETATM   44  O16 UNL     1      -5.569  -2.239  -1.957  1.00  0.00    -0.307 OA
HETATM   45  H37 UNL     1      -4.715  -2.380  -1.518  1.00  0.00     0.222 HD
ENDBRANCH  40  44
ENDBRANCH  39  40
ENDBRANCH  35  39
BRANCH  36  46
HETATM   46  O12 UNL     1      -2.890  -2.787  -3.103  1.00  0.00    -0.388 OA
HETATM   47  H35 UNL     1      -3.058  -2.806  -2.131  1.00  0.00     0.210 HD
ENDBRANCH  36  46
BRANCH  37  48
HETATM   48  N3  UNL     1      -0.347  -1.853  -4.918  1.00  0.00    -0.297 N 
HETATM   49  C19 UNL     1       0.830  -1.143  -4.907  1.00  0.00     0.188 A 
HETATM   50  N4  UNL     1       1.886  -1.928  -4.924  1.00  0.00    -0.346 N 
HETATM   51  C20 UNL     1       1.367  -3.210  -4.942  1.00  0.00     0.116 A 
HETATM   52  H4  UNL     1       2.868  -1.653  -4.923  1.00  0.00     0.167 HD
HETATM   53  C21 UNL     1       1.967  -4.481  -4.924  1.00  0.00     0.109 A 
HETATM   54  C23 UNL     1      -0.015  -3.178  -4.979  1.00  0.00     0.142 A 
HETATM   55  N5  UNL     1       1.169  -5.576  -4.961  1.00  0.00    -0.341 N 
HETATM   56  C22 UNL     1      -0.165  -5.392  -5.019  1.00  0.00     0.183 A 
HETATM   57  H5  UNL     1       1.567  -6.515  -4.946  1.00  0.00     0.167 HD
HETATM   58  N6  UNL     1      -0.851  -4.230  -5.033  1.00  0.00    -0.336 N 
HETATM   59  H6  UNL     1      -1.867  -4.159  -5.078  1.00  0.00     0.168 HD
BRANCH  53  60
HETATM   60  N7  UNL     1       3.338  -4.676  -4.879  1.00  0.00    -0.287 NA
HETATM   61  H33 UNL     1       3.860  -4.144  -5.572  1.00  0.00     0.125 HD
HETATM   62  H34 UNL     1       3.595  -5.647  -4.763  1.00  0.00     0.125 HD
ENDBRANCH  53  60
ENDBRANCH  37  48
ENDBRANCH  33  34
ENDBRANCH  32  33
ENDBRANCH  28  32
ENDBRANCH  27  28
ENDBRANCH  23  27
ENDBRANCH  22  23
ENDBRANCH  21  22
ENDBRANCH  18  21
ENDBRANCH  17  18
BRANCH  17  63
HETATM   63  O17 UNL     1      -2.250   7.202  -7.296  1.00  0.00    -0.385 OA
HETATM   64  H38 UNL     1      -1.620   7.795  -6.853  1.00  0.00     0.210 HD
ENDBRANCH  17  63
ENDBRANCH  14  17
ENDBRANCH  12  13
ENDBRANCH  11  12
ENDBRANCH   8  11
ENDBRANCH   6   7
ENDBRANCH   5   6
ENDBRANCH   4   5
ENDBRANCH   2   4
TORSDOF 27
ENDMDL
MODEL 2
REMARK VINA RESULT:      -7.6      2.992      5.043
REMARK  27 active torsions:
REMARK  status: ('A' for Active; 'I' for Inactive)
REMARK    1  A    between atoms: C2_2  and  S1_4 
REMARK    2  A    between atoms: S1_4  and  C3_5 
REMARK    3  A    between atoms: C3_5  and  C4_6 
REMARK    4  A    between atoms: C4_6  and  N1_7 
REMARK       I    between atoms: N1_7  and  C5_8 
REMARK    5  A    between atoms: C5_8  and  C6_10 
REMARK    6  A    between atoms: C6_10  and  C7_11 
REMARK    7  A    between atoms: C7_11  and  N2_12 
REMARK       I    between atoms: N2_12  and  C8_13 
REMARK    8  A    between atoms: C8_13  and  C9_15 
REMARK    9  A    between atoms: C9_15  and  C10_16 
REMARK   10  A    between atoms: C9_15  and  O17_54 
REMARK   11  A    between atoms: C10_16  and  C13_19 
REMARK   12  A    between atoms: C13_19  and  O4_20 
REMARK   13  A    between atoms: O4_20  and  P1_21 
REMARK   14  A    between atoms: P1_21  and  O6_23 
REMARK   15  A    between atoms: P1_21  and  O7_24 
REMARK   16  A    between atoms: O7_24  and  P2_25 
REMARK   17  A    between atoms: P2_25  and  O9_27 
REMARK   18  A    between atoms: P2_25  and  O10_28 
REMARK   19  A    between atoms: O10_28  and  C14_29 
REMARK   20  A    between atoms: C14_29  and  C15_30 
REMARK   21  A    between atoms: C16_31  and  O13_49 
REMARK   22  A    between atoms: C17_32  and  O12_48 
REMARK   23  A    between atoms: C18_33  and  N3_35 
REMARK   24  A    between atoms: C21_40  and  N7_47 
REMARK   25  A    between atoms: O13_49  and  P3_50 
REMARK   26  A    between atoms: P3_50  and  O15_52 
REMARK   27  A    between atoms: P3_50  and  O16_53 
ROOT
HETATM    1  C1  UNL     1      -0.749   4.888  -3.813  1.00  0.00     0.104 C 
HETATM    2  C2  UNL     1       0.409   4.921  -2.863  1.00  0.00     0.182 C 
HETATM    3  O1  UNL     1       0.698   3.987  -2.118  1.00  0.00    -0.286 OA
ENDROOT
BRANCH   2   4
HETATM    4  S1  UNL     1       1.309   6.431  -2.870  1.00  0.00    -0.091 SA
BRANCH   4   5
HETATM    5  C3  UNL     1      -0.065   7.627  -2.885  1.00  0.00     0.102 C 
BRANCH   5   6
HETATM    6  C4  UNL     1      -0.050   8.496  -4.145  1.00  0.00     0.133 C 
BRANCH   6   7
HETATM    7  N1  UNL     1      -1.246   8.337  -4.948  1.00  0.00    -0.360 N 
HETATM    8  C5  UNL     1      -1.894   9.417  -5.502  1.00  0.00     0.219 C 
HETATM    9  O2  UNL     1      -1.551  10.574  -5.287  1.00  0.00    -0.274 OA
HETATM   10  H8  UNL     1      -1.604   7.405  -5.107  1.00  0.00     0.162 HD
BRANCH   8  11
HETATM   11  C6  UNL     1      -3.086   9.029  -6.349  1.00  0.00     0.122 C 
BRANCH  11  12
HETATM   12  C7  UNL     1      -3.924  10.244  -6.746  1.00  0.00     0.132 C 
BRANCH  12  13
HETATM   13  N2  UNL     1      -5.151   9.890  -7.427  1.00  0.00    -0.358 N 
HETATM   14  C8  UNL     1      -6.351   9.879  -6.740  1.00  0.00     0.247 C 
HETATM   15  O3  UNL     1      -6.410  10.048  -5.528  1.00  0.00    -0.271 OA
HETATM   16  H13 UNL     1      -5.184  10.119  -8.418  1.00  0.00     0.162 HD
BRANCH  14  17
HETATM   17  C9  UNL     1      -7.594   9.661  -7.616  1.00  0.00     0.219 C 
BRANCH  17  18
HETATM   18  C10 UNL     1      -7.803   8.196  -8.081  1.00  0.00     0.009 C 
HETATM   19  C11 UNL     1      -9.282   7.785  -8.050  1.00  0.00     0.020 C 
HETATM   20  C12 UNL     1      -7.279   7.978  -9.515  1.00  0.00     0.020 C 
BRANCH  18  21
HETATM   21  C13 UNL     1      -6.995   7.313  -7.087  1.00  0.00     0.192 C 
BRANCH  21  22
HETATM   22  O4  UNL     1      -6.330   6.246  -7.733  1.00  0.00    -0.296 OA
BRANCH  22  23
HETATM   23  P1  UNL     1      -4.972   5.602  -7.175  1.00  0.00     0.401 P 
HETATM   24  O5  UNL     1      -4.697   5.904  -5.736  1.00  0.00    -0.631 OA
BRANCH  23  25
HETATM   25  O6  UNL     1      -3.794   6.063  -8.172  1.00  0.00    -0.307 OA
HETATM   26  H23 UNL     1      -2.948   6.153  -7.715  1.00  0.00     0.222 HD
ENDBRANCH  23  25
BRANCH  23  27
HETATM   27  O7  UNL     1      -5.080   4.053  -7.521  1.00  0.00    -0.195 OA
BRANCH  27  28
HETATM   28  P2  UNL     1      -3.741   3.207  -7.692  1.00  0.00     0.401 P 
HETATM   29  O8  UNL     1      -3.059   3.280  -9.020  1.00  0.00    -0.631 OA
BRANCH  28  30
HETATM   30  O9  UNL     1      -2.839   3.696  -6.469  1.00  0.00    -0.307 OA
HETATM   31  H24 UNL     1      -1.887   3.437  -6.541  1.00  0.00     0.222 HD
ENDBRANCH  28  30
BRANCH  28  32
HETATM   32  O10 UNL     1      -4.142   1.743  -7.194  1.00  0.00    -0.294 OA
BRANCH  32  33
HETATM   33  C14 UNL     1      -3.148   0.852  -6.761  1.00  0.00     0.215 C 
BRANCH  33  34
HETATM   34  C15 UNL     1      -3.823  -0.087  -5.762  1.00  0.00     0.180 C 
HETATM   35  C16 UNL     1      -3.917   0.590  -4.402  1.00  0.00     0.197 C 
HETATM   36  C17 UNL     1      -3.088  -0.283  -3.479  1.00  0.00     0.199 C 
HETATM   37  C18 UNL     1      -3.149  -1.642  -4.180  1.00  0.00     0.262 C 
HETATM   38  O11 UNL     1      -3.115  -1.320  -5.588  1.00  0.00    -0.353 OA
BRANCH  35  39
HETATM   39  O13 UNL     1      -5.289   0.623  -4.020  1.00  0.00    -0.286 OA
BRANCH  39  40
HETATM   40  P3  UNL     1      -5.840   2.050  -3.555  1.00  0.00     0.391 P 
HETATM   41  O14 UNL     1      -7.327   2.103  -3.410  1.00  0.00    -0.632 OA
BRANCH  40  42
HETATM   42  O15 UNL     1      -5.168   3.003  -4.650  1.00  0.00    -0.307 OA
HETATM   43  H36 UNL     1      -5.601   2.883  -5.529  1.00  0.00     0.222 HD
ENDBRANCH  40  42
BRANCH  40  44
HETATM   44  O16 UNL     1      -4.964   2.318  -2.255  1.00  0.00    -0.307 OA
HETATM   45  H37 UNL     1      -4.055   1.990  -2.340  1.00  0.00     0.222 HD
ENDBRANCH  40  44
ENDBRANCH  39  40
ENDBRANCH  35  39
BRANCH  36  46
HETATM   46  O12 UNL     1      -3.590  -0.210  -2.143  1.00  0.00    -0.388 OA
HETATM   47  H35 UNL     1      -4.451   0.270  -2.195  1.00  0.00     0.210 HD
ENDBRANCH  36  46
BRANCH  37  48
HETATM   48  N3  UNL     1      -2.010  -2.482  -3.866  1.00  0.00    -0.297 N 
HETATM   49  C19 UNL     1      -2.004  -3.619  -3.093  1.00  0.00     0.188 A 
HETATM   50  N4  UNL     1      -0.836  -4.224  -3.105  1.00  0.00    -0.346 N 
HETATM   51  C20 UNL     1      -0.047  -3.442  -3.931  1.00  0.00     0.116 A 
HETATM   52  H4  UNL     1      -0.571  -5.078  -2.615  1.00  0.00     0.167 HD
HETATM   53  C21 UNL     1       1.278  -3.569  -4.381  1.00  0.00     0.109 A 
HETATM   54  C23 UNL     1      -0.751  -2.339  -4.378  1.00  0.00     0.142 A 
HETATM   55  N5  UNL     1       1.781  -2.610  -5.196  1.00  0.00    -0.341 N 
HETATM   56  C22 UNL     1       0.985  -1.575  -5.531  1.00  0.00     0.183 A 
HETATM   57  H5  UNL     1       2.738  -2.670  -5.545  1.00  0.00     0.167 HD
HETATM   58  N6  UNL     1      -0.295  -1.353  -5.171  1.00  0.00    -0.336 N 
HETATM   59  H6  UNL     1      -0.845  -0.544  -5.461  1.00  0.00     0.168 HD
BRANCH  53  60
HETATM   60  N7  UNL     1       2.106  -4.623  -4.027  1.00  0.00    -0.287 NA
HETATM   61  H33 UNL     1       2.628  -4.475  -3.166  1.00  0.00     0.125 HD
HETATM   62  H34 UNL     1       2.619  -5.002  -4.812  1.00  0.00     0.125 HD
ENDBRANCH  53  60
ENDBRANCH  37  48
ENDBRANCH  33  34
ENDBRANCH  32  33
ENDBRANCH  28  32
ENDBRANCH  27  28
ENDBRANCH  23  27
ENDBRANCH  22  23
ENDBRANCH  21  22
ENDBRANCH  18  21
ENDBRANCH  17  18
BRANCH  17  63
HETATM   63  O17 UNL     1      -8.769  10.089  -6.920  1.00  0.00    -0.385 OA
HETATM   64  H38 UNL     1      -9.544   9.799  -7.430  1.00  0.00     0.210 HD
ENDBRANCH  17  63
ENDBRANCH  14  17
ENDBRANCH  12  13
ENDBRANCH  11  12
ENDBRANCH   8  11
ENDBRANCH   6   7
ENDBRANCH   5   6
ENDBRANCH   4   5
ENDBRANCH   2   4
TORSDOF 27
ENDMDL
MODEL 3
REMARK VINA RESULT:      -7.3      3.730      8.776
REMARK  27 active torsions:
REMARK  status: ('A' for Active; 'I' for Inactive)
REMARK    1  A    between atoms: C2_2  and  S1_4 
REMARK    2  A    between atoms: S1_4  and  C3_5 
REMARK    3  A    between atoms: C3_5  and  C4_6 
REMARK    4  A    between atoms: C4_6  and  N1_7 
REMARK       I    between atoms: N1_7  and  C5_8 
REMARK    5  A    between atoms: C5_8  and  C6_10 
REMARK    6  A    between atoms: C6_10  and  C7_11 
REMARK    7  A    between atoms: C7_11  and  N2_12 
REMARK       I    between atoms: N2_12  and  C8_13 
REMARK    8  A    between atoms: C8_13  and  C9_15 
REMARK    9  A    between atoms: C9_15  and  C10_16 
REMARK   10  A    between atoms: C9_15  and  O17_54 
REMARK   11  A    between atoms: C10_16  and  C13_19 
REMARK   12  A    between atoms: C13_19  and  O4_20 
REMARK   13  A    between atoms: O4_20  and  P1_21 
REMARK   14  A    between atoms: P1_21  and  O6_23 
REMARK   15  A    between atoms: P1_21  and  O7_24 
REMARK   16  A    between atoms: O7_24  and  P2_25 
REMARK   17  A    between atoms: P2_25  and  O9_27 
REMARK   18  A    between atoms: P2_25  and  O10_28 
REMARK   19  A    between atoms: O10_28  and  C14_29 
REMARK   20  A    between atoms: C14_29  and  C15_30 
REMARK   21  A    between atoms: C16_31  and  O13_49 
REMARK   22  A    between atoms: C17_32  and  O12_48 
REMARK   23  A    between atoms: C18_33  and  N3_35 
REMARK   24  A    between atoms: C21_40  and  N7_47 
REMARK   25  A    between atoms: O13_49  and  P3_50 
REMARK   26  A    between atoms: P3_50  and  O15_52 
REMARK   27  A    between atoms: P3_50  and  O16_53 
ROOT
HETATM    1  C1  UNL     1      -2.940  -2.938  -3.704  1.00  0.00     0.104 C 
HETATM    2  C2  UNL     1      -1.635  -3.618  -3.420  1.00  0.00     0.182 C 
HETATM    3  O1  UNL     1      -1.526  -4.574  -2.656  1.00  0.00    -0.286 OA
ENDROOT
BRANCH   2   4
HETATM    4  S1  UNL     1      -0.253  -2.909  -4.243  1.00  0.00    -0.091 SA
BRANCH   4   5
HETATM    5  C3  UNL     1       0.432  -4.387  -5.059  1.00  0.00     0.102 C 
BRANCH   5   6
HETATM    6  C4  UNL     1      -0.303  -4.710  -6.362  1.00  0.00     0.133 C 
BRANCH   6   7
HETATM    7  N1  UNL     1      -1.122  -3.611  -6.830  1.00  0.00    -0.360 N 
HETATM    8  C5  UNL     1      -2.268  -3.822  -7.561  1.00  0.00     0.219 C 
HETATM    9  O2  UNL     1      -2.621  -4.937  -7.927  1.00  0.00    -0.274 OA
HETATM   10  H8  UNL     1      -0.842  -2.666  -6.605  1.00  0.00     0.162 HD
BRANCH   8  11
HETATM   11  C6  UNL     1      -3.004  -2.544  -7.903  1.00  0.00     0.122 C 
BRANCH  11  12
HETATM   12  C7  UNL     1      -2.420  -1.336  -7.173  1.00  0.00     0.132 C 
BRANCH  12  13
HETATM   13  N2  UNL     1      -3.378  -0.676  -6.310  1.00  0.00    -0.358 N 
HETATM   14  C8  UNL     1      -3.823   0.598  -6.610  1.00  0.00     0.247 C 
HETATM   15  O3  UNL     1      -3.348   1.256  -7.528  1.00  0.00    -0.271 OA
HETATM   16  H13 UNL     1      -4.024  -1.292  -5.822  1.00  0.00     0.162 HD
BRANCH  14  17
HETATM   17  C9  UNL     1      -4.964   1.108  -5.718  1.00  0.00     0.219 C 
BRANCH  17  18
HETATM   18  C10 UNL     1      -4.554   1.394  -4.249  1.00  0.00     0.009 C 
HETATM   19  C11 UNL     1      -5.114   0.345  -3.278  1.00  0.00     0.020 C 
HETATM   20  C12 UNL     1      -3.021   1.422  -4.086  1.00  0.00     0.020 C 
BRANCH  18  21
HETATM   21  C13 UNL     1      -5.143   2.792  -3.906  1.00  0.00     0.192 C 
BRANCH  21  22
HETATM   22  O4  UNL     1      -6.296   2.705  -3.093  1.00  0.00    -0.296 OA
BRANCH  22  23
HETATM   23  P1  UNL     1      -7.652   3.497  -3.417  1.00  0.00     0.401 P 
HETATM   24  O5  UNL     1      -8.867   2.926  -2.757  1.00  0.00    -0.631 OA
BRANCH  23  25
HETATM   25  O6  UNL     1      -7.766   3.587  -5.021  1.00  0.00    -0.307 OA
HETATM   26  H23 UNL     1      -7.317   4.367  -5.372  1.00  0.00     0.222 HD
ENDBRANCH  23  25
BRANCH  23  27
HETATM   27  O7  UNL     1      -7.343   5.012  -3.044  1.00  0.00    -0.195 OA
BRANCH  27  28
HETATM   28  P2  UNL     1      -7.959   6.170  -3.948  1.00  0.00     0.401 P 
HETATM   29  O8  UNL     1      -9.369   5.991  -4.408  1.00  0.00    -0.631 OA
BRANCH  28  30
HETATM   30  O9  UNL     1      -7.721   7.484  -3.074  1.00  0.00    -0.307 OA
HETATM   31  H24 UNL     1      -7.481   7.305  -2.132  1.00  0.00     0.222 HD
ENDBRANCH  28  30
BRANCH  28  32
HETATM   32  O10 UNL     1      -6.872   6.381  -5.099  1.00  0.00    -0.294 OA
BRANCH  32  33
HETATM   33  C14 UNL     1      -6.066   7.530  -5.101  1.00  0.00     0.215 C 
BRANCH  33  34
HETATM   34  C15 UNL     1      -4.890   7.225  -6.028  1.00  0.00     0.180 C 
HETATM   35  C16 UNL     1      -4.971   5.781  -6.505  1.00  0.00     0.197 C 
HETATM   36  C17 UNL     1      -3.712   5.127  -5.967  1.00  0.00     0.199 C 
HETATM   37  C18 UNL     1      -2.765   6.321  -5.825  1.00  0.00     0.262 C 
HETATM   38  O11 UNL     1      -3.618   7.404  -5.395  1.00  0.00    -0.353 OA
BRANCH  35  39
HETATM   39  O13 UNL     1      -5.007   5.788  -7.928  1.00  0.00    -0.286 OA
BRANCH  39  40
HETATM   40  P3  UNL     1      -6.227   4.996  -8.591  1.00  0.00     0.391 P 
HETATM   41  O14 UNL     1      -5.818   3.750  -9.308  1.00  0.00    -0.632 OA
BRANCH  40  42
HETATM   42  O15 UNL     1      -6.904   6.159  -9.456  1.00  0.00    -0.307 OA
HETATM   43  H36 UNL     1      -6.390   6.325 -10.281  1.00  0.00     0.222 HD
ENDBRANCH  40  42
BRANCH  40  44
HETATM   44  O16 UNL     1      -7.213   4.844  -7.354  1.00  0.00    -0.307 OA
HETATM   45  H37 UNL     1      -8.062   4.439  -7.596  1.00  0.00     0.222 HD
ENDBRANCH  40  44
ENDBRANCH  39  40
ENDBRANCH  35  39
BRANCH  36  46
HETATM   46  O12 UNL     1      -3.301   4.062  -6.828  1.00  0.00    -0.388 OA
HETATM   47  H35 UNL     1      -4.102   3.507  -6.986  1.00  0.00     0.210 HD
ENDBRANCH  36  46
BRANCH  37  48
HETATM   48  N3  UNL     1      -1.744   6.104  -4.819  1.00  0.00    -0.297 N 
HETATM   49  C19 UNL     1      -1.413   4.914  -4.214  1.00  0.00     0.188 A 
HETATM   50  N4  UNL     1      -0.358   5.026  -3.437  1.00  0.00    -0.346 N 
HETATM   51  C20 UNL     1       0.016   6.354  -3.547  1.00  0.00     0.116 A 
HETATM   52  H4  UNL     1       0.086   4.298  -2.878  1.00  0.00     0.167 HD
HETATM   53  C21 UNL     1       1.082   7.091  -3.003  1.00  0.00     0.109 A 
HETATM   54  C23 UNL     1      -0.857   7.042  -4.369  1.00  0.00     0.142 A 
HETATM   55  N5  UNL     1       1.175   8.411  -3.297  1.00  0.00    -0.341 N 
HETATM   56  C22 UNL     1       0.235   8.955  -4.095  1.00  0.00     0.183 A 
HETATM   57  H5  UNL     1       1.936   8.978  -2.923  1.00  0.00     0.167 HD
HETATM   58  N6  UNL     1      -0.820   8.350  -4.679  1.00  0.00    -0.336 N 
HETATM   59  H6  UNL     1      -1.500   8.821  -5.276  1.00  0.00     0.168 HD
BRANCH  53  60
HETATM   60  N7  UNL     1       2.043   6.541  -2.169  1.00  0.00    -0.287 NA
HETATM   61  H33 UNL     1       2.245   5.561  -2.353  1.00  0.00     0.125 HD
HETATM   62  H34 UNL     1       1.925   6.808  -1.201  1.00  0.00     0.125 HD
ENDBRANCH  53  60
ENDBRANCH  37  48
ENDBRANCH  33  34
ENDBRANCH  32  33
ENDBRANCH  28  32
ENDBRANCH  27  28
ENDBRANCH  23  27
ENDBRANCH  22  23
ENDBRANCH  21  22
ENDBRANCH  18  21
ENDBRANCH  17  18
BRANCH  17  63
HETATM   63  O17 UNL     1      -5.528   2.302  -6.273  1.00  0.00    -0.385 OA
HETATM   64  H38 UNL     1      -6.379   2.466  -5.834  1.00  0.00     0.210 HD
ENDBRANCH  17  63
ENDBRANCH  14  17
ENDBRANCH  12  13
ENDBRANCH  11  12
ENDBRANCH   8  11
ENDBRANCH   6   7
ENDBRANCH   5   6
ENDBRANCH   4   5
ENDBRANCH   2   4
TORSDOF 27
ENDMDL
MODEL 4
REMARK VINA RESULT:      -7.2      2.055      2.916
REMARK  27 active torsions:
REMARK  status: ('A' for Active; 'I' for Inactive)
REMARK    1  A    between atoms: C2_2  and  S1_4 
REMARK    2  A    between atoms: S1_4  and  C3_5 
REMARK    3  A    between atoms: C3_5  and  C4_6 
REMARK    4  A    between atoms: C4_6  and  N1_7 
REMARK       I    between atoms: N1_7  and  C5_8 
REMARK    5  A    between atoms: C5_8  and  C6_10 
REMARK    6  A    between atoms: C6_10  and  C7_11 
REMARK    7  A    between atoms: C7_11  and  N2_12 
REMARK       I    between atoms: N2_12  and  C8_13 
REMARK    8  A    between atoms: C8_13  and  C9_15 
REMARK    9  A    between atoms: C9_15  and  C10_16 
REMARK   10  A    between atoms: C9_15  and  O17_54 
REMARK   11  A    between atoms: C10_16  and  C13_19 
REMARK   12  A    between atoms: C13_19  and  O4_20 
REMARK   13  A    between atoms: O4_20  and  P1_21 
REMARK   14  A    between atoms: P1_21  and  O6_23 
REMARK   15  A    between atoms: P1_21  and  O7_24 
REMARK   16  A    between atoms: O7_24  and  P2_25 
REMARK   17  A    between atoms: P2_25  and  O9_27 
REMARK   18  A    between atoms: P2_25  and  O10_28 
REMARK   19  A    between atoms: O10_28  and  C14_29 
REMARK   20  A    between atoms: C14_29  and  C15_30 
REMARK   21  A    between atoms: C16_31  and  O13_49 
REMARK   22  A    between atoms: C17_32  and  O12_48 
REMARK   23  A    between atoms: C18_33  and  N3_35 
REMARK   24  A    between atoms: C21_40  and  N7_47 
REMARK   25  A    between atoms: O13_49  and  P3_50 
REMARK   26  A    between atoms: P3_50  and  O15_52 
REMARK   27  A    between atoms: P3_50  and  O16_53 
ROOT
HETATM    1  C1  UNL     1     -11.814   1.691  -5.030  1.00  0.00     0.104 C 
HETATM    2  C2  UNL     1     -11.070   2.119  -3.802  1.00  0.00     0.182 C 
HETATM    3  O1  UNL     1     -10.572   1.328  -3.005  1.00  0.00    -0.286 OA
ENDROOT
BRANCH   2   4
HETATM    4  S1  UNL     1     -10.998   3.860  -3.569  1.00  0.00    -0.091 SA
BRANCH   4   5
HETATM    5  C3  UNL     1      -9.241   4.056  -3.128  1.00  0.00     0.102 C 
BRANCH   5   6
HETATM    6  C4  UNL     1      -8.566   5.156  -3.949  1.00  0.00     0.133 C 
BRANCH   6   7
HETATM    7  N1  UNL     1      -8.016   4.665  -5.196  1.00  0.00    -0.360 N 
HETATM    8  C5  UNL     1      -8.535   5.039  -6.414  1.00  0.00     0.219 C 
HETATM    9  O2  UNL     1      -9.536   5.739  -6.517  1.00  0.00    -0.274 OA
HETATM   10  H8  UNL     1      -7.225   4.036  -5.165  1.00  0.00     0.162 HD
BRANCH   8  11
HETATM   11  C6  UNL     1      -7.781   4.459  -7.591  1.00  0.00     0.122 C 
BRANCH  11  12
HETATM   12  C7  UNL     1      -7.603   5.480  -8.714  1.00  0.00     0.132 C 
BRANCH  12  13
HETATM   13  N2  UNL     1      -7.201   6.786  -8.235  1.00  0.00    -0.358 N 
HETATM   14  C8  UNL     1      -5.860   7.092  -8.088  1.00  0.00     0.247 C 
HETATM   15  O3  UNL     1      -4.980   6.254  -8.238  1.00  0.00    -0.271 OA
HETATM   16  H13 UNL     1      -7.830   7.551  -8.468  1.00  0.00     0.162 HD
BRANCH  14  17
HETATM   17  C9  UNL     1      -5.569   8.561  -7.745  1.00  0.00     0.219 C 
BRANCH  17  18
HETATM   18  C10 UNL     1      -5.616   8.888  -6.229  1.00  0.00     0.009 C 
HETATM   19  C11 UNL     1      -6.190  10.286  -5.957  1.00  0.00     0.020 C 
HETATM   20  C12 UNL     1      -6.472   7.864  -5.456  1.00  0.00     0.020 C 
BRANCH  18  21
HETATM   21  C13 UNL     1      -4.143   8.822  -5.732  1.00  0.00     0.192 C 
BRANCH  21  22
HETATM   22  O4  UNL     1      -3.745   7.507  -5.400  1.00  0.00    -0.296 OA
BRANCH  22  23
HETATM   23  P1  UNL     1      -2.286   6.930  -5.728  1.00  0.00     0.401 P 
HETATM   24  O5  UNL     1      -1.280   7.159  -4.644  1.00  0.00    -0.631 OA
BRANCH  23  25
HETATM   25  O6  UNL     1      -1.854   7.539  -7.154  1.00  0.00    -0.307 OA
HETATM   26  H23 UNL     1      -2.542   7.419  -7.821  1.00  0.00     0.222 HD
ENDBRANCH  23  25
BRANCH  23  27
HETATM   27  O7  UNL     1      -2.522   5.402  -6.102  1.00  0.00    -0.195 OA
BRANCH  27  28
HETATM   28  P2  UNL     1      -3.419   4.503  -5.140  1.00  0.00     0.401 P 
HETATM   29  O8  UNL     1      -3.205   4.664  -3.670  1.00  0.00    -0.631 OA
BRANCH  28  30
HETATM   30  O9  UNL     1      -4.908   4.825  -5.620  1.00  0.00    -0.307 OA
HETATM   31  H24 UNL     1      -4.968   5.171  -6.544  1.00  0.00     0.222 HD
ENDBRANCH  28  30
BRANCH  28  32
HETATM   32  O10 UNL     1      -3.239   3.024  -5.714  1.00  0.00    -0.294 OA
BRANCH  32  33
HETATM   33  C14 UNL     1      -2.519   2.069  -4.979  1.00  0.00     0.215 C 
BRANCH  33  34
HETATM   34  C15 UNL     1      -3.296   0.759  -5.108  1.00  0.00     0.180 C 
HETATM   35  C16 UNL     1      -3.981   0.435  -3.787  1.00  0.00     0.197 C 
HETATM   36  C17 UNL     1      -3.362  -0.877  -3.344  1.00  0.00     0.199 C 
HETATM   37  C18 UNL     1      -2.911  -1.486  -4.674  1.00  0.00     0.262 C 
HETATM   38  O11 UNL     1      -2.462  -0.354  -5.451  1.00  0.00    -0.353 OA
BRANCH  35  39
HETATM   39  O13 UNL     1      -5.378   0.313  -4.033  1.00  0.00    -0.286 OA
BRANCH  39  40
HETATM   40  P3  UNL     1      -6.234   1.647  -3.823  1.00  0.00     0.391 P 
HETATM   41  O14 UNL     1      -5.677   2.562  -2.781  1.00  0.00    -0.632 OA
BRANCH  40  42
HETATM   42  O15 UNL     1      -7.689   1.032  -3.568  1.00  0.00    -0.307 OA
HETATM   43  H36 UNL     1      -7.668   0.048  -3.637  1.00  0.00     0.222 HD
ENDBRANCH  40  42
BRANCH  40  44
HETATM   44  O16 UNL     1      -6.330   2.198  -5.312  1.00  0.00    -0.307 OA
HETATM   45  H37 UNL     1      -6.466   1.494  -5.966  1.00  0.00     0.222 HD
ENDBRANCH  40  44
ENDBRANCH  39  40
ENDBRANCH  35  39
BRANCH  36  46
HETATM   46  O12 UNL     1      -4.295  -1.627  -2.562  1.00  0.00    -0.388 OA
HETATM   47  H35 UNL     1      -5.153  -1.596  -3.047  1.00  0.00     0.210 HD
ENDBRANCH  36  46
BRANCH  37  48
HETATM   48  N3  UNL     1      -1.806  -2.411  -4.516  1.00  0.00    -0.297 N 
HETATM   49  C19 UNL     1      -1.074  -2.645  -3.375  1.00  0.00     0.188 A 
HETATM   50  N4  UNL     1      -0.222  -3.636  -3.524  1.00  0.00    -0.346 N 
HETATM   51  C20 UNL     1      -0.414  -4.068  -4.824  1.00  0.00     0.116 A 
HETATM   52  H4  UNL     1       0.433  -4.003  -2.835  1.00  0.00     0.167 HD
HETATM   53  C21 UNL     1       0.154  -5.113  -5.574  1.00  0.00     0.109 A 
HETATM   54  C23 UNL     1      -1.364  -3.293  -5.463  1.00  0.00     0.142 A 
HETATM   55  N5  UNL     1      -0.244  -5.280  -6.859  1.00  0.00    -0.341 N 
HETATM   56  C22 UNL     1      -1.164  -4.431  -7.357  1.00  0.00     0.183 A 
HETATM   57  H5  UNL     1       0.143  -6.029  -7.433  1.00  0.00     0.167 HD
HETATM   58  N6  UNL     1      -1.782  -3.406  -6.736  1.00  0.00    -0.336 N 
HETATM   59  H6  UNL     1      -2.474  -2.797  -7.173  1.00  0.00     0.168 HD
BRANCH  53  60
HETATM   60  N7  UNL     1       1.111  -5.979  -5.071  1.00  0.00    -0.287 NA
HETATM   61  H33 UNL     1       1.441  -6.673  -5.739  1.00  0.00     0.125 HD
HETATM   62  H34 UNL     1       0.894  -6.310  -4.140  1.00  0.00     0.125 HD
ENDBRANCH  53  60
ENDBRANCH  37  48
ENDBRANCH  33  34
ENDBRANCH  32  33
ENDBRANCH  28  32
ENDBRANCH  27  28
ENDBRANCH  23  27
ENDBRANCH  22  23
ENDBRANCH  21  22
ENDBRANCH  18  21
ENDBRANCH  17  18
BRANCH  17  63
HETATM   63  O17 UNL     1      -4.285   8.940  -8.252  1.00  0.00    -0.385 OA
HETATM   64  H38 UNL     1      -4.109   8.416  -9.051  1.00  0.00     0.210 HD
ENDBRANCH  17  63
ENDBRANCH  14  17
ENDBRANCH  12  13
ENDBRANCH  11  12
ENDBRANCH   8  11
ENDBRANCH   6   7
ENDBRANCH   5   6
ENDBRANCH   4   5
ENDBRANCH   2   4
TORSDOF 27
ENDMDL
MODEL 5
REMARK VINA RESULT:      -7.1      2.737      5.215
REMARK  27 active torsions:
REMARK  status: ('A' for Active; 'I' for Inactive)
REMARK    1  A    between atoms: C2_2  and  S1_4 
REMARK    2  A    between atoms: S1_4  and  C3_5 
REMARK    3  A    between atoms: C3_5  and  C4_6 
REMARK    4  A    between atoms: C4_6  and  N1_7 
REMARK       I    between atoms: N1_7  and  C5_8 
REMARK    5  A    between atoms: C5_8  and  C6_10 
REMARK    6  A    between atoms: C6_10  and  C7_11 
REMARK    7  A    between atoms: C7_11  and  N2_12 
REMARK       I    between atoms: N2_12  and  C8_13 
REMARK    8  A    between atoms: C8_13  and  C9_15 
REMARK    9  A    between atoms: C9_15  and  C10_16 
REMARK   10  A    between atoms: C9_15  and  O17_54 
REMARK   11  A    between atoms: C10_16  and  C13_19 
REMARK   12  A    between atoms: C13_19  and  O4_20 
REMARK   13  A    between atoms: O4_20  and  P1_21 
REMARK   14  A    between atoms: P1_21  and  O6_23 
REMARK   15  A    between atoms: P1_21  and  O7_24 
REMARK   16  A    between atoms: O7_24  and  P2_25 
REMARK   17  A    between atoms: P2_25  and  O9_27 
REMARK   18  A    between atoms: P2_25  and  O10_28 
REMARK   19  A    between atoms: O10_28  and  C14_29 
REMARK   20  A    between atoms: C14_29  and  C15_30 
REMARK   21  A    between atoms: C16_31  and  O13_49 
REMARK   22  A    between atoms: C17_32  and  O12_48 
REMARK   23  A    between atoms: C18_33  and  N3_35 
REMARK   24  A    between atoms: C21_40  and  N7_47 
REMARK   25  A    between atoms: O13_49  and  P3_50 
REMARK   26  A    between atoms: P3_50  and  O15_52 
REMARK   27  A    between atoms: P3_50  and  O16_53 
ROOT
HETATM    1  C1  UNL     1      -1.113   8.915  -4.904  1.00  0.00     0.104 C 
HETATM    2  C2  UNL     1      -1.996   8.033  -5.733  1.00  0.00     0.182 C 
HETATM    3  O1  UNL     1      -1.569   7.116  -6.430  1.00  0.00    -0.286 OA
ENDROOT
BRANCH   2   4
HETATM    4  S1  UNL     1      -3.704   8.443  -5.661  1.00  0.00    -0.091 SA
BRANCH   4   5
HETATM    5  C3  UNL     1      -3.950   9.102  -7.342  1.00  0.00     0.102 C 
BRANCH   5   6
HETATM    6  C4  UNL     1      -4.059   7.985  -8.381  1.00  0.00     0.133 C 
BRANCH   6   7
HETATM    7  N1  UNL     1      -5.374   7.910  -8.986  1.00  0.00    -0.360 N 
HETATM    8  C5  UNL     1      -6.354   7.083  -8.488  1.00  0.00     0.219 C 
HETATM    9  O2  UNL     1      -6.154   6.306  -7.562  1.00  0.00    -0.274 OA
HETATM   10  H8  UNL     1      -5.573   8.489  -9.791  1.00  0.00     0.162 HD
BRANCH   8  11
HETATM   11  C6  UNL     1      -7.668   7.197  -9.230  1.00  0.00     0.122 C 
BRANCH  11  12
HETATM   12  C7  UNL     1      -8.758   7.831  -8.366  1.00  0.00     0.132 C 
BRANCH  12  13
HETATM   13  N2  UNL     1      -8.236   8.495  -7.190  1.00  0.00    -0.358 N 
HETATM   14  C8  UNL     1      -8.978   9.474  -6.555  1.00  0.00     0.247 C 
HETATM   15  O3  UNL     1     -10.031   9.895  -7.017  1.00  0.00    -0.271 OA
HETATM   16  H13 UNL     1      -7.611   7.937  -6.613  1.00  0.00     0.162 HD
BRANCH  14  17
HETATM   17  C9  UNL     1      -8.389   9.968  -5.226  1.00  0.00     0.219 C 
BRANCH  17  18
HETATM   18  C10 UNL     1      -8.815   9.139  -3.986  1.00  0.00     0.009 C 
HETATM   19  C11 UNL     1      -9.044  10.022  -2.750  1.00  0.00     0.020 C 
HETATM   20  C12 UNL     1     -10.112   8.349  -4.252  1.00  0.00     0.020 C 
BRANCH  18  21
HETATM   21  C13 UNL     1      -7.645   8.151  -3.712  1.00  0.00     0.192 C 
BRANCH  21  22
HETATM   22  O4  UNL     1      -7.779   6.944  -4.435  1.00  0.00    -0.296 OA
BRANCH  22  23
HETATM   23  P1  UNL     1      -7.037   5.587  -4.010  1.00  0.00     0.401 P 
HETATM   24  O5  UNL     1      -6.903   5.400  -2.532  1.00  0.00    -0.631 OA
BRANCH  23  25
HETATM   25  O6  UNL     1      -5.634   5.558  -4.798  1.00  0.00    -0.307 OA
HETATM   26  H23 UNL     1      -4.955   5.075  -4.310  1.00  0.00     0.222 HD
ENDBRANCH  23  25
BRANCH  23  27
HETATM   27  O7  UNL     1      -7.836   4.432  -4.757  1.00  0.00    -0.195 OA
BRANCH  27  28
HETATM   28  P2  UNL     1      -7.532   2.915  -4.374  1.00  0.00     0.401 P 
HETATM   29  O8  UNL     1      -8.306   2.337  -3.235  1.00  0.00    -0.631 OA
BRANCH  28  30
HETATM   30  O9  UNL     1      -7.733   2.141  -5.756  1.00  0.00    -0.307 OA
HETATM   31  H24 UNL     1      -8.551   1.588  -5.794  1.00  0.00     0.222 HD
ENDBRANCH  28  30
BRANCH  28  32
HETATM   32  O10 UNL     1      -5.942   2.862  -4.236  1.00  0.00    -0.294 OA
BRANCH  32  33
HETATM   33  C14 UNL     1      -5.331   1.795  -3.559  1.00  0.00     0.215 C 
BRANCH  33  34
HETATM   34  C15 UNL     1      -3.903   1.712  -4.094  1.00  0.00     0.180 C 
HETATM   35  C16 UNL     1      -3.926   1.633  -5.615  1.00  0.00     0.197 C 
HETATM   36  C17 UNL     1      -3.299   0.291  -5.939  1.00  0.00     0.199 C 
HETATM   37  C18 UNL     1      -2.421   0.039  -4.711  1.00  0.00     0.262 C 
HETATM   38  O11 UNL     1      -3.190   0.569  -3.609  1.00  0.00    -0.353 OA
BRANCH  35  39
HETATM   39  O13 UNL     1      -3.161   2.720  -6.124  1.00  0.00    -0.286 OA
BRANCH  39  40
HETATM   40  P3  UNL     1      -3.803   3.492  -7.369  1.00  0.00     0.391 P 
HETATM   41  O14 UNL     1      -3.315   3.006  -8.696  1.00  0.00    -0.632 OA
BRANCH  40  42
HETATM   42  O15 UNL     1      -3.489   5.010  -6.974  1.00  0.00    -0.307 OA
HETATM   43  H36 UNL     1      -4.308   5.467  -6.667  1.00  0.00     0.222 HD
ENDBRANCH  40  42
BRANCH  40  44
HETATM   44  O16 UNL     1      -5.356   3.351  -7.059  1.00  0.00    -0.307 OA
HETATM   45  H37 UNL     1      -5.896   3.281  -7.863  1.00  0.00     0.222 HD
ENDBRANCH  40  44
ENDBRANCH  39  40
ENDBRANCH  35  39
BRANCH  36  46
HETATM   46  O12 UNL     1      -2.648   0.342  -7.212  1.00  0.00    -0.388 OA
HETATM   47  H35 UNL     1      -2.166  -0.513  -7.312  1.00  0.00     0.210 HD
ENDBRANCH  36  46
BRANCH  37  48
HETATM   48  N3  UNL     1      -2.182  -1.371  -4.477  1.00  0.00    -0.297 N 
HETATM   49  C19 UNL     1      -3.075  -2.295  -3.985  1.00  0.00     0.188 A 
HETATM   50  N4  UNL     1      -2.591  -3.518  -4.011  1.00  0.00    -0.346 N 
HETATM   51  C20 UNL     1      -1.325  -3.381  -4.551  1.00  0.00     0.116 A 
HETATM   52  H4  UNL     1      -3.048  -4.376  -3.702  1.00  0.00     0.167 HD
HETATM   53  C21 UNL     1      -0.322  -4.311  -4.876  1.00  0.00     0.109 A 
HETATM   54  C23 UNL     1      -1.044  -2.052  -4.808  1.00  0.00     0.142 A 
HETATM   55  N5  UNL     1       0.844  -3.854  -5.395  1.00  0.00    -0.341 N 
HETATM   56  C22 UNL     1       0.987  -2.525  -5.569  1.00  0.00     0.183 A 
HETATM   57  H5  UNL     1       1.593  -4.499  -5.647  1.00  0.00     0.167 HD
HETATM   58  N6  UNL     1       0.099  -1.545  -5.305  1.00  0.00    -0.336 N 
HETATM   59  H6  UNL     1       0.270  -0.551  -5.460  1.00  0.00     0.168 HD
BRANCH  53  60
HETATM   60  N7  UNL     1      -0.459  -5.677  -4.685  1.00  0.00    -0.287 NA
HETATM   61  H33 UNL     1      -0.204  -6.241  -5.494  1.00  0.00     0.125 HD
HETATM   62  H34 UNL     1      -1.315  -5.925  -4.209  1.00  0.00     0.125 HD
ENDBRANCH  53  60
ENDBRANCH  37  48
ENDBRANCH  33  34
ENDBRANCH  32  33
ENDBRANCH  28  32
ENDBRANCH  27  28
ENDBRANCH  23  27
ENDBRANCH  22  23
ENDBRANCH  21  22
ENDBRANCH  18  21
ENDBRANCH  17  18
BRANCH  17  63
HETATM   63  O17 UNL     1      -6.959   9.982  -5.295  1.00  0.00    -0.385 OA
HETATM   64  H38 UNL     1      -6.613   9.840  -4.398  1.00  0.00     0.210 HD
ENDBRANCH  17  63
ENDBRANCH  14  17
ENDBRANCH  12  13
ENDBRANCH  11  12
ENDBRANCH   8  11
ENDBRANCH   6   7
ENDBRANCH   5   6
ENDBRANCH   4   5
ENDBRANCH   2   4
TORSDOF 27
ENDMDL
MODEL 6
REMARK VINA RESULT:      -7.0      3.211      8.147
REMARK  27 active torsions:
REMARK  status: ('A' for Active; 'I' for Inactive)
REMARK    1  A    between atoms: C2_2  and  S1_4 
REMARK    2  A    between atoms: S1_4  and  C3_5 
REMARK    3  A    between atoms: C3_5  and  C4_6 
REMARK    4  A    between atoms: C4_6  and  N1_7 
REMARK       I    between atoms: N1_7  and  C5_8 
REMARK    5  A    between atoms: C5_8  and  C6_10 
REMARK    6  A    between atoms: C6_10  and  C7_11 
REMARK    7  A    between atoms: C7_11  and  N2_12 
REMARK       I    between atoms: N2_12  and  C8_13 
REMARK    8  A    between atoms: C8_13  and  C9_15 
REMARK    9  A    between atoms: C9_15  and  C10_16 
REMARK   10  A    between atoms: C9_15  and  O17_54 
REMARK   11  A    between atoms: C10_16  and  C13_19 
REMARK   12  A    between atoms: C13_19  and  O4_20 
REMARK   13  A    between atoms: O4_20  and  P1_21 
REMARK   14  A    between atoms: P1_21  and  O6_23 
REMARK   15  A    between atoms: P1_21  and  O7_24 
REMARK   16  A    between atoms: O7_24  and  P2_25 
REMARK   17  A    between atoms: P2_25  and  O9_27 
REMARK   18  A    between atoms: P2_25  and  O10_28 
REMARK   19  A    between atoms: O10_28  and  C14_29 
REMARK   20  A    between atoms: C14_29  and  C15_30 
REMARK   21  A    between atoms: C16_31  and  O13_49 
REMARK   22  A    between atoms: C17_32  and  O12_48 
REMARK   23  A    between atoms: C18_33  and  N3_35 
REMARK   24  A    between atoms: C21_40  and  N7_47 
REMARK   25  A    between atoms: O13_49  and  P3_50 
REMARK   26  A    between atoms: P3_50  and  O15_52 
REMARK   27  A    between atoms: P3_50  and  O16_53 
ROOT
HETATM    1  C1  UNL     1      -2.298  -4.145  -7.519  1.00  0.00     0.104 C 
HETATM    2  C2  UNL     1      -2.151  -3.116  -6.440  1.00  0.00     0.182 C 
HETATM    3  O1  UNL     1      -2.770  -2.054  -6.432  1.00  0.00    -0.286 OA
ENDROOT
BRANCH   2   4
HETATM    4  S1  UNL     1      -0.981  -3.532  -5.195  1.00  0.00    -0.091 SA
BRANCH   4   5
HETATM    5  C3  UNL     1      -1.368  -2.261  -3.949  1.00  0.00     0.102 C 
BRANCH   5   6
HETATM    6  C4  UNL     1      -0.411  -1.070  -4.033  1.00  0.00     0.133 C 
BRANCH   6   7
HETATM    7  N1  UNL     1      -1.089   0.203  -3.898  1.00  0.00    -0.360 N 
HETATM    8  C5  UNL     1      -0.467   1.299  -3.346  1.00  0.00     0.219 C 
HETATM    9  O2  UNL     1       0.659   1.247  -2.865  1.00  0.00    -0.274 OA
HETATM   10  H8  UNL     1      -2.042   0.284  -4.226  1.00  0.00     0.162 HD
BRANCH   8  11
HETATM   11  C6  UNL     1      -1.330   2.542  -3.349  1.00  0.00     0.122 C 
BRANCH  11  12
HETATM   12  C7  UNL     1      -0.536   3.788  -3.741  1.00  0.00     0.132 C 
BRANCH  12  13
HETATM   13  N2  UNL     1      -1.327   5.000  -3.707  1.00  0.00    -0.358 N 
HETATM   14  C8  UNL     1      -2.029   5.405  -4.828  1.00  0.00     0.247 C 
HETATM   15  O3  UNL     1      -1.918   4.837  -5.907  1.00  0.00    -0.271 OA
HETATM   16  H13 UNL     1      -1.720   5.241  -2.800  1.00  0.00     0.162 HD
BRANCH  14  17
HETATM   17  C9  UNL     1      -2.964   6.603  -4.604  1.00  0.00     0.219 C 
BRANCH  17  18
HETATM   18  C10 UNL     1      -3.685   7.103  -5.884  1.00  0.00     0.009 C 
HETATM   19  C11 UNL     1      -4.463   8.404  -5.638  1.00  0.00     0.020 C 
HETATM   20  C12 UNL     1      -2.688   7.355  -7.033  1.00  0.00     0.020 C 
BRANCH  18  21
HETATM   21  C13 UNL     1      -4.674   5.971  -6.286  1.00  0.00     0.192 C 
BRANCH  21  22
HETATM   22  O4  UNL     1      -4.508   5.564  -7.629  1.00  0.00    -0.296 OA
BRANCH  22  23
HETATM   23  P1  UNL     1      -4.672   4.041  -8.104  1.00  0.00     0.401 P 
HETATM   24  O5  UNL     1      -3.489   3.501  -8.844  1.00  0.00    -0.631 OA
BRANCH  23  25
HETATM   25  O6  UNL     1      -6.050   3.957  -8.931  1.00  0.00    -0.307 OA
HETATM   26  H23 UNL     1      -6.419   4.831  -9.109  1.00  0.00     0.222 HD
ENDBRANCH  23  25
BRANCH  23  27
HETATM   27  O7  UNL     1      -5.053   3.238  -6.784  1.00  0.00    -0.195 OA
BRANCH  27  28
HETATM   28  P2  UNL     1      -4.242   1.915  -6.426  1.00  0.00     0.401 P 
HETATM   29  O8  UNL     1      -4.642   0.663  -7.134  1.00  0.00    -0.631 OA
BRANCH  28  30
HETATM   30  O9  UNL     1      -2.722   2.342  -6.666  1.00  0.00    -0.307 OA
HETATM   31  H24 UNL     1      -2.069   1.616  -6.509  1.00  0.00     0.222 HD
ENDBRANCH  28  30
BRANCH  28  32
HETATM   32  O10 UNL     1      -4.282   1.858  -4.830  1.00  0.00    -0.294 OA
BRANCH  32  33
HETATM   33  C14 UNL     1      -4.750   2.961  -4.099  1.00  0.00     0.215 C 
BRANCH  33  34
HETATM   34  C15 UNL     1      -5.874   2.437  -3.208  1.00  0.00     0.180 C 
HETATM   35  C16 UNL     1      -6.253   1.024  -3.633  1.00  0.00     0.197 C 
HETATM   36  C17 UNL     1      -7.701   1.130  -4.072  1.00  0.00     0.199 C 
HETATM   37  C18 UNL     1      -8.190   2.346  -3.282  1.00  0.00     0.262 C 
HETATM   38  O11 UNL     1      -7.057   3.242  -3.269  1.00  0.00    -0.353 OA
BRANCH  35  39
HETATM   39  O13 UNL     1      -6.095   0.168  -2.507  1.00  0.00    -0.286 OA
BRANCH  39  40
HETATM   40  P3  UNL     1      -4.941  -0.932  -2.634  1.00  0.00     0.391 P 
HETATM   41  O14 UNL     1      -5.329  -2.276  -2.110  1.00  0.00    -0.632 OA
BRANCH  40  42
HETATM   42  O15 UNL     1      -3.728  -0.178  -1.912  1.00  0.00    -0.307 OA
HETATM   43  H36 UNL     1      -2.874  -0.634  -2.099  1.00  0.00     0.222 HD
ENDBRANCH  40  42
BRANCH  40  44
HETATM   44  O16 UNL     1      -4.569  -0.822  -4.176  1.00  0.00    -0.307 OA
HETATM   45  H37 UNL     1      -3.641  -0.579  -4.323  1.00  0.00     0.222 HD
ENDBRANCH  40  44
ENDBRANCH  39  40
ENDBRANCH  35  39
BRANCH  36  46
HETATM   46  O12 UNL     1      -8.377  -0.111  -3.854  1.00  0.00    -0.388 OA
HETATM   47  H35 UNL     1      -8.004  -0.750  -4.507  1.00  0.00     0.210 HD
ENDBRANCH  36  46
BRANCH  37  48
HETATM   48  N3  UNL     1      -9.306   3.014  -3.922  1.00  0.00    -0.297 N 
HETATM   49  C19 UNL     1     -10.624   2.993  -3.529  1.00  0.00     0.188 A 
HETATM   50  N4  UNL     1     -11.370   3.803  -4.247  1.00  0.00    -0.346 N 
HETATM   51  C20 UNL     1     -10.493   4.382  -5.146  1.00  0.00     0.116 A 
HETATM   52  H4  UNL     1     -12.373   3.969  -4.160  1.00  0.00     0.167 HD
HETATM   53  C21 UNL     1     -10.657   5.356  -6.146  1.00  0.00     0.109 A 
HETATM   54  C23 UNL     1      -9.218   3.872  -4.982  1.00  0.00     0.142 A 
HETATM   55  N5  UNL     1      -9.580   5.716  -6.886  1.00  0.00    -0.341 N 
HETATM   56  C22 UNL     1      -8.401   5.115  -6.629  1.00  0.00     0.183 A 
HETATM   57  H5  UNL     1      -9.660   6.422  -7.618  1.00  0.00     0.167 HD
HETATM   58  N6  UNL     1      -8.122   4.181  -5.697  1.00  0.00    -0.336 N 
HETATM   59  H6  UNL     1      -7.201   3.765  -5.554  1.00  0.00     0.168 HD
BRANCH  53  60
HETATM   60  N7  UNL     1     -11.871   5.966  -6.424  1.00  0.00    -0.287 NA
HETATM   61  H33 UNL     1     -12.576   5.340  -6.807  1.00  0.00     0.125 HD
HETATM   62  H34 UNL     1     -11.767   6.865  -6.874  1.00  0.00     0.125 HD
ENDBRANCH  53  60
ENDBRANCH  37  48
ENDBRANCH  33  34
ENDBRANCH  32  33
ENDBRANCH  28  32
ENDBRANCH  27  28
ENDBRANCH  23  27
ENDBRANCH  22  23
ENDBRANCH  21  22
ENDBRANCH  18  21
ENDBRANCH  17  18
BRANCH  17  63
HETATM   63  O17 UNL     1      -3.954   6.278  -3.622  1.00  0.00    -0.385 OA
HETATM   64  H38 UNL     1      -3.717   6.730  -2.795  1.00  0.00     0.210 HD
ENDBRANCH  17  63
ENDBRANCH  14  17
ENDBRANCH  12  13
ENDBRANCH  11  12
ENDBRANCH   8  11
ENDBRANCH   6   7
ENDBRANCH   5   6
ENDBRANCH   4   5
ENDBRANCH   2   4
TORSDOF 27
ENDMDL
MODEL 7
REMARK VINA RESULT:      -6.7      3.291      5.737
REMARK  27 active torsions:
REMARK  status: ('A' for Active; 'I' for Inactive)
REMARK    1  A    between atoms: C2_2  and  S1_4 
REMARK    2  A    between atoms: S1_4  and  C3_5 
REMARK    3  A    between atoms: C3_5  and  C4_6 
REMARK    4  A    between atoms: C4_6  and  N1_7 
REMARK       I    between atoms: N1_7  and  C5_8 
REMARK    5  A    between atoms: C5_8  and  C6_10 
REMARK    6  A    between atoms: C6_10  and  C7_11 
REMARK    7  A    between atoms: C7_11  and  N2_12 
REMARK       I    between atoms: N2_12  and  C8_13 
REMARK    8  A    between atoms: C8_13  and  C9_15 
REMARK    9  A    between atoms: C9_15  and  C10_16 
REMARK   10  A    between atoms: C9_15  and  O17_54 
REMARK   11  A    between atoms: C10_16  and  C13_19 
REMARK   12  A    between atoms: C13_19  and  O4_20 
REMARK   13  A    between atoms: O4_20  and  P1_21 
REMARK   14  A    between atoms: P1_21  and  O6_23 
REMARK   15  A    between atoms: P1_21  and  O7_24 
REMARK   16  A    between atoms: O7_24  and  P2_25 
REMARK   17  A    between atoms: P2_25  and  O9_27 
REMARK   18  A    between atoms: P2_25  and  O10_28 
REMARK   19  A    between atoms: O10_28  and  C14_29 
REMARK   20  A    between atoms: C14_29  and  C15_30 
REMARK   21  A    between atoms: C16_31  and  O13_49 
REMARK   22  A    between atoms: C17_32  and  O12_48 
REMARK   23  A    between atoms: C18_33  and  N3_35 
REMARK   24  A    between atoms: C21_40  and  N7_47 
REMARK   25  A    between atoms: O13_49  and  P3_50 
REMARK   26  A    between atoms: P3_50  and  O15_52 
REMARK   27  A    between atoms: P3_50  and  O16_53 
ROOT
HETATM    1  C1  UNL     1      -8.911  11.266  -9.068  1.00  0.00     0.104 C 
HETATM    2  C2  UNL     1      -8.400  11.624  -7.706  1.00  0.00     0.182 C 
HETATM    3  O1  UNL     1      -7.815  12.676  -7.460  1.00  0.00    -0.286 OA
ENDROOT
BRANCH   2   4
HETATM    4  S1  UNL     1      -8.670  10.390  -6.483  1.00  0.00    -0.091 SA
BRANCH   4   5
HETATM    5  C3  UNL     1      -7.029  10.354  -5.691  1.00  0.00     0.102 C 
BRANCH   5   6
HETATM    6  C4  UNL     1      -6.290   9.044  -5.971  1.00  0.00     0.133 C 
BRANCH   6   7
HETATM    7  N1  UNL     1      -4.878   9.121  -5.657  1.00  0.00    -0.360 N 
HETATM    8  C5  UNL     1      -3.915   9.071  -6.638  1.00  0.00     0.219 C 
HETATM    9  O2  UNL     1      -4.183   8.879  -7.818  1.00  0.00    -0.274 OA
HETATM   10  H8  UNL     1      -4.599   9.221  -4.690  1.00  0.00     0.162 HD
BRANCH   8  11
HETATM   11  C6  UNL     1      -2.507   9.223  -6.103  1.00  0.00     0.122 C 
BRANCH  11  12
HETATM   12  C7  UNL     1      -2.228   8.263  -4.947  1.00  0.00     0.132 C 
BRANCH  12  13
HETATM   13  N2  UNL     1      -2.290   6.870  -5.339  1.00  0.00    -0.358 N 
HETATM   14  C8  UNL     1      -2.963   5.954  -4.551  1.00  0.00     0.247 C 
HETATM   15  O3  UNL     1      -3.422   6.250  -3.455  1.00  0.00    -0.271 OA
HETATM   16  H13 UNL     1      -2.269   6.696  -6.341  1.00  0.00     0.162 HD
BRANCH  14  17
HETATM   17  C9  UNL     1      -3.103   4.555  -5.168  1.00  0.00     0.219 C 
BRANCH  17  18
HETATM   18  C10 UNL     1      -4.418   4.330  -5.960  1.00  0.00     0.009 C 
HETATM   19  C11 UNL     1      -5.495   5.363  -5.598  1.00  0.00     0.020 C 
HETATM   20  C12 UNL     1      -4.181   4.405  -7.482  1.00  0.00     0.020 C 
BRANCH  18  21
HETATM   21  C13 UNL     1      -4.910   2.906  -5.576  1.00  0.00     0.192 C 
BRANCH  21  22
HETATM   22  O4  UNL     1      -3.847   2.049  -5.209  1.00  0.00    -0.296 OA
BRANCH  22  23
HETATM   23  P1  UNL     1      -3.437   0.756  -6.064  1.00  0.00     0.401 P 
HETATM   24  O5  UNL     1      -3.574   0.931  -7.543  1.00  0.00    -0.631 OA
BRANCH  23  25
HETATM   25  O6  UNL     1      -4.285  -0.479  -5.475  1.00  0.00    -0.307 OA
HETATM   26  H23 UNL     1      -4.688  -0.267  -4.623  1.00  0.00     0.222 HD
ENDBRANCH  23  25
BRANCH  23  27
HETATM   27  O7  UNL     1      -1.970   0.387  -5.571  1.00  0.00    -0.195 OA
BRANCH  27  28
HETATM   28  P2  UNL     1      -1.612   0.551  -4.028  1.00  0.00     0.401 P 
HETATM   29  O8  UNL     1      -1.050   1.868  -3.599  1.00  0.00    -0.631 OA
BRANCH  28  30
HETATM   30  O9  UNL     1      -2.971   0.153  -3.291  1.00  0.00    -0.307 OA
HETATM   31  H24 UNL     1      -3.636   0.883  -3.248  1.00  0.00     0.222 HD
ENDBRANCH  28  30
BRANCH  28  32
HETATM   32  O10 UNL     1      -0.715  -0.729  -3.701  1.00  0.00    -0.294 OA
BRANCH  32  33
HETATM   33  C14 UNL     1       0.684  -0.646  -3.781  1.00  0.00     0.215 C 
BRANCH  33  34
HETATM   34  C15 UNL     1       1.080  -1.355  -5.075  1.00  0.00     0.180 C 
HETATM   35  C16 UNL     1       0.346  -2.686  -5.179  1.00  0.00     0.197 C 
HETATM   36  C17 UNL     1       1.444  -3.732  -5.183  1.00  0.00     0.199 C 
HETATM   37  C18 UNL     1       2.639  -2.944  -5.726  1.00  0.00     0.262 C 
HETATM   38  O11 UNL     1       2.484  -1.625  -5.158  1.00  0.00    -0.353 OA
BRANCH  35  39
HETATM   39  O13 UNL     1      -0.399  -2.685  -6.393  1.00  0.00    -0.286 OA
BRANCH  39  40
HETATM   40  P3  UNL     1      -1.937  -3.098  -6.258  1.00  0.00     0.391 P 
HETATM   41  O14 UNL     1      -2.473  -2.980  -4.868  1.00  0.00    -0.632 OA
BRANCH  40  42
HETATM   42  O15 UNL     1      -1.917  -4.553  -6.923  1.00  0.00    -0.307 OA
HETATM   43  H36 UNL     1      -2.559  -5.151  -6.472  1.00  0.00     0.222 HD
ENDBRANCH  40  42
BRANCH  40  44
HETATM   44  O16 UNL     1      -2.605  -2.195  -7.384  1.00  0.00    -0.307 OA
HETATM   45  H37 UNL     1      -2.131  -2.236  -8.229  1.00  0.00     0.222 HD
ENDBRANCH  40  44
ENDBRANCH  39  40
ENDBRANCH  35  39
BRANCH  36  46
HETATM   46  O12 UNL     1       1.029  -4.885  -5.918  1.00  0.00    -0.388 OA
HETATM   47  H35 UNL     1       0.132  -4.679  -6.275  1.00  0.00     0.210 HD
ENDBRANCH  36  46
BRANCH  37  48
HETATM   48  N3  UNL     1       3.909  -3.491  -5.295  1.00  0.00    -0.297 N 
HETATM   49  C19 UNL     1       4.116  -4.643  -4.573  1.00  0.00     0.188 A 
HETATM   50  N4  UNL     1       5.393  -4.933  -4.451  1.00  0.00    -0.346 N 
HETATM   51  C20 UNL     1       6.047  -3.922  -5.132  1.00  0.00     0.116 A 
HETATM   52  H4  UNL     1       5.809  -5.726  -3.963  1.00  0.00     0.167 HD
HETATM   53  C21 UNL     1       7.404  -3.679  -5.405  1.00  0.00     0.109 A 
HETATM   54  C23 UNL     1       5.141  -3.000  -5.626  1.00  0.00     0.142 A 
HETATM   55  N5  UNL     1       7.737  -2.568  -6.106  1.00  0.00    -0.341 N 
HETATM   56  C22 UNL     1       6.747  -1.745  -6.505  1.00  0.00     0.183 A 
HETATM   57  H5  UNL     1       8.711  -2.361  -6.326  1.00  0.00     0.167 HD
HETATM   58  N6  UNL     1       5.419  -1.877  -6.312  1.00  0.00    -0.336 N 
HETATM   59  H6  UNL     1       4.718  -1.214  -6.642  1.00  0.00     0.168 HD
BRANCH  53  60
HETATM   60  N7  UNL     1       8.427  -4.514  -4.984  1.00  0.00    -0.287 NA
HETATM   61  H33 UNL     1       8.984  -4.907  -5.739  1.00  0.00     0.125 HD
HETATM   62  H34 UNL     1       8.142  -5.149  -4.251  1.00  0.00     0.125 HD
ENDBRANCH  53  60
ENDBRANCH  37  48
ENDBRANCH  33  34
ENDBRANCH  32  33
ENDBRANCH  28  32
ENDBRANCH  27  28
ENDBRANCH  23  27
ENDBRANCH  22  23
ENDBRANCH  21  22
ENDBRANCH  18  21
ENDBRANCH  17  18
BRANCH  17  63
HETATM   63  O17 UNL     1      -1.998   4.286  -6.037  1.00  0.00    -0.385 OA
HETATM   64  H38 UNL     1      -2.022   3.343  -6.273  1.00  0.00     0.210 HD
ENDBRANCH  17  63
ENDBRANCH  14  17
ENDBRANCH  12  13
ENDBRANCH  11  12
ENDBRANCH   8  11
ENDBRANCH   6   7
ENDBRANCH   5   6
ENDBRANCH   4   5
ENDBRANCH   2   4
TORSDOF 27
ENDMDL
MODEL 8
REMARK VINA RESULT:      -6.7      1.879      2.346
REMARK  27 active torsions:
REMARK  status: ('A' for Active; 'I' for Inactive)
REMARK    1  A    between atoms: C2_2  and  S1_4 
REMARK    2  A    between atoms: S1_4  and  C3_5 
REMARK    3  A    between atoms: C3_5  and  C4_6 
REMARK    4  A    between atoms: C4_6  and  N1_7 
REMARK       I    between atoms: N1_7  and  C5_8 
REMARK    5  A    between atoms: C5_8  and  C6_10 
REMARK    6  A    between atoms: C6_10  and  C7_11 
REMARK    7  A    between atoms: C7_11  and  N2_12 
REMARK       I    between atoms: N2_12  and  C8_13 
REMARK    8  A    between atoms: C8_13  and  C9_15 
REMARK    9  A    between atoms: C9_15  and  C10_16 
REMARK   10  A    between atoms: C9_15  and  O17_54 
REMARK   11  A    between atoms: C10_16  and  C13_19 
REMARK   12  A    between atoms: C13_19  and  O4_20 
REMARK   13  A    between atoms: O4_20  and  P1_21 
REMARK   14  A    between atoms: P1_21  and  O6_23 
REMARK   15  A    between atoms: P1_21  and  O7_24 
REMARK   16  A    between atoms: O7_24  and  P2_25 
REMARK   17  A    between atoms: P2_25  and  O9_27 
REMARK   18  A    between atoms: P2_25  and  O10_28 
REMARK   19  A    between atoms: O10_28  and  C14_29 
REMARK   20  A    between atoms: C14_29  and  C15_30 
REMARK   21  A    between atoms: C16_31  and  O13_49 
REMARK   22  A    between atoms: C17_32  and  O12_48 
REMARK   23  A    between atoms: C18_33  and  N3_35 
REMARK   24  A    between atoms: C21_40  and  N7_47 
REMARK   25  A    between atoms: O13_49  and  P3_50 
REMARK   26  A    between atoms: P3_50  and  O15_52 
REMARK   27  A    between atoms: P3_50  and  O16_53 
ROOT
HETATM    1  C1  UNL     1      -8.625   8.066  -3.772  1.00  0.00     0.104 C 
HETATM    2  C2  UNL     1      -8.436   9.161  -4.778  1.00  0.00     0.182 C 
HETATM    3  O1  UNL     1      -8.044  10.287  -4.483  1.00  0.00    -0.286 OA
ENDROOT
BRANCH   2   4
HETATM    4  S1  UNL     1      -8.861   8.713  -6.424  1.00  0.00    -0.091 SA
BRANCH   4   5
HETATM    5  C3  UNL     1      -9.563   7.056  -6.138  1.00  0.00     0.102 C 
BRANCH   5   6
HETATM    6  C4  UNL     1      -9.378   6.142  -7.352  1.00  0.00     0.133 C 
BRANCH   6   7
HETATM    7  N1  UNL     1      -8.070   5.522  -7.391  1.00  0.00    -0.360 N 
HETATM    8  C5  UNL     1      -7.860   4.246  -6.921  1.00  0.00     0.219 C 
HETATM    9  O2  UNL     1      -8.739   3.592  -6.372  1.00  0.00    -0.274 OA
HETATM   10  H8  UNL     1      -7.296   6.042  -7.781  1.00  0.00     0.162 HD
BRANCH   8  11
HETATM   11  C6  UNL     1      -6.436   3.767  -7.106  1.00  0.00     0.122 C 
BRANCH  11  12
HETATM   12  C7  UNL     1      -5.745   4.468  -8.274  1.00  0.00     0.132 C 
BRANCH  12  13
HETATM   13  N2  UNL     1      -4.737   5.417  -7.850  1.00  0.00    -0.358 N 
HETATM   14  C8  UNL     1      -4.925   6.772  -8.056  1.00  0.00     0.247 C 
HETATM   15  O3  UNL     1      -5.872   7.208  -8.698  1.00  0.00    -0.271 OA
HETATM   16  H13 UNL     1      -4.190   5.141  -7.038  1.00  0.00     0.162 HD
BRANCH  14  17
HETATM   17  C9  UNL     1      -3.869   7.675  -7.403  1.00  0.00     0.219 C 
BRANCH  17  18
HETATM   18  C10 UNL     1      -4.321   8.337  -6.075  1.00  0.00     0.009 C 
HETATM   19  C11 UNL     1      -5.068   9.657  -6.311  1.00  0.00     0.020 C 
HETATM   20  C12 UNL     1      -5.247   7.405  -5.267  1.00  0.00     0.020 C 
BRANCH  18  21
HETATM   21  C13 UNL     1      -3.018   8.610  -5.269  1.00  0.00     0.192 C 
BRANCH  21  22
HETATM   22  O4  UNL     1      -2.673   7.532  -4.423  1.00  0.00    -0.296 OA
BRANCH  22  23
HETATM   23  P1  UNL     1      -1.167   7.008  -4.252  1.00  0.00     0.401 P 
HETATM   24  O5  UNL     1      -0.658   7.056  -2.846  1.00  0.00    -0.631 OA
BRANCH  23  25
HETATM   25  O6  UNL     1      -0.265   7.834  -5.298  1.00  0.00    -0.307 OA
HETATM   26  H23 UNL     1       0.343   7.262  -5.783  1.00  0.00     0.222 HD
ENDBRANCH  23  25
BRANCH  23  27
HETATM   27  O7  UNL     1      -1.158   5.561  -4.913  1.00  0.00    -0.195 OA
BRANCH  27  28
HETATM   28  P2  UNL     1      -1.705   4.325  -4.068  1.00  0.00     0.401 P 
HETATM   29  O8  UNL     1      -0.938   3.950  -2.843  1.00  0.00    -0.631 OA
BRANCH  28  30
HETATM   30  O9  UNL     1      -3.227   4.718  -3.788  1.00  0.00    -0.307 OA
HETATM   31  H24 UNL     1      -3.772   3.983  -3.415  1.00  0.00     0.222 HD
ENDBRANCH  28  30
BRANCH  28  32
HETATM   32  O10 UNL     1      -1.895   3.169  -5.153  1.00  0.00    -0.294 OA
BRANCH  32  33
HETATM   33  C14 UNL     1      -3.103   3.061  -5.860  1.00  0.00     0.215 C 
BRANCH  33  34
HETATM   34  C15 UNL     1      -3.467   1.578  -5.860  1.00  0.00     0.180 C 
HETATM   35  C16 UNL     1      -4.113   1.206  -4.532  1.00  0.00     0.197 C 
HETATM   36  C17 UNL     1      -3.177   0.180  -3.922  1.00  0.00     0.199 C 
HETATM   37  C18 UNL     1      -2.489  -0.405  -5.158  1.00  0.00     0.262 C 
HETATM   38  O11 UNL     1      -2.332   0.724  -6.046  1.00  0.00    -0.353 OA
BRANCH  35  39
HETATM   39  O13 UNL     1      -5.400   0.661  -4.805  1.00  0.00    -0.286 OA
BRANCH  39  40
HETATM   40  P3  UNL     1      -6.579   1.166  -3.851  1.00  0.00     0.391 P 
HETATM   41  O14 UNL     1      -6.225   2.372  -3.042  1.00  0.00    -0.632 OA
BRANCH  40  42
HETATM   42  O15 UNL     1      -6.923  -0.181  -3.061  1.00  0.00    -0.307 OA
HETATM   43  H36 UNL     1      -6.704  -0.090  -2.103  1.00  0.00     0.222 HD
ENDBRANCH  40  42
BRANCH  40  44
HETATM   44  O16 UNL     1      -7.784   1.299  -4.881  1.00  0.00    -0.307 OA
HETATM   45  H37 UNL     1      -7.965   2.219  -5.132  1.00  0.00     0.222 HD
ENDBRANCH  40  44
ENDBRANCH  39  40
ENDBRANCH  35  39
BRANCH  36  46
HETATM   46  O12 UNL     1      -3.906  -0.723  -3.087  1.00  0.00    -0.388 OA
HETATM   47  H35 UNL     1      -3.495  -1.611  -3.213  1.00  0.00     0.210 HD
ENDBRANCH  36  46
BRANCH  37  48
HETATM   48  N3  UNL     1      -1.179  -0.950  -4.860  1.00  0.00    -0.297 N 
HETATM   49  C19 UNL     1      -0.249  -0.444  -3.983  1.00  0.00     0.188 A 
HETATM   50  N4  UNL     1       0.789  -1.241  -3.844  1.00  0.00    -0.346 N 
HETATM   51  C20 UNL     1       0.515  -2.318  -4.668  1.00  0.00     0.116 A 
HETATM   52  H4  UNL     1       1.612  -1.097  -3.258  1.00  0.00     0.167 HD
HETATM   53  C21 UNL     1       1.202  -3.516  -4.931  1.00  0.00     0.109 A 
HETATM   54  C23 UNL     1      -0.683  -2.132  -5.334  1.00  0.00     0.142 A 
HETATM   55  N5  UNL     1       0.668  -4.389  -5.818  1.00  0.00    -0.341 N 
HETATM   56  C22 UNL     1      -0.498  -4.064  -6.411  1.00  0.00     0.183 A 
HETATM   57  H5  UNL     1       1.136  -5.270  -6.032  1.00  0.00     0.167 HD
HETATM   58  N6  UNL     1      -1.248  -2.957  -6.233  1.00  0.00    -0.336 N 
HETATM   59  H6  UNL     1      -2.127  -2.770  -6.716  1.00  0.00     0.168 HD
BRANCH  53  60
HETATM   60  N7  UNL     1       2.409  -3.848  -4.335  1.00  0.00    -0.287 NA
HETATM   61  H33 UNL     1       2.613  -3.330  -3.484  1.00  0.00     0.125 HD
HETATM   62  H34 UNL     1       3.163  -3.946  -5.001  1.00  0.00     0.125 HD
ENDBRANCH  53  60
ENDBRANCH  37  48
ENDBRANCH  33  34
ENDBRANCH  32  33
ENDBRANCH  28  32
ENDBRANCH  27  28
ENDBRANCH  23  27
ENDBRANCH  22  23
ENDBRANCH  21  22
ENDBRANCH  18  21
ENDBRANCH  17  18
BRANCH  17  63
HETATM   63  O17 UNL     1      -2.669   6.933  -7.156  1.00  0.00    -0.385 OA
HETATM   64  H38 UNL     1      -2.084   7.041  -7.924  1.00  0.00     0.210 HD
ENDBRANCH  17  63
ENDBRANCH  14  17
ENDBRANCH  12  13
ENDBRANCH  11  12
ENDBRANCH   8  11
ENDBRANCH   6   7
ENDBRANCH   5   6
ENDBRANCH   4   5
ENDBRANCH   2   4
TORSDOF 27
ENDMDL
MODEL 9
REMARK VINA RESULT:      -6.7      3.314      5.347
REMARK  27 active torsions:
REMARK  status: ('A' for Active; 'I' for Inactive)
REMARK    1  A    between atoms: C2_2  and  S1_4 
REMARK    2  A    between atoms: S1_4  and  C3_5 
REMARK    3  A    between atoms: C3_5  and  C4_6 
REMARK    4  A    between atoms: C4_6  and  N1_7 
REMARK       I    between atoms: N1_7  and  C5_8 
REMARK    5  A    between atoms: C5_8  and  C6_10 
REMARK    6  A    between atoms: C6_10  and  C7_11 
REMARK    7  A    between atoms: C7_11  and  N2_12 
REMARK       I    between atoms: N2_12  and  C8_13 
REMARK    8  A    between atoms: C8_13  and  C9_15 
REMARK    9  A    between atoms: C9_15  and  C10_16 
REMARK   10  A    between atoms: C9_15  and  O17_54 
REMARK   11  A    between atoms: C10_16  and  C13_19 
REMARK   12  A    between atoms: C13_19  and  O4_20 
REMARK   13  A    between atoms: O4_20  and  P1_21 
REMARK   14  A    between atoms: P1_21  and  O6_23 
REMARK   15  A    between atoms: P1_21  and  O7_24 
REMARK   16  A    between atoms: O7_24  and  P2_25 
REMARK   17  A    between atoms: P2_25  and  O9_27 
REMARK   18  A    between atoms: P2_25  and  O10_28 
REMARK   19  A    between atoms: O10_28  and  C14_29 
REMARK   20  A    between atoms: C14_29  and  C15_30 
REMARK   21  A    between atoms: C16_31  and  O13_49 
REMARK   22  A    between atoms: C17_32  and  O12_48 
REMARK   23  A    between atoms: C18_33  and  N3_35 
REMARK   24  A    between atoms: C21_40  and  N7_47 
REMARK   25  A    between atoms: O13_49  and  P3_50 
REMARK   26  A    between atoms: P3_50  and  O15_52 
REMARK   27  A    between atoms: P3_50  and  O16_53 
ROOT
HETATM    1  C1  UNL     1     -10.134   8.388  -9.847  1.00  0.00     0.104 C 
HETATM    2  C2  UNL     1      -9.155   9.304  -9.178  1.00  0.00     0.182 C 
HETATM    3  O1  UNL     1      -8.005   8.975  -8.898  1.00  0.00    -0.286 OA
ENDROOT
BRANCH   2   4
HETATM    4  S1  UNL     1      -9.801  10.892  -8.784  1.00  0.00    -0.091 SA
BRANCH   4   5
HETATM    5  C3  UNL     1      -8.314  11.682  -8.088  1.00  0.00     0.102 C 
BRANCH   5   6
HETATM    6  C4  UNL     1      -8.656  12.610  -6.920  1.00  0.00     0.133 C 
BRANCH   6   7
HETATM    7  N1  UNL     1      -8.569  11.947  -5.635  1.00  0.00    -0.360 N 
HETATM    8  C5  UNL     1      -8.240  12.631  -4.489  1.00  0.00     0.219 C 
HETATM    9  O2  UNL     1      -7.923  13.815  -4.494  1.00  0.00    -0.274 OA
HETATM   10  H8  UNL     1      -8.765  10.956  -5.585  1.00  0.00     0.162 HD
BRANCH   8  11
HETATM   11  C6  UNL     1      -8.260  11.765  -3.248  1.00  0.00     0.122 C 
BRANCH  11  12
HETATM   12  C7  UNL     1      -9.117  10.514  -3.438  1.00  0.00     0.132 C 
BRANCH  12  13
HETATM   13  N2  UNL     1      -8.335   9.299  -3.535  1.00  0.00    -0.358 N 
HETATM   14  C8  UNL     1      -8.314   8.576  -4.713  1.00  0.00     0.247 C 
HETATM   15  O3  UNL     1      -9.033   8.858  -5.664  1.00  0.00    -0.271 OA
HETATM   16  H13 UNL     1      -7.498   9.270  -2.956  1.00  0.00     0.162 HD
BRANCH  14  17
HETATM   17  C9  UNL     1      -7.310   7.414  -4.738  1.00  0.00     0.219 C 
BRANCH  17  18
HETATM   18  C10 UNL     1      -6.045   7.675  -5.597  1.00  0.00     0.009 C 
HETATM   19  C11 UNL     1      -6.064   6.881  -6.912  1.00  0.00     0.020 C 
HETATM   20  C12 UNL     1      -5.898   9.170  -5.946  1.00  0.00     0.020 C 
BRANCH  18  21
HETATM   21  C13 UNL     1      -4.838   7.218  -4.729  1.00  0.00     0.192 C 
BRANCH  21  22
HETATM   22  O4  UNL     1      -4.029   6.265  -5.389  1.00  0.00    -0.296 OA
BRANCH  22  23
HETATM   23  P1  UNL     1      -2.433   6.390  -5.478  1.00  0.00     0.401 P 
HETATM   24  O5  UNL     1      -1.805   7.063  -4.299  1.00  0.00    -0.631 OA
BRANCH  23  25
HETATM   25  O6  UNL     1      -2.100   7.099  -6.884  1.00  0.00    -0.307 OA
HETATM   26  H23 UNL     1      -2.827   7.012  -7.514  1.00  0.00     0.222 HD
ENDBRANCH  23  25
BRANCH  23  27
HETATM   27  O7  UNL     1      -1.920   4.909  -5.749  1.00  0.00    -0.195 OA
BRANCH  27  28
HETATM   28  P2  UNL     1      -1.783   3.904  -4.520  1.00  0.00     0.401 P 
HETATM   29  O8  UNL     1      -0.419   3.729  -3.938  1.00  0.00    -0.631 OA
BRANCH  28  30
HETATM   30  O9  UNL     1      -2.870   4.445  -3.482  1.00  0.00    -0.307 OA
HETATM   31  H24 UNL     1      -2.704   4.173  -2.546  1.00  0.00     0.222 HD
ENDBRANCH  28  30
BRANCH  28  32
HETATM   32  O10 UNL     1      -2.501   2.571  -5.029  1.00  0.00    -0.294 OA
BRANCH  32  33
HETATM   33  C14 UNL     1      -3.712   2.651  -5.734  1.00  0.00     0.215 C 
BRANCH  33  34
HETATM   34  C15 UNL     1      -4.616   1.564  -5.155  1.00  0.00     0.180 C 
HETATM   35  C16 UNL     1      -4.864   1.833  -3.677  1.00  0.00     0.197 C 
HETATM   36  C17 UNL     1      -4.271   0.634  -2.962  1.00  0.00     0.199 C 
HETATM   37  C18 UNL     1      -4.339  -0.450  -4.040  1.00  0.00     0.262 C 
HETATM   38  O11 UNL     1      -4.055   0.251  -5.271  1.00  0.00    -0.353 OA
BRANCH  35  39
HETATM   39  O13 UNL     1      -6.271   1.935  -3.478  1.00  0.00    -0.286 OA
BRANCH  39  40
HETATM   40  P3  UNL     1      -6.920   3.346  -3.856  1.00  0.00     0.391 P 
HETATM   41  O14 UNL     1      -7.429   3.418  -5.260  1.00  0.00    -0.632 OA
BRANCH  40  42
HETATM   42  O15 UNL     1      -5.736   4.340  -3.446  1.00  0.00    -0.307 OA
HETATM   43  H36 UNL     1      -6.082   5.252  -3.297  1.00  0.00     0.222 HD
ENDBRANCH  40  42
BRANCH  40  44
HETATM   44  O16 UNL     1      -7.974   3.533  -2.681  1.00  0.00    -0.307 OA
HETATM   45  H37 UNL     1      -8.889   3.386  -2.968  1.00  0.00     0.222 HD
ENDBRANCH  40  44
ENDBRANCH  39  40
ENDBRANCH  35  39
BRANCH  36  46
HETATM   46  O12 UNL     1      -4.970   0.390  -1.739  1.00  0.00    -0.388 OA
HETATM   47  H35 UNL     1      -5.908   0.207  -1.987  1.00  0.00     0.210 HD
ENDBRANCH  36  46
BRANCH  37  48
HETATM   48  N3  UNL     1      -3.342  -1.485  -3.852  1.00  0.00    -0.297 N 
HETATM   49  C19 UNL     1      -3.558  -2.840  -3.760  1.00  0.00     0.188 A 
HETATM   50  N4  UNL     1      -2.435  -3.523  -3.719  1.00  0.00    -0.346 N 
HETATM   51  C20 UNL     1      -1.441  -2.563  -3.793  1.00  0.00     0.116 A 
HETATM   52  H4  UNL     1      -2.321  -4.534  -3.649  1.00  0.00     0.167 HD
HETATM   53  C21 UNL     1      -0.038  -2.645  -3.838  1.00  0.00     0.109 A 
HETATM   54  C23 UNL     1      -1.989  -1.294  -3.836  1.00  0.00     0.142 A 
HETATM   55  N5  UNL     1       0.677  -1.495  -3.900  1.00  0.00    -0.341 N 
HETATM   56  C22 UNL     1       0.007  -0.326  -3.912  1.00  0.00     0.183 A 
HETATM   57  H5  UNL     1       1.696  -1.515  -3.938  1.00  0.00     0.167 HD
HETATM   58  N6  UNL     1      -1.326  -0.125  -3.882  1.00  0.00    -0.336 N 
HETATM   59  H6  UNL     1      -1.773   0.793  -3.893  1.00  0.00     0.168 HD
BRANCH  53  60
HETATM   60  N7  UNL     1       0.656  -3.844  -3.812  1.00  0.00    -0.287 NA
HETATM   61  H33 UNL     1       1.481  -3.837  -3.215  1.00  0.00     0.125 HD
HETATM   62  H34 UNL     1       0.760  -4.260  -4.727  1.00  0.00     0.125 HD
ENDBRANCH  53  60
ENDBRANCH  37  48
ENDBRANCH  33  34
ENDBRANCH  32  33
ENDBRANCH  28  32
ENDBRANCH  27  28
ENDBRANCH  23  27
ENDBRANCH  22  23
ENDBRANCH  21  22
ENDBRANCH  18  21
ENDBRANCH  17  18
BRANCH  17  63
HETATM   63  O17 UNL     1      -6.897   7.091  -3.406  1.00  0.00    -0.385 OA
HETATM   64  H38 UNL     1      -7.196   7.803  -2.816  1.00  0.00     0.210 HD
ENDBRANCH  17  63
ENDBRANCH  14  17
ENDBRANCH  12  13
ENDBRANCH  11  12
ENDBRANCH   8  11
ENDBRANCH   6   7
ENDBRANCH   5   6
ENDBRANCH   4   5
ENDBRANCH   2   4
TORSDOF 27
ENDMDL
MODEL 10
REMARK VINA RESULT:      -6.7      2.821      3.775
REMARK  27 active torsions:
REMARK  status: ('A' for Active; 'I' for Inactive)
REMARK    1  A    between atoms: C2_2  and  S1_4 
REMARK    2  A    between atoms: S1_4  and  C3_5 
REMARK    3  A    between atoms: C3_5  and  C4_6 
REMARK    4  A    between atoms: C4_6  and  N1_7 
REMARK       I    between atoms: N1_7  and  C5_8 
REMARK    5  A    between atoms: C5_8  and  C6_10 
REMARK    6  A    between atoms: C6_10  and  C7_11 
REMARK    7  A    between atoms: C7_11  and  N2_12 
REMARK       I    between atoms: N2_12  and  C8_13 
REMARK    8  A    between atoms: C8_13  and  C9_15 
REMARK    9  A    between atoms: C9_15  and  C10_16 
REMARK   10  A    between atoms: C9_15  and  O17_54 
REMARK   11  A    between atoms: C10_16  and  C13_19 
REMARK   12  A    between atoms: C13_19  and  O4_20 
REMARK   13  A    between atoms: O4_20  and  P1_21 
REMARK   14  A    between atoms: P1_21  and  O6_23 
REMARK   15  A    between atoms: P1_21  and  O7_24 
REMARK   16  A    between atoms: O7_24  and  P2_25 
REMARK   17  A    between atoms: P2_25  and  O9_27 
REMARK   18  A    between atoms: P2_25  and  O10_28 
REMARK   19  A    between atoms: O10_28  and  C14_29 
REMARK   20  A    between atoms: C14_29  and  C15_30 
REMARK   21  A    between atoms: C16_31  and  O13_49 
REMARK   22  A    between atoms: C17_32  and  O12_48 
REMARK   23  A    between atoms: C18_33  and  N3_35 
REMARK   24  A    between atoms: C21_40  and  N7_47 
REMARK   25  A    between atoms: O13_49  and  P3_50 
REMARK   26  A    between atoms: P3_50  and  O15_52 
REMARK   27  A    between atoms: P3_50  and  O16_53 
ROOT
HETATM    1  C1  UNL     1      -9.909   1.238  -9.954  1.00  0.00     0.104 C 
HETATM    2  C2  UNL     1     -10.118   1.357 -11.433  1.00  0.00     0.182 C 
HETATM    3  O1  UNL     1     -11.123   0.947 -12.007  1.00  0.00    -0.286 OA
ENDROOT
BRANCH   2   4
HETATM    4  S1  UNL     1      -8.779   2.102 -12.297  1.00  0.00    -0.091 SA
BRANCH   4   5
HETATM    5  C3  UNL     1      -9.343   3.834 -12.336  1.00  0.00     0.102 C 
BRANCH   5   6
HETATM    6  C4  UNL     1      -8.359   4.770 -11.632  1.00  0.00     0.133 C 
BRANCH   6   7
HETATM    7  N1  UNL     1      -7.557   4.091 -10.635  1.00  0.00    -0.360 N 
HETATM    8  C5  UNL     1      -7.816   4.215  -9.290  1.00  0.00     0.219 C 
HETATM    9  O2  UNL     1      -8.682   4.963  -8.851  1.00  0.00    -0.274 OA
HETATM   10  H8  UNL     1      -6.791   3.507 -10.943  1.00  0.00     0.162 HD
BRANCH   8  11
HETATM   11  C6  UNL     1      -6.897   3.381  -8.423  1.00  0.00     0.122 C 
BRANCH  11  12
HETATM   12  C7  UNL     1      -5.660   4.164  -7.985  1.00  0.00     0.132 C 
BRANCH  12  13
HETATM   13  N2  UNL     1      -5.945   5.549  -7.674  1.00  0.00    -0.358 N 
HETATM   14  C8  UNL     1      -4.958   6.509  -7.796  1.00  0.00     0.247 C 
HETATM   15  O3  UNL     1      -3.796   6.219  -8.052  1.00  0.00    -0.271 OA
HETATM   16  H13 UNL     1      -6.906   5.846  -7.836  1.00  0.00     0.162 HD
BRANCH  14  17
HETATM   17  C9  UNL     1      -5.438   7.955  -7.608  1.00  0.00     0.219 C 
BRANCH  17  18
HETATM   18  C10 UNL     1      -5.469   8.435  -6.133  1.00  0.00     0.009 C 
HETATM   19  C11 UNL     1      -6.049   9.851  -5.997  1.00  0.00     0.020 C 
HETATM   20  C12 UNL     1      -6.308   7.491  -5.248  1.00  0.00     0.020 C 
BRANCH  18  21
HETATM   21  C13 UNL     1      -3.989   8.429  -5.651  1.00  0.00     0.192 C 
BRANCH  21  22
HETATM   22  O4  UNL     1      -3.748   7.442  -4.669  1.00  0.00    -0.296 OA
BRANCH  22  23
HETATM   23  P1  UNL     1      -2.346   6.677  -4.530  1.00  0.00     0.401 P 
HETATM   24  O5  UNL     1      -1.284   7.466  -3.830  1.00  0.00    -0.631 OA
BRANCH  23  25
HETATM   25  O6  UNL     1      -1.929   6.196  -6.008  1.00  0.00    -0.307 OA
HETATM   26  H23 UNL     1      -1.251   6.764  -6.396  1.00  0.00     0.222 HD
ENDBRANCH  23  25
BRANCH  23  27
HETATM   27  O7  UNL     1      -2.702   5.287  -3.842  1.00  0.00    -0.195 OA
BRANCH  27  28
HETATM   28  P2  UNL     1      -1.682   4.072  -3.986  1.00  0.00     0.401 P 
HETATM   29  O8  UNL     1      -0.242   4.418  -4.184  1.00  0.00    -0.631 OA
BRANCH  28  30
HETATM   30  O9  UNL     1      -1.968   3.196  -2.682  1.00  0.00    -0.307 OA
HETATM   31  H24 UNL     1      -1.342   2.442  -2.557  1.00  0.00     0.222 HD
ENDBRANCH  28  30
BRANCH  28  32
HETATM   32  O10 UNL     1      -2.338   3.148  -5.111  1.00  0.00    -0.294 OA
BRANCH  32  33
HETATM   33  C14 UNL     1      -3.725   2.930  -5.119  1.00  0.00     0.215 C 
BRANCH  33  34
HETATM   34  C15 UNL     1      -3.918   1.418  -5.229  1.00  0.00     0.180 C 
HETATM   35  C16 UNL     1      -4.372   0.858  -3.888  1.00  0.00     0.197 C 
HETATM   36  C17 UNL     1      -3.266  -0.095  -3.476  1.00  0.00     0.199 C 
HETATM   37  C18 UNL     1      -2.655  -0.484  -4.825  1.00  0.00     0.262 C 
HETATM   38  O11 UNL     1      -2.722   0.728  -5.609  1.00  0.00    -0.353 OA
BRANCH  35  39
HETATM   39  O13 UNL     1      -5.612   0.187  -4.086  1.00  0.00    -0.286 OA
BRANCH  39  40
HETATM   40  P3  UNL     1      -6.921   1.077  -3.859  1.00  0.00     0.391 P 
HETATM   41  O14 UNL     1      -6.698   2.261  -2.976  1.00  0.00    -0.632 OA
BRANCH  40  42
HETATM   42  O15 UNL     1      -7.956  -0.036  -3.360  1.00  0.00    -0.307 OA
HETATM   43  H36 UNL     1      -8.799   0.018  -3.870  1.00  0.00     0.222 HD
ENDBRANCH  40  42
BRANCH  40  44
HETATM   44  O16 UNL     1      -7.379   1.351  -5.357  1.00  0.00    -0.307 OA
HETATM   45  H37 UNL     1      -6.951   2.131  -5.745  1.00  0.00     0.222 HD
ENDBRANCH  40  44
ENDBRANCH  39  40
ENDBRANCH  35  39
BRANCH  36  46
HETATM   46  O12 UNL     1      -3.795  -1.149  -2.667  1.00  0.00    -0.388 OA
HETATM   47  H35 UNL     1      -3.530  -0.946  -1.738  1.00  0.00     0.210 HD
ENDBRANCH  36  46
BRANCH  37  48
HETATM   48  N3  UNL     1      -1.269  -0.890  -4.712  1.00  0.00    -0.297 N 
HETATM   49  C19 UNL     1      -0.289  -0.300  -3.948  1.00  0.00     0.188 A 
HETATM   50  N4  UNL     1       0.835  -0.982  -3.963  1.00  0.00    -0.346 N 
HETATM   51  C20 UNL     1       0.569  -2.073  -4.773  1.00  0.00     0.116 A 
HETATM   52  H4  UNL     1       1.707  -0.759  -3.485  1.00  0.00     0.167 HD
HETATM   53  C21 UNL     1       1.337  -3.187  -5.153  1.00  0.00     0.109 A 
HETATM   54  C23 UNL     1      -0.718  -2.007  -5.275  1.00  0.00     0.142 A 
HETATM   55  N5  UNL     1       0.786  -4.102  -5.987  1.00  0.00    -0.341 N 
HETATM   56  C22 UNL     1      -0.475  -3.895  -6.417  1.00  0.00     0.183 A 
HETATM   57  H5  UNL     1       1.311  -4.925  -6.282  1.00  0.00     0.167 HD
HETATM   58  N6  UNL     1      -1.306  -2.876  -6.116  1.00  0.00    -0.336 N 
HETATM   59  H6  UNL     1      -2.255  -2.778  -6.477  1.00  0.00     0.168 HD
BRANCH  53  60
HETATM   60  N7  UNL     1       2.639  -3.397  -4.726  1.00  0.00    -0.287 NA
HETATM   61  H33 UNL     1       2.754  -3.393  -3.715  1.00  0.00     0.125 HD
HETATM   62  H34 UNL     1       3.319  -2.877  -5.264  1.00  0.00     0.125 HD
ENDBRANCH  53  60
ENDBRANCH  37  48
ENDBRANCH  33  34
ENDBRANCH  32  33
ENDBRANCH  28  32
ENDBRANCH  27  28
ENDBRANCH  23  27
ENDBRANCH  22  23
ENDBRANCH  21  22
ENDBRANCH  18  21
ENDBRANCH  17  18
BRANCH  17  63
HETATM   63  O17 UNL     1      -4.612   8.851  -8.360  1.00  0.00    -0.385 OA
HETATM   64  H38 UNL     1      -3.769   8.403  -8.541  1.00  0.00     0.210 HD
ENDBRANCH  17  63
ENDBRANCH  14  17
ENDBRANCH  12  13
ENDBRANCH  11  12
ENDBRANCH   8  11
ENDBRANCH   6   7
ENDBRANCH   5   6
ENDBRANCH   4   5
ENDBRANCH   2   4
TORSDOF 27
ENDMDL
MODEL 11
REMARK VINA RESULT:      -6.6      2.281      2.902
REMARK  27 active torsions:
REMARK  status: ('A' for Active; 'I' for Inactive)
REMARK    1  A    between atoms: C2_2  and  S1_4 
REMARK    2  A    between atoms: S1_4  and  C3_5 
REMARK    3  A    between atoms: C3_5  and  C4_6 
REMARK    4  A    between atoms: C4_6  and  N1_7 
REMARK       I    between atoms: N1_7  and  C5_8 
REMARK    5  A    between atoms: C5_8  and  C6_10 
REMARK    6  A    between atoms: C6_10  and  C7_11 
REMARK    7  A    between atoms: C7_11  and  N2_12 
REMARK       I    between atoms: N2_12  and  C8_13 
REMARK    8  A    between atoms: C8_13  and  C9_15 
REMARK    9  A    between atoms: C9_15  and  C10_16 
REMARK   10  A    between atoms: C9_15  and  O17_54 
REMARK   11  A    between atoms: C10_16  and  C13_19 
REMARK   12  A    between atoms: C13_19  and  O4_20 
REMARK   13  A    between atoms: O4_20  and  P1_21 
REMARK   14  A    between atoms: P1_21  and  O6_23 
REMARK   15  A    between atoms: P1_21  and  O7_24 
REMARK   16  A    between atoms: O7_24  and  P2_25 
REMARK   17  A    between atoms: P2_25  and  O9_27 
REMARK   18  A    between atoms: P2_25  and  O10_28 
REMARK   19  A    between atoms: O10_28  and  C14_29 
REMARK   20  A    between atoms: C14_29  and  C15_30 
REMARK   21  A    between atoms: C16_31  and  O13_49 
REMARK   22  A    between atoms: C17_32  and  O12_48 
REMARK   23  A    between atoms: C18_33  and  N3_35 
REMARK   24  A    between atoms: C21_40  and  N7_47 
REMARK   25  A    between atoms: O13_49  and  P3_50 
REMARK   26  A    between atoms: P3_50  and  O15_52 
REMARK   27  A    between atoms: P3_50  and  O16_53 
ROOT
HETATM    1  C1  UNL     1     -12.319   3.329  -5.862  1.00  0.00     0.104 C 
HETATM    2  C2  UNL     1     -11.859   3.749  -4.499  1.00  0.00     0.182 C 
HETATM    3  O1  UNL     1     -12.227   4.786  -3.953  1.00  0.00    -0.286 OA
ENDROOT
BRANCH   2   4
HETATM    4  S1  UNL     1     -10.709   2.649  -3.751  1.00  0.00    -0.091 SA
BRANCH   4   5
HETATM    5  C3  UNL     1     -10.995   1.153  -4.750  1.00  0.00     0.102 C 
BRANCH   5   6
HETATM    6  C4  UNL     1      -9.706   0.643  -5.396  1.00  0.00     0.133 C 
BRANCH   6   7
HETATM    7  N1  UNL     1      -9.000   1.677  -6.126  1.00  0.00    -0.360 N 
HETATM    8  C5  UNL     1      -9.139   1.827  -7.486  1.00  0.00     0.219 C 
HETATM    9  O2  UNL     1      -9.799   1.054  -8.171  1.00  0.00    -0.274 OA
HETATM   10  H8  UNL     1      -8.395   2.306  -5.615  1.00  0.00     0.162 HD
BRANCH   8  11
HETATM   11  C6  UNL     1      -8.360   2.999  -8.042  1.00  0.00     0.122 C 
BRANCH  11  12
HETATM   12  C7  UNL     1      -7.316   3.513  -7.051  1.00  0.00     0.132 C 
BRANCH  12  13
HETATM   13  N2  UNL     1      -7.177   4.953  -7.069  1.00  0.00    -0.358 N 
HETATM   14  C8  UNL     1      -5.948   5.538  -6.823  1.00  0.00     0.247 C 
HETATM   15  O3  UNL     1      -4.975   4.885  -6.469  1.00  0.00    -0.271 OA
HETATM   16  H13 UNL     1      -7.810   5.447  -7.695  1.00  0.00     0.162 HD
BRANCH  14  17
HETATM   17  C9  UNL     1      -5.901   7.057  -7.047  1.00  0.00     0.219 C 
BRANCH  17  18
HETATM   18  C10 UNL     1      -5.795   7.896  -5.746  1.00  0.00     0.009 C 
HETATM   19  C11 UNL     1      -6.709   9.130  -5.778  1.00  0.00     0.020 C 
HETATM   20  C12 UNL     1      -6.167   7.061  -4.504  1.00  0.00     0.020 C 
BRANCH  18  21
HETATM   21  C13 UNL     1      -4.310   8.347  -5.649  1.00  0.00     0.192 C 
BRANCH  21  22
HETATM   22  O4  UNL     1      -3.484   7.361  -5.063  1.00  0.00    -0.296 OA
BRANCH  22  23
HETATM   23  P1  UNL     1      -1.994   7.059  -5.571  1.00  0.00     0.401 P 
HETATM   24  O5  UNL     1      -0.923   7.689  -4.737  1.00  0.00    -0.631 OA
BRANCH  23  25
HETATM   25  O6  UNL     1      -1.938   7.478  -7.124  1.00  0.00    -0.307 OA
HETATM   26  H23 UNL     1      -2.694   7.137  -7.618  1.00  0.00     0.222 HD
ENDBRANCH  23  25
BRANCH  23  27
HETATM   27  O7  UNL     1      -1.909   5.474  -5.675  1.00  0.00    -0.195 OA
BRANCH  27  28
HETATM   28  P2  UNL     1      -2.004   4.608  -4.341  1.00  0.00     0.401 P 
HETATM   29  O8  UNL     1      -0.887   4.754  -3.359  1.00  0.00    -0.631 OA
BRANCH  28  30
HETATM   30  O9  UNL     1      -3.439   4.992  -3.756  1.00  0.00    -0.307 OA
HETATM   31  H24 UNL     1      -3.490   5.902  -3.375  1.00  0.00     0.222 HD
ENDBRANCH  28  30
BRANCH  28  32
HETATM   32  O10 UNL     1      -2.286   3.125  -4.862  1.00  0.00    -0.294 OA
BRANCH  32  33
HETATM   33  C14 UNL     1      -1.884   2.022  -4.093  1.00  0.00     0.215 C 
BRANCH  33  34
HETATM   34  C15 UNL     1      -2.737   0.843  -4.558  1.00  0.00     0.180 C 
HETATM   35  C16 UNL     1      -3.677   0.415  -3.439  1.00  0.00     0.197 C 
HETATM   36  C17 UNL     1      -3.268  -1.010  -3.118  1.00  0.00     0.199 C 
HETATM   37  C18 UNL     1      -2.639  -1.470  -4.436  1.00  0.00     0.262 C 
HETATM   38  O11 UNL     1      -1.957  -0.298  -4.933  1.00  0.00    -0.353 OA
BRANCH  35  39
HETATM   39  O13 UNL     1      -5.011   0.492  -3.930  1.00  0.00    -0.286 OA
BRANCH  39  40
HETATM   40  P3  UNL     1      -5.812   1.820  -3.541  1.00  0.00     0.391 P 
HETATM   41  O14 UNL     1      -7.289   1.620  -3.422  1.00  0.00    -0.632 OA
BRANCH  40  42
HETATM   42  O15 UNL     1      -5.291   2.826  -4.670  1.00  0.00    -0.307 OA
HETATM   43  H36 UNL     1      -4.383   2.576  -4.967  1.00  0.00     0.222 HD
ENDBRANCH  40  42
BRANCH  40  44
HETATM   44  O16 UNL     1      -5.026   2.294  -2.243  1.00  0.00    -0.307 OA
HETATM   45  H37 UNL     1      -4.160   1.866  -2.150  1.00  0.00     0.222 HD
ENDBRANCH  40  44
ENDBRANCH  39  40
ENDBRANCH  35  39
BRANCH  36  46
HETATM   46  O12 UNL     1      -4.390  -1.752  -2.633  1.00  0.00    -0.388 OA
HETATM   47  H35 UNL     1      -4.900  -1.136  -2.053  1.00  0.00     0.210 HD
ENDBRANCH  36  46
BRANCH  37  48
HETATM   48  N3  UNL     1      -1.668  -2.530  -4.249  1.00  0.00    -0.297 N 
HETATM   49  C19 UNL     1      -1.870  -3.744  -3.635  1.00  0.00     0.188 A 
HETATM   50  N4  UNL     1      -0.825  -4.536  -3.740  1.00  0.00    -0.346 N 
HETATM   51  C20 UNL     1       0.099  -3.800  -4.461  1.00  0.00     0.116 A 
HETATM   52  H4  UNL     1      -0.719  -5.481  -3.372  1.00  0.00     0.167 HD
HETATM   53  C21 UNL     1       1.388  -4.095  -4.937  1.00  0.00     0.109 A 
HETATM   54  C23 UNL     1      -0.395  -2.541  -4.749  1.00  0.00     0.142 A 
HETATM   55  N5  UNL     1       2.062  -3.137  -5.620  1.00  0.00    -0.341 N 
HETATM   56  C22 UNL     1       1.463  -1.944  -5.806  1.00  0.00     0.183 A 
HETATM   57  H5  UNL     1       2.998  -3.315  -5.984  1.00  0.00     0.167 HD
HETATM   58  N6  UNL     1       0.236  -1.552  -5.406  1.00  0.00    -0.336 N 
HETATM   59  H6  UNL     1      -0.161  -0.629  -5.580  1.00  0.00     0.168 HD
BRANCH  53  60
HETATM   60  N7  UNL     1       2.015  -5.314  -4.737  1.00  0.00    -0.287 NA
HETATM   61  H33 UNL     1       1.843  -5.999  -5.469  1.00  0.00     0.125 HD
HETATM   62  H34 UNL     1       1.946  -5.641  -3.782  1.00  0.00     0.125 HD
ENDBRANCH  53  60
ENDBRANCH  37  48
ENDBRANCH  33  34
ENDBRANCH  32  33
ENDBRANCH  28  32
ENDBRANCH  27  28
ENDBRANCH  23  27
ENDBRANCH  22  23
ENDBRANCH  21  22
ENDBRANCH  18  21
ENDBRANCH  17  18
BRANCH  17  63
HETATM   63  O17 UNL     1      -4.799   7.396  -7.897  1.00  0.00    -0.385 OA
HETATM   64  H38 UNL     1      -4.283   8.093  -7.459  1.00  0.00     0.210 HD
ENDBRANCH  17  63
ENDBRANCH  14  17
ENDBRANCH  12  13
ENDBRANCH  11  12
ENDBRANCH   8  11
ENDBRANCH   6   7
ENDBRANCH   5   6
ENDBRANCH   4   5
ENDBRANCH   2   4
TORSDOF 27
ENDMDL
MODEL 12
REMARK VINA RESULT:      -6.5      3.305      4.704
REMARK  27 active torsions:
REMARK  status: ('A' for Active; 'I' for Inactive)
REMARK    1  A    between atoms: C2_2  and  S1_4 
REMARK    2  A    between atoms: S1_4  and  C3_5 
REMARK    3  A    between atoms: C3_5  and  C4_6 
REMARK    4  A    between atoms: C4_6  and  N1_7 
REMARK       I    between atoms: N1_7  and  C5_8 
REMARK    5  A    between atoms: C5_8  and  C6_10 
REMARK    6  A    between atoms: C6_10  and  C7_11 
REMARK    7  A    between atoms: C7_11  and  N2_12 
REMARK       I    between atoms: N2_12  and  C8_13 
REMARK    8  A    between atoms: C8_13  and  C9_15 
REMARK    9  A    between atoms: C9_15  and  C10_16 
REMARK   10  A    between atoms: C9_15  and  O17_54 
REMARK   11  A    between atoms: C10_16  and  C13_19 
REMARK   12  A    between atoms: C13_19  and  O4_20 
REMARK   13  A    between atoms: O4_20  and  P1_21 
REMARK   14  A    between atoms: P1_21  and  O6_23 
REMARK   15  A    between atoms: P1_21  and  O7_24 
REMARK   16  A    between atoms: O7_24  and  P2_25 
REMARK   17  A    between atoms: P2_25  and  O9_27 
REMARK   18  A    between atoms: P2_25  and  O10_28 
REMARK   19  A    between atoms: O10_28  and  C14_29 
REMARK   20  A    between atoms: C14_29  and  C15_30 
REMARK   21  A    between atoms: C16_31  and  O13_49 
REMARK   22  A    between atoms: C17_32  and  O12_48 
REMARK   23  A    between atoms: C18_33  and  N3_35 
REMARK   24  A    between atoms: C21_40  and  N7_47 
REMARK   25  A    between atoms: O13_49  and  P3_50 
REMARK   26  A    between atoms: P3_50  and  O15_52 
REMARK   27  A    between atoms: P3_50  and  O16_53 
ROOT
HETATM    1  C1  UNL     1     -12.179   3.161 -11.213  1.00  0.00     0.104 C 
HETATM    2  C2  UNL     1     -10.811   2.843 -11.733  1.00  0.00     0.182 C 
HETATM    3  O1  UNL     1     -10.600   2.014 -12.614  1.00  0.00    -0.286 OA
ENDROOT
BRANCH   2   4
HETATM    4  S1  UNL     1      -9.512   3.731 -10.947  1.00  0.00    -0.091 SA
BRANCH   4   5
HETATM    5  C3  UNL     1      -8.208   3.583 -12.211  1.00  0.00     0.102 C 
BRANCH   5   6
HETATM    6  C4  UNL     1      -8.139   4.821 -13.107  1.00  0.00     0.133 C 
BRANCH   6   7
HETATM    7  N1  UNL     1      -7.548   5.962 -12.440  1.00  0.00    -0.360 N 
HETATM    8  C5  UNL     1      -8.248   7.130 -12.245  1.00  0.00     0.219 C 
HETATM    9  O2  UNL     1      -9.376   7.305 -12.691  1.00  0.00    -0.274 OA
HETATM   10  H8  UNL     1      -6.596   5.890 -12.104  1.00  0.00     0.162 HD
BRANCH   8  11
HETATM   11  C6  UNL     1      -7.467   8.177 -11.480  1.00  0.00     0.122 C 
BRANCH  11  12
HETATM   12  C7  UNL     1      -7.567   7.972  -9.969  1.00  0.00     0.132 C 
BRANCH  12  13
HETATM   13  N2  UNL     1      -6.444   8.531  -9.245  1.00  0.00    -0.358 N 
HETATM   14  C8  UNL     1      -5.573   7.702  -8.563  1.00  0.00     0.247 C 
HETATM   15  O3  UNL     1      -5.775   6.500  -8.444  1.00  0.00    -0.271 OA
HETATM   16  H13 UNL     1      -6.063   9.394  -9.627  1.00  0.00     0.162 HD
BRANCH  14  17
HETATM   17  C9  UNL     1      -4.332   8.404  -7.990  1.00  0.00     0.219 C 
BRANCH  17  18
HETATM   18  C10 UNL     1      -4.563   9.106  -6.626  1.00  0.00     0.009 C 
HETATM   19  C11 UNL     1      -5.419  10.374  -6.766  1.00  0.00     0.020 C 
HETATM   20  C12 UNL     1      -5.263   8.170  -5.620  1.00  0.00     0.020 C 
BRANCH  18  21
HETATM   21  C13 UNL     1      -3.151   9.484  -6.096  1.00  0.00     0.192 C 
BRANCH  21  22
HETATM   22  O4  UNL     1      -2.827   8.809  -4.897  1.00  0.00    -0.296 OA
BRANCH  22  23
HETATM   23  P1  UNL     1      -1.479   7.959  -4.714  1.00  0.00     0.401 P 
HETATM   24  O5  UNL     1      -0.332   8.743  -4.158  1.00  0.00    -0.631 OA
BRANCH  23  25
HETATM   25  O6  UNL     1      -1.167   7.269  -6.134  1.00  0.00    -0.307 OA
HETATM   26  H23 UNL     1      -1.970   7.133  -6.654  1.00  0.00     0.222 HD
ENDBRANCH  23  25
BRANCH  23  27
HETATM   27  O7  UNL     1      -1.905   6.697  -3.844  1.00  0.00    -0.195 OA
BRANCH  27  28
HETATM   28  P2  UNL     1      -2.244   5.329  -4.587  1.00  0.00     0.401 P 
HETATM   29  O8  UNL     1      -3.142   5.410  -5.778  1.00  0.00    -0.631 OA
BRANCH  28  30
HETATM   30  O9  UNL     1      -0.804   4.714  -4.897  1.00  0.00    -0.307 OA
HETATM   31  H24 UNL     1      -0.531   3.993  -4.278  1.00  0.00     0.222 HD
ENDBRANCH  28  30
BRANCH  28  32
HETATM   32  O10 UNL     1      -2.730   4.362  -3.412  1.00  0.00    -0.294 OA
BRANCH  32  33
HETATM   33  C14 UNL     1      -2.232   3.052  -3.330  1.00  0.00     0.215 C 
BRANCH  33  34
HETATM   34  C15 UNL     1      -3.053   2.221  -4.316  1.00  0.00     0.180 C 
HETATM   35  C16 UNL     1      -4.469   2.042  -3.784  1.00  0.00     0.197 C 
HETATM   36  C17 UNL     1      -4.621   0.544  -3.594  1.00  0.00     0.199 C 
HETATM   37  C18 UNL     1      -3.606  -0.013  -4.596  1.00  0.00     0.262 C 
HETATM   38  O11 UNL     1      -2.503   0.918  -4.542  1.00  0.00    -0.353 OA
BRANCH  35  39
HETATM   39  O13 UNL     1      -5.373   2.554  -4.757  1.00  0.00    -0.286 OA
BRANCH  39  40
HETATM   40  P3  UNL     1      -6.501   3.540  -4.198  1.00  0.00     0.391 P 
HETATM   41  O14 UNL     1      -7.247   2.997  -3.022  1.00  0.00    -0.632 OA
BRANCH  40  42
HETATM   42  O15 UNL     1      -7.332   3.831  -5.533  1.00  0.00    -0.307 OA
HETATM   43  H36 UNL     1      -8.139   4.363  -5.332  1.00  0.00     0.222 HD
ENDBRANCH  40  42
BRANCH  40  44
HETATM   44  O16 UNL     1      -5.671   4.880  -3.988  1.00  0.00    -0.307 OA
HETATM   45  H37 UNL     1      -5.384   5.280  -4.825  1.00  0.00     0.222 HD
ENDBRANCH  40  44
ENDBRANCH  39  40
ENDBRANCH  35  39
BRANCH  36  46
HETATM   46  O12 UNL     1      -5.988   0.160  -3.761  1.00  0.00    -0.388 OA
HETATM   47  H35 UNL     1      -6.186  -0.481  -3.037  1.00  0.00     0.210 HD
ENDBRANCH  36  46
BRANCH  37  48
HETATM   48  N3  UNL     1      -3.124  -1.329  -4.226  1.00  0.00    -0.297 N 
HETATM   49  C19 UNL     1      -3.793  -2.285  -3.498  1.00  0.00     0.188 A 
HETATM   50  N4  UNL     1      -3.134  -3.421  -3.442  1.00  0.00    -0.346 N 
HETATM   51  C20 UNL     1      -1.982  -3.192  -4.174  1.00  0.00     0.116 A 
HETATM   52  H4  UNL     1      -3.409  -4.279  -2.965  1.00  0.00     0.167 HD
HETATM   53  C21 UNL     1      -0.897  -4.014  -4.524  1.00  0.00     0.109 A 
HETATM   54  C23 UNL     1      -1.945  -1.888  -4.632  1.00  0.00     0.142 A 
HETATM   55  N5  UNL     1       0.109  -3.481  -5.260  1.00  0.00    -0.341 N 
HETATM   56  C22 UNL     1       0.022  -2.185  -5.618  1.00  0.00     0.183 A 
HETATM   57  H5  UNL     1       0.912  -4.048  -5.537  1.00  0.00     0.167 HD
HETATM   58  N6  UNL     1      -0.967  -1.307  -5.350  1.00  0.00    -0.336 N 
HETATM   59  H6  UNL     1      -0.973  -0.332  -5.651  1.00  0.00     0.168 HD
BRANCH  53  60
HETATM   60  N7  UNL     1      -0.794  -5.343  -4.147  1.00  0.00    -0.287 NA
HETATM   61  H33 UNL     1      -1.687  -5.826  -4.067  1.00  0.00     0.125 HD
HETATM   62  H34 UNL     1      -0.127  -5.492  -3.402  1.00  0.00     0.125 HD
ENDBRANCH  53  60
ENDBRANCH  37  48
ENDBRANCH  33  34
ENDBRANCH  32  33
ENDBRANCH  28  32
ENDBRANCH  27  28
ENDBRANCH  23  27
ENDBRANCH  22  23
ENDBRANCH  21  22
ENDBRANCH  18  21
ENDBRANCH  17  18
BRANCH  17  63
HETATM   63  O17 UNL     1      -3.260   7.466  -7.843  1.00  0.00    -0.385 OA
HETATM   64  H38 UNL     1      -2.459   7.862  -8.226  1.00  0.00     0.210 HD
ENDBRANCH  17  63
ENDBRANCH  14  17
ENDBRANCH  12  13
ENDBRANCH  11  12
ENDBRANCH   8  11
ENDBRANCH   6   7
ENDBRANCH   5   6
ENDBRANCH   4   5
ENDBRANCH   2   4
TORSDOF 27
ENDMDL
MODEL 13
REMARK VINA RESULT:      -6.4      3.119      5.637
REMARK  27 active torsions:
REMARK  status: ('A' for Active; 'I' for Inactive)
REMARK    1  A    between atoms: C2_2  and  S1_4 
REMARK    2  A    between atoms: S1_4  and  C3_5 
REMARK    3  A    between atoms: C3_5  and  C4_6 
REMARK    4  A    between atoms: C4_6  and  N1_7 
REMARK       I    between atoms: N1_7  and  C5_8 
REMARK    5  A    between atoms: C5_8  and  C6_10 
REMARK    6  A    between atoms: C6_10  and  C7_11 
REMARK    7  A    between atoms: C7_11  and  N2_12 
REMARK       I    between atoms: N2_12  and  C8_13 
REMARK    8  A    between atoms: C8_13  and  C9_15 
REMARK    9  A    between atoms: C9_15  and  C10_16 
REMARK   10  A    between atoms: C9_15  and  O17_54 
REMARK   11  A    between atoms: C10_16  and  C13_19 
REMARK   12  A    between atoms: C13_19  and  O4_20 
REMARK   13  A    between atoms: O4_20  and  P1_21 
REMARK   14  A    between atoms: P1_21  and  O6_23 
REMARK   15  A    between atoms: P1_21  and  O7_24 
REMARK   16  A    between atoms: O7_24  and  P2_25 
REMARK   17  A    between atoms: P2_25  and  O9_27 
REMARK   18  A    between atoms: P2_25  and  O10_28 
REMARK   19  A    between atoms: O10_28  and  C14_29 
REMARK   20  A    between atoms: C14_29  and  C15_30 
REMARK   21  A    between atoms: C16_31  and  O13_49 
REMARK   22  A    between atoms: C17_32  and  O12_48 
REMARK   23  A    between atoms: C18_33  and  N3_35 
REMARK   24  A    between atoms: C21_40  and  N7_47 
REMARK   25  A    between atoms: O13_49  and  P3_50 
REMARK   26  A    between atoms: P3_50  and  O15_52 
REMARK   27  A    between atoms: P3_50  and  O16_53 
ROOT
HETATM    1  C1  UNL     1      -5.790   3.645  -8.266  1.00  0.00     0.104 C 
HETATM    2  C2  UNL     1      -4.379   4.146  -8.208  1.00  0.00     0.182 C 
HETATM    3  O1  UNL     1      -3.421   3.513  -8.643  1.00  0.00    -0.286 OA
ENDROOT
BRANCH   2   4
HETATM    4  S1  UNL     1      -4.197   5.710  -7.426  1.00  0.00    -0.091 SA
BRANCH   4   5
HETATM    5  C3  UNL     1      -3.070   5.262  -6.066  1.00  0.00     0.102 C 
BRANCH   5   6
HETATM    6  C4  UNL     1      -3.078   6.310  -4.951  1.00  0.00     0.133 C 
BRANCH   6   7
HETATM    7  N1  UNL     1      -3.323   7.650  -5.444  1.00  0.00    -0.360 N 
HETATM    8  C5  UNL     1      -2.335   8.606  -5.462  1.00  0.00     0.219 C 
HETATM    9  O2  UNL     1      -1.219   8.412  -4.993  1.00  0.00    -0.274 OA
HETATM   10  H8  UNL     1      -4.245   7.880  -5.789  1.00  0.00     0.162 HD
BRANCH   8  11
HETATM   11  C6  UNL     1      -2.783   9.919  -6.067  1.00  0.00     0.122 C 
BRANCH  11  12
HETATM   12  C7  UNL     1      -3.896   9.724  -7.095  1.00  0.00     0.132 C 
BRANCH  12  13
HETATM   13  N2  UNL     1      -5.142  10.351  -6.709  1.00  0.00    -0.358 N 
HETATM   14  C8  UNL     1      -6.122   9.618  -6.066  1.00  0.00     0.247 C 
HETATM   15  O3  UNL     1      -6.031   8.407  -5.908  1.00  0.00    -0.271 OA
HETATM   16  H13 UNL     1      -5.083  11.343  -6.487  1.00  0.00     0.162 HD
BRANCH  14  17
HETATM   17  C9  UNL     1      -7.314  10.442  -5.556  1.00  0.00     0.219 C 
BRANCH  17  18
HETATM   18  C10 UNL     1      -8.334  10.845  -6.653  1.00  0.00     0.009 C 
HETATM   19  C11 UNL     1      -9.649  11.366  -6.056  1.00  0.00     0.020 C 
HETATM   20  C12 UNL     1      -7.765  11.940  -7.578  1.00  0.00     0.020 C 
BRANCH  18  21
HETATM   21  C13 UNL     1      -8.609   9.554  -7.475  1.00  0.00     0.192 C 
BRANCH  21  22
HETATM   22  O4  UNL     1      -9.614   8.749  -6.893  1.00  0.00    -0.296 OA
BRANCH  22  23
HETATM   23  P1  UNL     1      -9.536   7.148  -6.858  1.00  0.00     0.401 P 
HETATM   24  O5  UNL     1      -9.281   6.518  -8.192  1.00  0.00    -0.631 OA
BRANCH  23  25
HETATM   25  O6  UNL     1     -10.883   6.632  -6.144  1.00  0.00    -0.307 OA
HETATM   26  H23 UNL     1     -11.439   7.364  -5.848  1.00  0.00     0.222 HD
ENDBRANCH  23  25
BRANCH  23  27
HETATM   27  O7  UNL     1      -8.449   6.813  -5.747  1.00  0.00    -0.195 OA
BRANCH  27  28
HETATM   28  P2  UNL     1      -8.408   5.347  -5.126  1.00  0.00     0.401 P 
HETATM   29  O8  UNL     1      -9.179   5.124  -3.866  1.00  0.00    -0.631 OA
BRANCH  28  30
HETATM   30  O9  UNL     1      -8.867   4.421  -6.343  1.00  0.00    -0.307 OA
HETATM   31  H24 UNL     1      -8.747   3.453  -6.181  1.00  0.00     0.222 HD
ENDBRANCH  28  30
BRANCH  28  32
HETATM   32  O10 UNL     1      -6.851   4.998  -5.062  1.00  0.00    -0.294 OA
BRANCH  32  33
HETATM   33  C14 UNL     1      -6.359   4.166  -4.044  1.00  0.00     0.215 C 
BRANCH  33  34
HETATM   34  C15 UNL     1      -6.207   2.778  -4.663  1.00  0.00     0.180 C 
HETATM   35  C16 UNL     1      -6.766   1.726  -3.714  1.00  0.00     0.197 C 
HETATM   36  C17 UNL     1      -5.577   0.851  -3.367  1.00  0.00     0.199 C 
HETATM   37  C18 UNL     1      -4.665   1.047  -4.581  1.00  0.00     0.262 C 
HETATM   38  O11 UNL     1      -4.844   2.435  -4.939  1.00  0.00    -0.353 OA
BRANCH  35  39
HETATM   39  O13 UNL     1      -7.780   1.004  -4.404  1.00  0.00    -0.286 OA
BRANCH  39  40
HETATM   40  P3  UNL     1      -9.284   1.390  -4.020  1.00  0.00     0.391 P 
HETATM   41  O14 UNL     1     -10.096   1.874  -5.177  1.00  0.00    -0.632 OA
BRANCH  40  42
HETATM   42  O15 UNL     1      -9.032   2.409  -2.813  1.00  0.00    -0.307 OA
HETATM   43  H36 UNL     1      -8.901   3.326  -3.153  1.00  0.00     0.222 HD
ENDBRANCH  40  42
BRANCH  40  44
HETATM   44  O16 UNL     1      -9.769   0.068  -3.281  1.00  0.00    -0.307 OA
HETATM   45  H37 UNL     1     -10.628   0.175  -2.844  1.00  0.00     0.222 HD
ENDBRANCH  40  44
ENDBRANCH  39  40
ENDBRANCH  35  39
BRANCH  36  46
HETATM   46  O12 UNL     1      -6.009  -0.482  -3.079  1.00  0.00    -0.388 OA
HETATM   47  H35 UNL     1      -5.358  -1.084  -3.511  1.00  0.00     0.210 HD
ENDBRANCH  36  46
BRANCH  37  48
HETATM   48  N3  UNL     1      -3.268   0.822  -4.270  1.00  0.00    -0.297 N 
HETATM   49  C19 UNL     1      -2.490   1.526  -3.380  1.00  0.00     0.188 A 
HETATM   50  N4  UNL     1      -1.297   0.993  -3.231  1.00  0.00    -0.346 N 
HETATM   51  C20 UNL     1      -1.303  -0.114  -4.061  1.00  0.00     0.116 A 
HETATM   52  H4  UNL     1      -0.537   1.323  -2.636  1.00  0.00     0.167 HD
HETATM   53  C21 UNL     1      -0.352  -1.116  -4.320  1.00  0.00     0.109 A 
HETATM   54  C23 UNL     1      -2.504  -0.209  -4.740  1.00  0.00     0.142 A 
HETATM   55  N5  UNL     1      -0.658  -2.086  -5.216  1.00  0.00    -0.341 N 
HETATM   56  C22 UNL     1      -1.861  -2.039  -5.821  1.00  0.00     0.183 A 
HETATM   57  H5  UNL     1       0.005  -2.832  -5.426  1.00  0.00     0.167 HD
HETATM   58  N6  UNL     1      -2.851  -1.139  -5.648  1.00  0.00    -0.336 N 
HETATM   59  H6  UNL     1      -3.744  -1.160  -6.141  1.00  0.00     0.168 HD
BRANCH  53  60
HETATM   60  N7  UNL     1       0.893  -1.161  -3.711  1.00  0.00    -0.287 NA
HETATM   61  H33 UNL     1       1.598  -0.578  -4.157  1.00  0.00     0.125 HD
HETATM   62  H34 UNL     1       1.173  -2.098  -3.454  1.00  0.00     0.125 HD
ENDBRANCH  53  60
ENDBRANCH  37  48
ENDBRANCH  33  34
ENDBRANCH  32  33
ENDBRANCH  28  32
ENDBRANCH  27  28
ENDBRANCH  23  27
ENDBRANCH  22  23
ENDBRANCH  21  22
ENDBRANCH  18  21
ENDBRANCH  17  18
BRANCH  17  63
HETATM   63  O17 UNL     1      -8.009   9.722  -4.532  1.00  0.00    -0.385 OA
HETATM   64  H38 UNL     1      -7.348   9.277  -3.974  1.00  0.00     0.210 HD
ENDBRANCH  17  63
ENDBRANCH  14  17
ENDBRANCH  12  13
ENDBRANCH  11  12
ENDBRANCH   8  11
ENDBRANCH   6   7
ENDBRANCH   5   6
ENDBRANCH   4   5
ENDBRANCH   2   4
TORSDOF 27
ENDMDL
MODEL 14
REMARK VINA RESULT:      -6.4      3.322      5.625
REMARK  27 active torsions:
REMARK  status: ('A' for Active; 'I' for Inactive)
REMARK    1  A    between atoms: C2_2  and  S1_4 
REMARK    2  A    between atoms: S1_4  and  C3_5 
REMARK    3  A    between atoms: C3_5  and  C4_6 
REMARK    4  A    between atoms: C4_6  and  N1_7 
REMARK       I    between atoms: N1_7  and  C5_8 
REMARK    5  A    between atoms: C5_8  and  C6_10 
REMARK    6  A    between atoms: C6_10  and  C7_11 
REMARK    7  A    between atoms: C7_11  and  N2_12 
REMARK       I    between atoms: N2_12  and  C8_13 
REMARK    8  A    between atoms: C8_13  and  C9_15 
REMARK    9  A    between atoms: C9_15  and  C10_16 
REMARK   10  A    between atoms: C9_15  and  O17_54 
REMARK   11  A    between atoms: C10_16  and  C13_19 
REMARK   12  A    between atoms: C13_19  and  O4_20 
REMARK   13  A    between atoms: O4_20  and  P1_21 
REMARK   14  A    between atoms: P1_21  and  O6_23 
REMARK   15  A    between atoms: P1_21  and  O7_24 
REMARK   16  A    between atoms: O7_24  and  P2_25 
REMARK   17  A    between atoms: P2_25  and  O9_27 
REMARK   18  A    between atoms: P2_25  and  O10_28 
REMARK   19  A    between atoms: O10_28  and  C14_29 
REMARK   20  A    between atoms: C14_29  and  C15_30 
REMARK   21  A    between atoms: C16_31  and  O13_49 
REMARK   22  A    between atoms: C17_32  and  O12_48 
REMARK   23  A    between atoms: C18_33  and  N3_35 
REMARK   24  A    between atoms: C21_40  and  N7_47 
REMARK   25  A    between atoms: O13_49  and  P3_50 
REMARK   26  A    between atoms: P3_50  and  O15_52 
REMARK   27  A    between atoms: P3_50  and  O16_53 
ROOT
HETATM    1  C1  UNL     1      -3.755   1.147  -7.173  1.00  0.00     0.104 C 
HETATM    2  C2  UNL     1      -3.899   2.455  -7.890  1.00  0.00     0.182 C 
HETATM    3  O1  UNL     1      -3.044   2.907  -8.647  1.00  0.00    -0.286 OA
ENDROOT
BRANCH   2   4
HETATM    4  S1  UNL     1      -5.387   3.320  -7.528  1.00  0.00    -0.091 SA
BRANCH   4   5
HETATM    5  C3  UNL     1      -6.119   2.201  -6.290  1.00  0.00     0.102 C 
BRANCH   5   6
HETATM    6  C4  UNL     1      -5.653   2.538  -4.872  1.00  0.00     0.133 C 
BRANCH   6   7
HETATM    7  N1  UNL     1      -6.573   3.411  -4.173  1.00  0.00    -0.360 N 
HETATM    8  C5  UNL     1      -7.626   2.915  -3.439  1.00  0.00     0.219 C 
HETATM    9  O2  UNL     1      -7.896   1.721  -3.397  1.00  0.00    -0.274 OA
HETATM   10  H8  UNL     1      -6.429   4.411  -4.224  1.00  0.00     0.162 HD
BRANCH   8  11
HETATM   11  C6  UNL     1      -8.431   3.992  -2.744  1.00  0.00     0.122 C 
BRANCH  11  12
HETATM   12  C7  UNL     1      -9.603   4.471  -3.600  1.00  0.00     0.132 C 
BRANCH  12  13
HETATM   13  N2  UNL     1      -9.219   4.792  -4.959  1.00  0.00    -0.358 N 
HETATM   14  C8  UNL     1     -10.043   5.571  -5.750  1.00  0.00     0.247 C 
HETATM   15  O3  UNL     1     -11.161   5.913  -5.387  1.00  0.00    -0.271 OA
HETATM   16  H13 UNL     1      -8.217   4.855  -5.128  1.00  0.00     0.162 HD
BRANCH  14  17
HETATM   17  C9  UNL     1      -9.439   5.983  -7.101  1.00  0.00     0.219 C 
BRANCH  17  18
HETATM   18  C10 UNL     1      -8.547   7.251  -7.046  1.00  0.00     0.009 C 
HETATM   19  C11 UNL     1      -8.818   8.200  -8.222  1.00  0.00     0.020 C 
HETATM   20  C12 UNL     1      -8.766   8.040  -5.739  1.00  0.00     0.020 C 
BRANCH  18  21
HETATM   21  C13 UNL     1      -7.078   6.743  -7.112  1.00  0.00     0.192 C 
BRANCH  21  22
HETATM   22  O4  UNL     1      -6.622   6.250  -5.868  1.00  0.00    -0.296 OA
BRANCH  22  23
HETATM   23  P1  UNL     1      -5.288   6.784  -5.157  1.00  0.00     0.401 P 
HETATM   24  O5  UNL     1      -5.096   6.282  -3.760  1.00  0.00    -0.631 OA
BRANCH  23  25
HETATM   25  O6  UNL     1      -5.308   8.389  -5.273  1.00  0.00    -0.307 OA
HETATM   26  H23 UNL     1      -5.707   8.687  -6.101  1.00  0.00     0.222 HD
ENDBRANCH  23  25
BRANCH  23  27
HETATM   27  O7  UNL     1      -4.111   6.416  -6.163  1.00  0.00    -0.195 OA
BRANCH  27  28
HETATM   28  P2  UNL     1      -2.670   7.053  -5.927  1.00  0.00     0.401 P 
HETATM   29  O8  UNL     1      -2.115   7.897  -7.027  1.00  0.00    -0.631 OA
BRANCH  28  30
HETATM   30  O9  UNL     1      -2.830   7.819  -4.535  1.00  0.00    -0.307 OA
HETATM   31  H24 UNL     1      -3.688   8.301  -4.436  1.00  0.00     0.222 HD
ENDBRANCH  28  30
BRANCH  28  32
HETATM   32  O10 UNL     1      -1.769   5.813  -5.477  1.00  0.00    -0.294 OA
BRANCH  32  33
HETATM   33  C14 UNL     1      -2.284   4.509  -5.546  1.00  0.00     0.215 C 
BRANCH  33  34
HETATM   34  C15 UNL     1      -2.167   3.929  -4.137  1.00  0.00     0.180 C 
HETATM   35  C16 UNL     1      -0.701   3.700  -3.794  1.00  0.00     0.197 C 
HETATM   36  C17 UNL     1      -0.585   2.203  -3.582  1.00  0.00     0.199 C 
HETATM   37  C18 UNL     1      -2.013   1.822  -3.181  1.00  0.00     0.262 C 
HETATM   38  O11 UNL     1      -2.850   2.679  -3.989  1.00  0.00    -0.353 OA
BRANCH  35  39
HETATM   39  O13 UNL     1      -0.405   4.435  -2.611  1.00  0.00    -0.286 OA
BRANCH  39  40
HETATM   40  P3  UNL     1       0.367   5.817  -2.833  1.00  0.00     0.391 P 
HETATM   41  O14 UNL     1      -0.533   7.010  -2.877  1.00  0.00    -0.632 OA
BRANCH  40  42
HETATM   42  O15 UNL     1       1.214   5.479  -4.147  1.00  0.00    -0.307 OA
HETATM   43  H36 UNL     1       0.679   5.649  -4.959  1.00  0.00     0.222 HD
ENDBRANCH  40  42
BRANCH  40  44
HETATM   44  O16 UNL     1       1.456   5.759  -1.676  1.00  0.00    -0.307 OA
HETATM   45  H37 UNL     1       2.198   5.170  -1.886  1.00  0.00     0.222 HD
ENDBRANCH  40  44
ENDBRANCH  39  40
ENDBRANCH  35  39
BRANCH  36  46
HETATM   46  O12 UNL     1       0.458   1.914  -2.647  1.00  0.00    -0.388 OA
HETATM   47  H35 UNL     1       1.083   1.305  -3.108  1.00  0.00     0.210 HD
ENDBRANCH  36  46
BRANCH  37  48
HETATM   48  N3  UNL     1      -2.327   0.441  -3.487  1.00  0.00    -0.297 N 
HETATM   49  C19 UNL     1      -1.557  -0.448  -4.200  1.00  0.00     0.188 A 
HETATM   50  N4  UNL     1      -2.063  -1.662  -4.194  1.00  0.00    -0.346 N 
HETATM   51  C20 UNL     1      -3.215  -1.556  -3.436  1.00  0.00     0.116 A 
HETATM   52  H4  UNL     1      -1.690  -2.496  -4.647  1.00  0.00     0.167 HD
HETATM   53  C21 UNL     1      -4.174  -2.497  -3.022  1.00  0.00     0.109 A 
HETATM   54  C23 UNL     1      -3.412  -0.250  -3.024  1.00  0.00     0.142 A 
HETATM   55  N5  UNL     1      -5.222  -2.072  -2.275  1.00  0.00    -0.341 N 
HETATM   56  C22 UNL     1      -5.296  -0.761  -1.968  1.00  0.00     0.183 A 
HETATM   57  H5  UNL     1      -5.935  -2.726  -1.953  1.00  0.00     0.167 HD
HETATM   58  N6  UNL     1      -4.439   0.226  -2.299  1.00  0.00    -0.336 N 
HETATM   59  H6  UNL     1      -4.554   1.205  -2.034  1.00  0.00     0.168 HD
BRANCH  53  60
HETATM   60  N7  UNL     1      -4.110  -3.843  -3.347  1.00  0.00    -0.287 NA
HETATM   61  H33 UNL     1      -3.441  -4.066  -4.080  1.00  0.00     0.125 HD
HETATM   62  H34 UNL     1      -5.021  -4.276  -3.414  1.00  0.00     0.125 HD
ENDBRANCH  53  60
ENDBRANCH  37  48
ENDBRANCH  33  34
ENDBRANCH  32  33
ENDBRANCH  28  32
ENDBRANCH  27  28
ENDBRANCH  23  27
ENDBRANCH  22  23
ENDBRANCH  21  22
ENDBRANCH  18  21
ENDBRANCH  17  18
BRANCH  17  63
HETATM   63  O17 UNL     1      -8.665   4.907  -7.643  1.00  0.00    -0.385 OA
HETATM   64  H38 UNL     1      -8.322   4.378  -6.903  1.00  0.00     0.210 HD
ENDBRANCH  17  63
ENDBRANCH  14  17
ENDBRANCH  12  13
ENDBRANCH  11  12
ENDBRANCH   8  11
ENDBRANCH   6   7
ENDBRANCH   5   6
ENDBRANCH   4   5
ENDBRANCH   2   4
TORSDOF 27
ENDMDL
MODEL 15
REMARK VINA RESULT:      -6.3      3.699     10.016
REMARK  27 active torsions:
REMARK  status: ('A' for Active; 'I' for Inactive)
REMARK    1  A    between atoms: C2_2  and  S1_4 
REMARK    2  A    between atoms: S1_4  and  C3_5 
REMARK    3  A    between atoms: C3_5  and  C4_6 
REMARK    4  A    between atoms: C4_6  and  N1_7 
REMARK       I    between atoms: N1_7  and  C5_8 
REMARK    5  A    between atoms: C5_8  and  C6_10 
REMARK    6  A    between atoms: C6_10  and  C7_11 
REMARK    7  A    between atoms: C7_11  and  N2_12 
REMARK       I    between atoms: N2_12  and  C8_13 
REMARK    8  A    between atoms: C8_13  and  C9_15 
REMARK    9  A    between atoms: C9_15  and  C10_16 
REMARK   10  A    between atoms: C9_15  and  O17_54 
REMARK   11  A    between atoms: C10_16  and  C13_19 
REMARK   12  A    between atoms: C13_19  and  O4_20 
REMARK   13  A    between atoms: O4_20  and  P1_21 
REMARK   14  A    between atoms: P1_21  and  O6_23 
REMARK   15  A    between atoms: P1_21  and  O7_24 
REMARK   16  A    between atoms: O7_24  and  P2_25 
REMARK   17  A    between atoms: P2_25  and  O9_27 
REMARK   18  A    between atoms: P2_25  and  O10_28 
REMARK   19  A    between atoms: O10_28  and  C14_29 
REMARK   20  A    between atoms: C14_29  and  C15_30 
REMARK   21  A    between atoms: C16_31  and  O13_49 
REMARK   22  A    between atoms: C17_32  and  O12_48 
REMARK   23  A    between atoms: C18_33  and  N3_35 
REMARK   24  A    between atoms: C21_40  and  N7_47 
REMARK   25  A    between atoms: O13_49  and  P3_50 
REMARK   26  A    between atoms: P3_50  and  O15_52 
REMARK   27  A    between atoms: P3_50  and  O16_53 
ROOT
HETATM    1  C1  UNL     1      -1.565  -3.848  -3.324  1.00  0.00     0.104 C 
HETATM    2  C2  UNL     1      -0.152  -3.441  -3.611  1.00  0.00     0.182 C 
HETATM    3  O1  UNL     1       0.742  -3.468  -2.769  1.00  0.00    -0.286 OA
ENDROOT
BRANCH   2   4
HETATM    4  S1  UNL     1       0.120  -2.880  -5.255  1.00  0.00    -0.091 SA
BRANCH   4   5
HETATM    5  C3  UNL     1      -0.720  -4.198  -6.191  1.00  0.00     0.102 C 
BRANCH   5   6
HETATM    6  C4  UNL     1      -1.912  -3.662  -6.987  1.00  0.00     0.133 C 
BRANCH   6   7
HETATM    7  N1  UNL     1      -2.299  -2.326  -6.581  1.00  0.00    -0.360 N 
HETATM    8  C5  UNL     1      -2.887  -1.445  -7.459  1.00  0.00     0.219 C 
HETATM    9  O2  UNL     1      -3.044  -1.703  -8.647  1.00  0.00    -0.274 OA
HETATM   10  H8  UNL     1      -2.137  -2.042  -5.625  1.00  0.00     0.162 HD
BRANCH   8  11
HETATM   11  C6  UNL     1      -3.264  -0.126  -6.822  1.00  0.00     0.122 C 
BRANCH  11  12
HETATM   12  C7  UNL     1      -2.627   0.044  -5.443  1.00  0.00     0.132 C 
BRANCH  12  13
HETATM   13  N2  UNL     1      -3.491   0.722  -4.498  1.00  0.00    -0.358 N 
HETATM   14  C8  UNL     1      -3.601   2.100  -4.520  1.00  0.00     0.247 C 
HETATM   15  O3  UNL     1      -2.900   2.799  -5.241  1.00  0.00    -0.271 OA
HETATM   16  H13 UNL     1      -4.306   0.194  -4.194  1.00  0.00     0.162 HD
BRANCH  14  17
HETATM   17  C9  UNL     1      -4.680   2.675  -3.589  1.00  0.00     0.219 C 
BRANCH  17  18
HETATM   18  C10 UNL     1      -6.135   2.445  -4.074  1.00  0.00     0.009 C 
HETATM   19  C11 UNL     1      -6.214   2.242  -5.594  1.00  0.00     0.020 C 
HETATM   20  C12 UNL     1      -6.768   1.212  -3.397  1.00  0.00     0.020 C 
BRANCH  18  21
HETATM   21  C13 UNL     1      -6.924   3.725  -3.676  1.00  0.00     0.192 C 
BRANCH  21  22
HETATM   22  O4  UNL     1      -8.234   3.434  -3.231  1.00  0.00    -0.296 OA
BRANCH  22  23
HETATM   23  P1  UNL     1      -9.547   3.908  -4.019  1.00  0.00     0.401 P 
HETATM   24  O5  UNL     1     -10.701   2.961  -3.912  1.00  0.00    -0.631 OA
BRANCH  23  25
HETATM   25  O6  UNL     1      -9.096   4.212  -5.534  1.00  0.00    -0.307 OA
HETATM   26  H23 UNL     1      -9.082   3.412  -6.075  1.00  0.00     0.222 HD
ENDBRANCH  23  25
BRANCH  23  27
HETATM   27  O7  UNL     1      -9.841   5.377  -3.483  1.00  0.00    -0.195 OA
BRANCH  27  28
HETATM   28  P2  UNL     1     -10.392   6.472  -4.501  1.00  0.00     0.401 P 
HETATM   29  O8  UNL     1     -11.440   6.030  -5.468  1.00  0.00    -0.631 OA
BRANCH  28  30
HETATM   30  O9  UNL     1     -10.850   7.664  -3.543  1.00  0.00    -0.307 OA
HETATM   31  H24 UNL     1     -10.697   7.491  -2.582  1.00  0.00     0.222 HD
ENDBRANCH  28  30
BRANCH  28  32
HETATM   32  O10 UNL     1      -9.072   7.102  -5.142  1.00  0.00    -0.294 OA
BRANCH  32  33
HETATM   33  C14 UNL     1      -9.013   8.476  -5.420  1.00  0.00     0.215 C 
BRANCH  33  34
HETATM   34  C15 UNL     1      -7.603   8.928  -5.043  1.00  0.00     0.180 C 
HETATM   35  C16 UNL     1      -7.125   9.995  -6.019  1.00  0.00     0.197 C 
HETATM   36  C17 UNL     1      -5.911   9.383  -6.693  1.00  0.00     0.199 C 
HETATM   37  C18 UNL     1      -5.432   8.378  -5.643  1.00  0.00     0.262 C 
HETATM   38  O11 UNL     1      -6.650   7.860  -5.063  1.00  0.00    -0.353 OA
BRANCH  35  39
HETATM   39  O13 UNL     1      -6.794  11.160  -5.272  1.00  0.00    -0.286 OA
BRANCH  39  40
HETATM   40  P3  UNL     1      -7.613  12.479  -5.653  1.00  0.00     0.391 P 
HETATM   41  O14 UNL     1      -8.671  12.254  -6.685  1.00  0.00    -0.632 OA
BRANCH  40  42
HETATM   42  O15 UNL     1      -6.419  13.477  -6.022  1.00  0.00    -0.307 OA
HETATM   43  H36 UNL     1      -6.614  13.959  -6.861  1.00  0.00     0.222 HD
ENDBRANCH  40  42
BRANCH  40  44
HETATM   44  O16 UNL     1      -8.079  12.986  -4.220  1.00  0.00    -0.307 OA
HETATM   45  H37 UNL     1      -8.063  12.285  -3.549  1.00  0.00     0.222 HD
ENDBRANCH  40  44
ENDBRANCH  39  40
ENDBRANCH  35  39
BRANCH  36  46
HETATM   46  O12 UNL     1      -4.995  10.407  -7.088  1.00  0.00    -0.388 OA
HETATM   47  H35 UNL     1      -5.543  11.165  -7.401  1.00  0.00     0.210 HD
ENDBRANCH  36  46
BRANCH  37  48
HETATM   48  N3  UNL     1      -4.688   7.278  -6.224  1.00  0.00    -0.297 N 
HETATM   49  C19 UNL     1      -3.386   6.922  -5.956  1.00  0.00     0.188 A 
HETATM   50  N4  UNL     1      -3.044   5.801  -6.552  1.00  0.00    -0.346 N 
HETATM   51  C20 UNL     1      -4.181   5.408  -7.236  1.00  0.00     0.116 A 
HETATM   52  H4  UNL     1      -2.142   5.326  -6.518  1.00  0.00     0.167 HD
HETATM   53  C21 UNL     1      -4.477   4.282  -8.024  1.00  0.00     0.109 A 
HETATM   54  C23 UNL     1      -5.194   6.335  -7.073  1.00  0.00     0.142 A 
HETATM   55  N5  UNL     1      -5.710   4.186  -8.581  1.00  0.00    -0.341 N 
HETATM   56  C22 UNL     1      -6.591   5.180  -8.355  1.00  0.00     0.183 A 
HETATM   57  H5  UNL     1      -5.962   3.383  -9.156  1.00  0.00     0.167 HD
HETATM   58  N6  UNL     1      -6.425   6.295  -7.615  1.00  0.00    -0.336 N 
HETATM   59  H6  UNL     1      -7.137   7.014  -7.483  1.00  0.00     0.168 HD
BRANCH  53  60
HETATM   60  N7  UNL     1      -3.570   3.265  -8.273  1.00  0.00    -0.287 NA
HETATM   61  H33 UNL     1      -2.716   3.569  -8.736  1.00  0.00     0.125 HD
HETATM   62  H34 UNL     1      -4.006   2.425  -8.627  1.00  0.00     0.125 HD
ENDBRANCH  53  60
ENDBRANCH  37  48
ENDBRANCH  33  34
ENDBRANCH  32  33
ENDBRANCH  28  32
ENDBRANCH  27  28
ENDBRANCH  23  27
ENDBRANCH  22  23
ENDBRANCH  21  22
ENDBRANCH  18  21
ENDBRANCH  17  18
BRANCH  17  63
HETATM   63  O17 UNL     1      -4.544   2.119  -2.277  1.00  0.00    -0.385 OA
HETATM   64  H38 UNL     1      -4.246   2.826  -1.680  1.00  0.00     0.210 HD
ENDBRANCH  17  63
ENDBRANCH  14  17
ENDBRANCH  12  13
ENDBRANCH  11  12
ENDBRANCH   8  11
ENDBRANCH   6   7
ENDBRANCH   5   6
ENDBRANCH   4   5
ENDBRANCH   2   4
TORSDOF 27
ENDMDL
MODEL 16
REMARK VINA RESULT:      -6.2      3.985      7.838
REMARK  27 active torsions:
REMARK  status: ('A' for Active; 'I' for Inactive)
REMARK    1  A    between atoms: C2_2  and  S1_4 
REMARK    2  A    between atoms: S1_4  and  C3_5 
REMARK    3  A    between atoms: C3_5  and  C4_6 
REMARK    4  A    between atoms: C4_6  and  N1_7 
REMARK       I    between atoms: N1_7  and  C5_8 
REMARK    5  A    between atoms: C5_8  and  C6_10 
REMARK    6  A    between atoms: C6_10  and  C7_11 
REMARK    7  A    between atoms: C7_11  and  N2_12 
REMARK       I    between atoms: N2_12  and  C8_13 
REMARK    8  A    between atoms: C8_13  and  C9_15 
REMARK    9  A    between atoms: C9_15  and  C10_16 
REMARK   10  A    between atoms: C9_15  and  O17_54 
REMARK   11  A    between atoms: C10_16  and  C13_19 
REMARK   12  A    between atoms: C13_19  and  O4_20 
REMARK   13  A    between atoms: O4_20  and  P1_21 
REMARK   14  A    between atoms: P1_21  and  O6_23 
REMARK   15  A    between atoms: P1_21  and  O7_24 
REMARK   16  A    between atoms: O7_24  and  P2_25 
REMARK   17  A    between atoms: P2_25  and  O9_27 
REMARK   18  A    between atoms: P2_25  and  O10_28 
REMARK   19  A    between atoms: O10_28  and  C14_29 
REMARK   20  A    between atoms: C14_29  and  C15_30 
REMARK   21  A    between atoms: C16_31  and  O13_49 
REMARK   22  A    between atoms: C17_32  and  O12_48 
REMARK   23  A    between atoms: C18_33  and  N3_35 
REMARK   24  A    between atoms: C21_40  and  N7_47 
REMARK   25  A    between atoms: O13_49  and  P3_50 
REMARK   26  A    between atoms: P3_50  and  O15_52 
REMARK   27  A    between atoms: P3_50  and  O16_53 
ROOT
HETATM    1  C1  UNL     1      -0.262  -5.129  -6.865  1.00  0.00     0.104 C 
HETATM    2  C2  UNL     1      -1.372  -4.124  -6.819  1.00  0.00     0.182 C 
HETATM    3  O1  UNL     1      -2.338  -4.151  -7.577  1.00  0.00    -0.286 OA
ENDROOT
BRANCH   2   4
HETATM    4  S1  UNL     1      -1.162  -2.867  -5.608  1.00  0.00    -0.091 SA
BRANCH   4   5
HETATM    5  C3  UNL     1      -2.764  -2.011  -5.749  1.00  0.00     0.102 C 
BRANCH   5   6
HETATM    6  C4  UNL     1      -2.679  -0.790  -6.667  1.00  0.00     0.133 C 
BRANCH   6   7
HETATM    7  N1  UNL     1      -3.931  -0.067  -6.754  1.00  0.00    -0.360 N 
HETATM    8  C5  UNL     1      -3.988   1.231  -7.206  1.00  0.00     0.219 C 
HETATM    9  O2  UNL     1      -2.985   1.878  -7.484  1.00  0.00    -0.274 OA
HETATM   10  H8  UNL     1      -4.784  -0.536  -6.480  1.00  0.00     0.162 HD
BRANCH   8  11
HETATM   11  C6  UNL     1      -5.396   1.782  -7.271  1.00  0.00     0.122 C 
BRANCH  11  12
HETATM   12  C7  UNL     1      -5.426   3.208  -7.821  1.00  0.00     0.132 C 
BRANCH  12  13
HETATM   13  N2  UNL     1      -6.642   3.510  -8.548  1.00  0.00    -0.358 N 
HETATM   14  C8  UNL     1      -6.953   4.817  -8.873  1.00  0.00     0.247 C 
HETATM   15  O3  UNL     1      -6.292   5.764  -8.466  1.00  0.00    -0.271 OA
HETATM   16  H13 UNL     1      -6.964   2.783  -9.183  1.00  0.00     0.162 HD
BRANCH  14  17
HETATM   17  C9  UNL     1      -8.171   4.980  -9.794  1.00  0.00     0.219 C 
BRANCH  17  18
HETATM   18  C10 UNL     1      -9.485   5.358  -9.060  1.00  0.00     0.009 C 
HETATM   19  C11 UNL     1     -10.713   4.684  -9.689  1.00  0.00     0.020 C 
HETATM   20  C12 UNL     1      -9.435   4.962  -7.571  1.00  0.00     0.020 C 
BRANCH  18  21
HETATM   21  C13 UNL     1      -9.615   6.903  -9.187  1.00  0.00     0.192 C 
BRANCH  21  22
HETATM   22  O4  UNL     1      -9.137   7.580  -8.042  1.00  0.00    -0.296 OA
BRANCH  22  23
HETATM   23  P1  UNL     1      -8.108   8.808  -8.123  1.00  0.00     0.401 P 
HETATM   24  O5  UNL     1      -8.759  10.154  -8.079  1.00  0.00    -0.631 OA
BRANCH  23  25
HETATM   25  O6  UNL     1      -7.198   8.568  -9.429  1.00  0.00    -0.307 OA
HETATM   26  H23 UNL     1      -7.637   8.868 -10.235  1.00  0.00     0.222 HD
ENDBRANCH  23  25
BRANCH  23  27
HETATM   27  O7  UNL     1      -7.057   8.539  -6.960  1.00  0.00    -0.195 OA
BRANCH  27  28
HETATM   28  P2  UNL     1      -7.550   8.602  -5.446  1.00  0.00     0.401 P 
HETATM   29  O8  UNL     1      -7.988   9.934  -4.932  1.00  0.00    -0.631 OA
BRANCH  28  30
HETATM   30  O9  UNL     1      -8.679   7.475  -5.381  1.00  0.00    -0.307 OA
HETATM   31  H24 UNL     1      -8.656   6.837  -6.135  1.00  0.00     0.222 HD
ENDBRANCH  28  30
BRANCH  28  32
HETATM   32  O10 UNL     1      -6.377   7.890  -4.628  1.00  0.00    -0.294 OA
BRANCH  32  33
HETATM   33  C14 UNL     1      -6.199   6.501  -4.722  1.00  0.00     0.215 C 
BRANCH  33  34
HETATM   34  C15 UNL     1      -4.767   6.223  -4.265  1.00  0.00     0.180 C 
HETATM   35  C16 UNL     1      -3.845   6.154  -5.475  1.00  0.00     0.197 C 
HETATM   36  C17 UNL     1      -3.299   4.738  -5.462  1.00  0.00     0.199 C 
HETATM   37  C18 UNL     1      -3.412   4.363  -3.982  1.00  0.00     0.262 C 
HETATM   38  O11 UNL     1      -4.639   4.990  -3.548  1.00  0.00    -0.353 OA
BRANCH  35  39
HETATM   39  O13 UNL     1      -2.819   7.126  -5.304  1.00  0.00    -0.286 OA
BRANCH  39  40
HETATM   40  P3  UNL     1      -2.729   8.240  -6.447  1.00  0.00     0.391 P 
HETATM   41  O14 UNL     1      -2.231   9.563  -5.961  1.00  0.00    -0.632 OA
BRANCH  40  42
HETATM   42  O15 UNL     1      -4.213   8.180  -7.042  1.00  0.00    -0.307 OA
HETATM   43  H36 UNL     1      -4.846   7.840  -6.366  1.00  0.00     0.222 HD
ENDBRANCH  40  42
BRANCH  40  44
HETATM   44  O16 UNL     1      -1.866   7.489  -7.552  1.00  0.00    -0.307 OA
HETATM   45  H37 UNL     1      -2.181   7.657  -8.454  1.00  0.00     0.222 HD
ENDBRANCH  40  44
ENDBRANCH  39  40
ENDBRANCH  35  39
BRANCH  36  46
HETATM   46  O12 UNL     1      -1.996   4.704  -6.050  1.00  0.00    -0.388 OA
HETATM   47  H35 UNL     1      -2.085   5.111  -6.945  1.00  0.00     0.210 HD
ENDBRANCH  36  46
BRANCH  37  48
HETATM   48  N3  UNL     1      -3.523   2.932  -3.778  1.00  0.00    -0.297 N 
HETATM   49  C19 UNL     1      -2.507   2.054  -3.480  1.00  0.00     0.188 A 
HETATM   50  N4  UNL     1      -2.952   0.842  -3.231  1.00  0.00    -0.346 N 
HETATM   51  C20 UNL     1      -4.325   0.940  -3.370  1.00  0.00     0.116 A 
HETATM   52  H4  UNL     1      -2.407   0.015  -2.989  1.00  0.00     0.167 HD
HETATM   53  C21 UNL     1      -5.369   0.014  -3.196  1.00  0.00     0.109 A 
HETATM   54  C23 UNL     1      -4.689   2.220  -3.747  1.00  0.00     0.142 A 
HETATM   55  N5  UNL     1      -6.642   0.421  -3.424  1.00  0.00    -0.341 N 
HETATM   56  C22 UNL     1      -6.845   1.696  -3.811  1.00  0.00     0.183 A 
HETATM   57  H5  UNL     1      -7.425  -0.221  -3.305  1.00  0.00     0.167 HD
HETATM   58  N6  UNL     1      -5.931   2.669  -4.000  1.00  0.00    -0.336 N 
HETATM   59  H6  UNL     1      -6.152   3.621  -4.296  1.00  0.00     0.168 HD
BRANCH  53  60
HETATM   60  N7  UNL     1      -5.164  -1.302  -2.813  1.00  0.00    -0.287 NA
HETATM   61  H33 UNL     1      -6.020  -1.837  -2.681  1.00  0.00     0.125 HD
HETATM   62  H34 UNL     1      -4.452  -1.399  -2.102  1.00  0.00     0.125 HD
ENDBRANCH  53  60
ENDBRANCH  37  48
ENDBRANCH  33  34
ENDBRANCH  32  33
ENDBRANCH  28  32
ENDBRANCH  27  28
ENDBRANCH  23  27
ENDBRANCH  22  23
ENDBRANCH  21  22
ENDBRANCH  18  21
ENDBRANCH  17  18
BRANCH  17  63
HETATM   63  O17 UNL     1      -7.906   5.971 -10.792  1.00  0.00    -0.385 OA
HETATM   64  H38 UNL     1      -8.758   6.316 -11.108  1.00  0.00     0.210 HD
ENDBRANCH  17  63
ENDBRANCH  14  17
ENDBRANCH  12  13
ENDBRANCH  11  12
ENDBRANCH   8  11
ENDBRANCH   6   7
ENDBRANCH   5   6
ENDBRANCH   4   5
ENDBRANCH   2   4
TORSDOF 27
ENDMDL
MODEL 17
REMARK VINA RESULT:      -6.2      3.931     10.471
REMARK  27 active torsions:
REMARK  status: ('A' for Active; 'I' for Inactive)
REMARK    1  A    between atoms: C2_2  and  S1_4 
REMARK    2  A    between atoms: S1_4  and  C3_5 
REMARK    3  A    between atoms: C3_5  and  C4_6 
REMARK    4  A    between atoms: C4_6  and  N1_7 
REMARK       I    between atoms: N1_7  and  C5_8 
REMARK    5  A    between atoms: C5_8  and  C6_10 
REMARK    6  A    between atoms: C6_10  and  C7_11 
REMARK    7  A    between atoms: C7_11  and  N2_12 
REMARK       I    between atoms: N2_12  and  C8_13 
REMARK    8  A    between atoms: C8_13  and  C9_15 
REMARK    9  A    between atoms: C9_15  and  C10_16 
REMARK   10  A    between atoms: C9_15  and  O17_54 
REMARK   11  A    between atoms: C10_16  and  C13_19 
REMARK   12  A    between atoms: C13_19  and  O4_20 
REMARK   13  A    between atoms: O4_20  and  P1_21 
REMARK   14  A    between atoms: P1_21  and  O6_23 
REMARK   15  A    between atoms: P1_21  and  O7_24 
REMARK   16  A    between atoms: O7_24  and  P2_25 
REMARK   17  A    between atoms: P2_25  and  O9_27 
REMARK   18  A    between atoms: P2_25  and  O10_28 
REMARK   19  A    between atoms: O10_28  and  C14_29 
REMARK   20  A    between atoms: C14_29  and  C15_30 
REMARK   21  A    between atoms: C16_31  and  O13_49 
REMARK   22  A    between atoms: C17_32  and  O12_48 
REMARK   23  A    between atoms: C18_33  and  N3_35 
REMARK   24  A    between atoms: C21_40  and  N7_47 
REMARK   25  A    between atoms: O13_49  and  P3_50 
REMARK   26  A    between atoms: P3_50  and  O15_52 
REMARK   27  A    between atoms: P3_50  and  O16_53 
ROOT
HETATM    1  C1  UNL     1       0.319  -5.358  -5.271  1.00  0.00     0.104 C 
HETATM    2  C2  UNL     1       1.399  -4.384  -4.909  1.00  0.00     0.182 C 
HETATM    3  O1  UNL     1       2.129  -4.519  -3.931  1.00  0.00    -0.286 OA
ENDROOT
BRANCH   2   4
HETATM    4  S1  UNL     1       1.514  -2.997  -5.984  1.00  0.00    -0.091 SA
BRANCH   4   5
HETATM    5  C3  UNL     1       1.072  -1.657  -4.832  1.00  0.00     0.102 C 
BRANCH   5   6
HETATM    6  C4  UNL     1      -0.250  -1.935  -4.114  1.00  0.00     0.133 C 
BRANCH   6   7
HETATM    7  N1  UNL     1      -1.386  -1.930  -5.013  1.00  0.00    -0.360 N 
HETATM    8  C5  UNL     1      -2.157  -0.807  -5.200  1.00  0.00     0.219 C 
HETATM    9  O2  UNL     1      -1.984   0.226  -4.564  1.00  0.00    -0.274 OA
HETATM   10  H8  UNL     1      -1.609  -2.777  -5.519  1.00  0.00     0.162 HD
BRANCH   8  11
HETATM   11  C6  UNL     1      -3.258  -0.999  -6.221  1.00  0.00     0.122 C 
BRANCH  11  12
HETATM   12  C7  UNL     1      -3.355   0.183  -7.185  1.00  0.00     0.132 C 
BRANCH  12  13
HETATM   13  N2  UNL     1      -3.638   1.437  -6.519  1.00  0.00    -0.358 N 
HETATM   14  C8  UNL     1      -3.339   2.637  -7.137  1.00  0.00     0.247 C 
HETATM   15  O3  UNL     1      -2.726   2.690  -8.196  1.00  0.00    -0.271 OA
HETATM   16  H13 UNL     1      -4.434   1.426  -5.884  1.00  0.00     0.162 HD
BRANCH  14  17
HETATM   17  C9  UNL     1      -3.850   3.885  -6.403  1.00  0.00     0.219 C 
BRANCH  17  18
HETATM   18  C10 UNL     1      -3.247   4.092  -4.988  1.00  0.00     0.009 C 
HETATM   19  C11 UNL     1      -3.925   3.203  -3.935  1.00  0.00     0.020 C 
HETATM   20  C12 UNL     1      -1.736   3.784  -4.968  1.00  0.00     0.020 C 
BRANCH  18  21
HETATM   21  C13 UNL     1      -3.482   5.589  -4.638  1.00  0.00     0.192 C 
BRANCH  21  22
HETATM   22  O4  UNL     1      -2.282   6.336  -4.636  1.00  0.00    -0.296 OA
BRANCH  22  23
HETATM   23  P1  UNL     1      -2.100   7.693  -5.470  1.00  0.00     0.401 P 
HETATM   24  O5  UNL     1      -1.783   7.483  -6.918  1.00  0.00    -0.631 OA
BRANCH  23  25
HETATM   25  O6  UNL     1      -1.005   8.577  -4.688  1.00  0.00    -0.307 OA
HETATM   26  H23 UNL     1      -1.348   9.447  -4.448  1.00  0.00     0.222 HD
ENDBRANCH  23  25
BRANCH  23  27
HETATM   27  O7  UNL     1      -3.426   8.527  -5.194  1.00  0.00    -0.195 OA
BRANCH  27  28
HETATM   28  P2  UNL     1      -4.266   9.070  -6.433  1.00  0.00     0.401 P 
HETATM   29  O8  UNL     1      -3.678  10.205  -7.206  1.00  0.00    -0.631 OA
BRANCH  28  30
HETATM   30  O9  UNL     1      -4.527   7.756  -7.303  1.00  0.00    -0.307 OA
HETATM   31  H24 UNL     1      -4.101   7.772  -8.195  1.00  0.00     0.222 HD
ENDBRANCH  28  30
BRANCH  28  32
HETATM   32  O10 UNL     1      -5.725   9.318  -5.832  1.00  0.00    -0.294 OA
BRANCH  32  33
HETATM   33  C14 UNL     1      -6.356  10.559  -6.009  1.00  0.00     0.215 C 
BRANCH  33  34
HETATM   34  C15 UNL     1      -7.830  10.254  -6.273  1.00  0.00     0.180 C 
HETATM   35  C16 UNL     1      -8.697  10.979  -5.253  1.00  0.00     0.197 C 
HETATM   36  C17 UNL     1      -9.405   9.872  -4.495  1.00  0.00     0.199 C 
HETATM   37  C18 UNL     1      -9.406   8.731  -5.515  1.00  0.00     0.262 C 
HETATM   38  O11 UNL     1      -8.135   8.857  -6.191  1.00  0.00    -0.353 OA
BRANCH  35  39
HETATM   39  O13 UNL     1      -9.608  11.812  -5.961  1.00  0.00    -0.286 OA
BRANCH  39  40
HETATM   40  P3  UNL     1      -9.569  13.363  -5.572  1.00  0.00     0.391 P 
HETATM   41  O14 UNL     1      -9.451  14.277  -6.748  1.00  0.00    -0.632 OA
BRANCH  40  42
HETATM   42  O15 UNL     1      -8.379  13.373  -4.503  1.00  0.00    -0.307 OA
HETATM   43  H36 UNL     1      -8.729  13.515  -3.592  1.00  0.00     0.222 HD
ENDBRANCH  40  42
BRANCH  40  44
HETATM   44  O16 UNL     1     -10.870  13.493  -4.665  1.00  0.00    -0.307 OA
HETATM   45  H37 UNL     1     -11.240  12.632  -4.412  1.00  0.00     0.222 HD
ENDBRANCH  40  44
ENDBRANCH  39  40
ENDBRANCH  35  39
BRANCH  36  46
HETATM   46  O12 UNL     1     -10.675  10.329  -4.021  1.00  0.00    -0.388 OA
HETATM   47  H35 UNL     1     -11.088  10.824  -4.768  1.00  0.00     0.210 HD
ENDBRANCH  36  46
BRANCH  37  48
HETATM   48  N3  UNL     1      -9.474   7.425  -4.890  1.00  0.00    -0.297 N 
HETATM   49  C19 UNL     1     -10.485   6.500  -5.005  1.00  0.00     0.188 A 
HETATM   50  N4  UNL     1     -10.189   5.362  -4.417  1.00  0.00    -0.346 N 
HETATM   51  C20 UNL     1      -8.920   5.556  -3.899  1.00  0.00     0.116 A 
HETATM   52  H4  UNL     1     -10.765   4.523  -4.356  1.00  0.00     0.167 HD
HETATM   53  C21 UNL     1      -8.037   4.715  -3.202  1.00  0.00     0.109 A 
HETATM   54  C23 UNL     1      -8.482   6.843  -4.151  1.00  0.00     0.142 A 
HETATM   55  N5  UNL     1      -6.839   5.214  -2.810  1.00  0.00    -0.341 N 
HETATM   56  C22 UNL     1      -6.555   6.498  -3.106  1.00  0.00     0.183 A 
HETATM   57  H5  UNL     1      -6.170   4.632  -2.305  1.00  0.00     0.167 HD
HETATM   58  N6  UNL     1      -7.313   7.391  -3.772  1.00  0.00    -0.336 N 
HETATM   59  H6  UNL     1      -7.038   8.355  -3.964  1.00  0.00     0.168 HD
BRANCH  53  60
HETATM   60  N7  UNL     1      -8.330   3.398  -2.883  1.00  0.00    -0.287 NA
HETATM   61  H33 UNL     1      -8.012   2.720  -3.571  1.00  0.00     0.125 HD
HETATM   62  H34 UNL     1      -9.267   3.279  -2.524  1.00  0.00     0.125 HD
ENDBRANCH  53  60
ENDBRANCH  37  48
ENDBRANCH  33  34
ENDBRANCH  32  33
ENDBRANCH  28  32
ENDBRANCH  27  28
ENDBRANCH  23  27
ENDBRANCH  22  23
ENDBRANCH  21  22
ENDBRANCH  18  21
ENDBRANCH  17  18
BRANCH  17  63
HETATM   63  O17 UNL     1      -3.591   5.057  -7.183  1.00  0.00    -0.385 OA
HETATM   64  H38 UNL     1      -4.359   5.214  -7.758  1.00  0.00     0.210 HD
ENDBRANCH  17  63
ENDBRANCH  14  17
ENDBRANCH  12  13
ENDBRANCH  11  12
ENDBRANCH   8  11
ENDBRANCH   6   7
ENDBRANCH   5   6
ENDBRANCH   4   5
ENDBRANCH   2   4
TORSDOF 27
ENDMDL
MODEL 18
REMARK VINA RESULT:      -6.1      2.631      3.643
REMARK  27 active torsions:
REMARK  status: ('A' for Active; 'I' for Inactive)
REMARK    1  A    between atoms: C2_2  and  S1_4 
REMARK    2  A    between atoms: S1_4  and  C3_5 
REMARK    3  A    between atoms: C3_5  and  C4_6 
REMARK    4  A    between atoms: C4_6  and  N1_7 
REMARK       I    between atoms: N1_7  and  C5_8 
REMARK    5  A    between atoms: C5_8  and  C6_10 
REMARK    6  A    between atoms: C6_10  and  C7_11 
REMARK    7  A    between atoms: C7_11  and  N2_12 
REMARK       I    between atoms: N2_12  and  C8_13 
REMARK    8  A    between atoms: C8_13  and  C9_15 
REMARK    9  A    between atoms: C9_15  and  C10_16 
REMARK   10  A    between atoms: C9_15  and  O17_54 
REMARK   11  A    between atoms: C10_16  and  C13_19 
REMARK   12  A    between atoms: C13_19  and  O4_20 
REMARK   13  A    between atoms: O4_20  and  P1_21 
REMARK   14  A    between atoms: P1_21  and  O6_23 
REMARK   15  A    between atoms: P1_21  and  O7_24 
REMARK   16  A    between atoms: O7_24  and  P2_25 
REMARK   17  A    between atoms: P2_25  and  O9_27 
REMARK   18  A    between atoms: P2_25  and  O10_28 
REMARK   19  A    between atoms: O10_28  and  C14_29 
REMARK   20  A    between atoms: C14_29  and  C15_30 
REMARK   21  A    between atoms: C16_31  and  O13_49 
REMARK   22  A    between atoms: C17_32  and  O12_48 
REMARK   23  A    between atoms: C18_33  and  N3_35 
REMARK   24  A    between atoms: C21_40  and  N7_47 
REMARK   25  A    between atoms: O13_49  and  P3_50 
REMARK   26  A    between atoms: P3_50  and  O15_52 
REMARK   27  A    between atoms: P3_50  and  O16_53 
ROOT
HETATM    1  C1  UNL     1      -8.663  10.319  -3.022  1.00  0.00     0.104 C 
HETATM    2  C2  UNL     1      -8.732  11.330  -4.125  1.00  0.00     0.182 C 
HETATM    3  O1  UNL     1      -8.314  12.480  -4.013  1.00  0.00    -0.286 OA
ENDROOT
BRANCH   2   4
HETATM    4  S1  UNL     1      -9.504  10.749  -5.595  1.00  0.00    -0.091 SA
BRANCH   4   5
HETATM    5  C3  UNL     1      -9.354   8.950  -5.349  1.00  0.00     0.102 C 
BRANCH   5   6
HETATM    6  C4  UNL     1     -10.030   8.163  -6.474  1.00  0.00     0.133 C 
BRANCH   6   7
HETATM    7  N1  UNL     1      -9.081   7.618  -7.422  1.00  0.00    -0.360 N 
HETATM    8  C5  UNL     1      -8.942   6.262  -7.609  1.00  0.00     0.219 C 
HETATM    9  O2  UNL     1      -9.547   5.437  -6.934  1.00  0.00    -0.274 OA
HETATM   10  H8  UNL     1      -8.514   8.256  -7.965  1.00  0.00     0.162 HD
BRANCH   8  11
HETATM   11  C6  UNL     1      -7.938   5.905  -8.684  1.00  0.00     0.122 C 
BRANCH  11  12
HETATM   12  C7  UNL     1      -7.422   7.143  -9.416  1.00  0.00     0.132 C 
BRANCH  12  13
HETATM   13  N2  UNL     1      -6.021   7.407  -9.165  1.00  0.00    -0.358 N 
HETATM   14  C8  UNL     1      -5.646   8.291  -8.170  1.00  0.00     0.247 C 
HETATM   15  O3  UNL     1      -6.463   8.963  -7.554  1.00  0.00    -0.271 OA
HETATM   16  H13 UNL     1      -5.386   6.637  -9.367  1.00  0.00     0.162 HD
BRANCH  14  17
HETATM   17  C9  UNL     1      -4.137   8.345  -7.891  1.00  0.00     0.219 C 
BRANCH  17  18
HETATM   18  C10 UNL     1      -3.757   8.991  -6.533  1.00  0.00     0.009 C 
HETATM   19  C11 UNL     1      -3.756  10.525  -6.601  1.00  0.00     0.020 C 
HETATM   20  C12 UNL     1      -4.729   8.566  -5.414  1.00  0.00     0.020 C 
BRANCH  18  21
HETATM   21  C13 UNL     1      -2.324   8.481  -6.204  1.00  0.00     0.192 C 
BRANCH  21  22
HETATM   22  O4  UNL     1      -2.113   8.326  -4.815  1.00  0.00    -0.296 OA
BRANCH  22  23
HETATM   23  P1  UNL     1      -0.810   7.618  -4.206  1.00  0.00     0.401 P 
HETATM   24  O5  UNL     1      -0.765   7.601  -2.711  1.00  0.00    -0.631 OA
BRANCH  23  25
HETATM   25  O6  UNL     1       0.465   8.327  -4.886  1.00  0.00    -0.307 OA
HETATM   26  H23 UNL     1       0.766   9.093  -4.380  1.00  0.00     0.222 HD
ENDBRANCH  23  25
BRANCH  23  27
HETATM   27  O7  UNL     1      -0.765   6.182  -4.889  1.00  0.00    -0.195 OA
BRANCH  27  28
HETATM   28  P2  UNL     1      -1.676   5.018  -4.295  1.00  0.00     0.401 P 
HETATM   29  O8  UNL     1      -1.043   4.109  -3.292  1.00  0.00    -0.631 OA
BRANCH  28  30
HETATM   30  O9  UNL     1      -2.958   5.798  -3.749  1.00  0.00    -0.307 OA
HETATM   31  H24 UNL     1      -3.819   5.431  -4.066  1.00  0.00     0.222 HD
ENDBRANCH  28  30
BRANCH  28  32
HETATM   32  O10 UNL     1      -2.291   4.310  -5.587  1.00  0.00    -0.294 OA
BRANCH  32  33
HETATM   33  C14 UNL     1      -3.676   4.345  -5.815  1.00  0.00     0.215 C 
BRANCH  33  34
HETATM   34  C15 UNL     1      -4.188   2.932  -5.547  1.00  0.00     0.180 C 
HETATM   35  C16 UNL     1      -4.747   2.845  -4.133  1.00  0.00     0.197 C 
HETATM   36  C17 UNL     1      -3.869   1.824  -3.435  1.00  0.00     0.199 C 
HETATM   37  C18 UNL     1      -3.360   0.980  -4.607  1.00  0.00     0.262 C 
HETATM   38  O11 UNL     1      -3.169   1.934  -5.675  1.00  0.00    -0.353 OA
BRANCH  35  39
HETATM   39  O13 UNL     1      -6.102   2.418  -4.219  1.00  0.00    -0.286 OA
BRANCH  39  40
HETATM   40  P3  UNL     1      -7.192   3.485  -3.739  1.00  0.00     0.391 P 
HETATM   41  O14 UNL     1      -8.319   2.886  -2.960  1.00  0.00    -0.632 OA
BRANCH  40  42
HETATM   42  O15 UNL     1      -7.547   4.196  -5.127  1.00  0.00    -0.307 OA
HETATM   43  H36 UNL     1      -7.883   3.537  -5.780  1.00  0.00     0.222 HD
ENDBRANCH  40  42
BRANCH  40  44
HETATM   44  O16 UNL     1      -6.279   4.560  -3.004  1.00  0.00    -0.307 OA
HETATM   45  H37 UNL     1      -5.786   5.121  -3.624  1.00  0.00     0.222 HD
ENDBRANCH  40  44
ENDBRANCH  39  40
ENDBRANCH  35  39
BRANCH  36  46
HETATM   46  O12 UNL     1      -4.608   1.150  -2.413  1.00  0.00    -0.388 OA
HETATM   47  H35 UNL     1      -3.990   1.034  -1.653  1.00  0.00     0.210 HD
ENDBRANCH  36  46
BRANCH  37  48
HETATM   48  N3  UNL     1      -2.092   0.339  -4.322  1.00  0.00    -0.297 N 
HETATM   49  C19 UNL     1      -1.026   0.873  -3.637  1.00  0.00     0.188 A 
HETATM   50  N4  UNL     1      -0.070  -0.008  -3.436  1.00  0.00    -0.346 N 
HETATM   51  C20 UNL     1      -0.542  -1.172  -4.015  1.00  0.00     0.116 A 
HETATM   52  H4  UNL     1       0.820   0.135  -2.960  1.00  0.00     0.167 HD
HETATM   53  C21 UNL     1      -0.018  -2.474  -4.103  1.00  0.00     0.109 A 
HETATM   54  C23 UNL     1      -1.777  -0.961  -4.602  1.00  0.00     0.142 A 
HETATM   55  N5  UNL     1      -0.733  -3.419  -4.761  1.00  0.00    -0.341 N 
HETATM   56  C22 UNL     1      -1.913  -3.062  -5.305  1.00  0.00     0.183 A 
HETATM   57  H5  UNL     1      -0.386  -4.374  -4.843  1.00  0.00     0.167 HD
HETATM   58  N6  UNL     1      -2.518  -1.857  -5.279  1.00  0.00    -0.336 N 
HETATM   59  H6  UNL     1      -3.418  -1.651  -5.713  1.00  0.00     0.168 HD
BRANCH  53  60
HETATM   60  N7  UNL     1       1.202  -2.842  -3.558  1.00  0.00    -0.287 NA
HETATM   61  H33 UNL     1       1.700  -3.553  -4.089  1.00  0.00     0.125 HD
HETATM   62  H34 UNL     1       1.166  -2.964  -2.555  1.00  0.00     0.125 HD
ENDBRANCH  53  60
ENDBRANCH  37  48
ENDBRANCH  33  34
ENDBRANCH  32  33
ENDBRANCH  28  32
ENDBRANCH  27  28
ENDBRANCH  23  27
ENDBRANCH  22  23
ENDBRANCH  21  22
ENDBRANCH  18  21
ENDBRANCH  17  18
BRANCH  17  63
HETATM   63  O17 UNL     1      -3.579   7.027  -7.940  1.00  0.00    -0.385 OA
HETATM   64  H38 UNL     1      -2.873   6.974  -7.274  1.00  0.00     0.210 HD
ENDBRANCH  17  63
ENDBRANCH  14  17
ENDBRANCH  12  13
ENDBRANCH  11  12
ENDBRANCH   8  11
ENDBRANCH   6   7
ENDBRANCH   5   6
ENDBRANCH   4   5
ENDBRANCH   2   4
TORSDOF 27
ENDMDL
MODEL 19
REMARK VINA RESULT:      -6.0      3.885      7.941
REMARK  27 active torsions:
REMARK  status: ('A' for Active; 'I' for Inactive)
REMARK    1  A    between atoms: C2_2  and  S1_4 
REMARK    2  A    between atoms: S1_4  and  C3_5 
REMARK    3  A    between atoms: C3_5  and  C4_6 
REMARK    4  A    between atoms: C4_6  and  N1_7 
REMARK       I    between atoms: N1_7  and  C5_8 
REMARK    5  A    between atoms: C5_8  and  C6_10 
REMARK    6  A    between atoms: C6_10  and  C7_11 
REMARK    7  A    between atoms: C7_11  and  N2_12 
REMARK       I    between atoms: N2_12  and  C8_13 
REMARK    8  A    between atoms: C8_13  and  C9_15 
REMARK    9  A    between atoms: C9_15  and  C10_16 
REMARK   10  A    between atoms: C9_15  and  O17_54 
REMARK   11  A    between atoms: C10_16  and  C13_19 
REMARK   12  A    between atoms: C13_19  and  O4_20 
REMARK   13  A    between atoms: O4_20  and  P1_21 
REMARK   14  A    between atoms: P1_21  and  O6_23 
REMARK   15  A    between atoms: P1_21  and  O7_24 
REMARK   16  A    between atoms: O7_24  and  P2_25 
REMARK   17  A    between atoms: P2_25  and  O9_27 
REMARK   18  A    between atoms: P2_25  and  O10_28 
REMARK   19  A    between atoms: O10_28  and  C14_29 
REMARK   20  A    between atoms: C14_29  and  C15_30 
REMARK   21  A    between atoms: C16_31  and  O13_49 
REMARK   22  A    between atoms: C17_32  and  O12_48 
REMARK   23  A    between atoms: C18_33  and  N3_35 
REMARK   24  A    between atoms: C21_40  and  N7_47 
REMARK   25  A    between atoms: O13_49  and  P3_50 
REMARK   26  A    between atoms: P3_50  and  O15_52 
REMARK   27  A    between atoms: P3_50  and  O16_53 
ROOT
HETATM    1  C1  UNL     1      -0.050  -5.099  -7.079  1.00  0.00     0.104 C 
HETATM    2  C2  UNL     1      -1.258  -4.221  -6.954  1.00  0.00     0.182 C 
HETATM    3  O1  UNL     1      -2.312  -4.436  -7.547  1.00  0.00    -0.286 OA
ENDROOT
BRANCH   2   4
HETATM    4  S1  UNL     1      -1.034  -2.823  -5.911  1.00  0.00    -0.091 SA
BRANCH   4   5
HETATM    5  C3  UNL     1      -2.701  -2.092  -5.987  1.00  0.00     0.102 C 
BRANCH   5   6
HETATM    6  C4  UNL     1      -2.713  -0.782  -6.776  1.00  0.00     0.133 C 
BRANCH   6   7
HETATM    7  N1  UNL     1      -3.993  -0.106  -6.719  1.00  0.00    -0.360 N 
HETATM    8  C5  UNL     1      -4.097   1.260  -6.845  1.00  0.00     0.219 C 
HETATM    9  O2  UNL     1      -3.117   1.991  -6.932  1.00  0.00    -0.274 OA
HETATM   10  H8  UNL     1      -4.829  -0.659  -6.590  1.00  0.00     0.162 HD
BRANCH   8  11
HETATM   11  C6  UNL     1      -5.526   1.758  -6.813  1.00  0.00     0.122 C 
BRANCH  11  12
HETATM   12  C7  UNL     1      -5.669   3.126  -7.479  1.00  0.00     0.132 C 
BRANCH  12  13
HETATM   13  N2  UNL     1      -6.817   3.212  -8.356  1.00  0.00    -0.358 N 
HETATM   14  C8  UNL     1      -7.138   4.410  -8.968  1.00  0.00     0.247 C 
HETATM   15  O3  UNL     1      -6.551   5.453  -8.707  1.00  0.00    -0.271 OA
HETATM   16  H13 UNL     1      -7.053   2.357  -8.855  1.00  0.00     0.162 HD
BRANCH  14  17
HETATM   17  C9  UNL     1      -8.266   4.321 -10.007  1.00  0.00     0.219 C 
BRANCH  17  18
HETATM   18  C10 UNL     1      -9.646   4.818  -9.500  1.00  0.00     0.009 C 
HETATM   19  C11 UNL     1     -10.726   4.732 -10.589  1.00  0.00     0.020 C 
HETATM   20  C12 UNL     1     -10.130   4.001  -8.285  1.00  0.00     0.020 C 
BRANCH  18  21
HETATM   21  C13 UNL     1      -9.439   6.303  -9.086  1.00  0.00     0.192 C 
BRANCH  21  22
HETATM   22  O4  UNL     1      -9.643   6.509  -7.702  1.00  0.00    -0.296 OA
BRANCH  22  23
HETATM   23  P1  UNL     1      -9.407   7.926  -6.989  1.00  0.00     0.401 P 
HETATM   24  O5  UNL     1     -10.652   8.552  -6.445  1.00  0.00    -0.631 OA
BRANCH  23  25
HETATM   25  O6  UNL     1      -8.622   8.853  -8.045  1.00  0.00    -0.307 OA
HETATM   26  H23 UNL     1      -7.792   8.452  -8.333  1.00  0.00     0.222 HD
ENDBRANCH  23  25
BRANCH  23  27
HETATM   27  O7  UNL     1      -8.271   7.658  -5.909  1.00  0.00    -0.195 OA
BRANCH  27  28
HETATM   28  P2  UNL     1      -8.385   6.373  -4.974  1.00  0.00     0.401 P 
HETATM   29  O8  UNL     1      -9.677   6.174  -4.251  1.00  0.00    -0.631 OA
BRANCH  28  30
HETATM   30  O9  UNL     1      -7.994   5.172  -5.952  1.00  0.00    -0.307 OA
HETATM   31  H24 UNL     1      -7.180   4.681  -5.682  1.00  0.00     0.222 HD
ENDBRANCH  28  30
BRANCH  28  32
HETATM   32  O10 UNL     1      -7.077   6.444  -4.059  1.00  0.00    -0.294 OA
BRANCH  32  33
HETATM   33  C14 UNL     1      -5.985   5.604  -4.329  1.00  0.00     0.215 C 
BRANCH  33  34
HETATM   34  C15 UNL     1      -4.734   6.466  -4.168  1.00  0.00     0.180 C 
HETATM   35  C16 UNL     1      -4.221   6.889  -5.538  1.00  0.00     0.197 C 
HETATM   36  C17 UNL     1      -2.839   6.271  -5.639  1.00  0.00     0.199 C 
HETATM   37  C18 UNL     1      -2.439   6.134  -4.167  1.00  0.00     0.262 C 
HETATM   38  O11 UNL     1      -3.669   5.785  -3.495  1.00  0.00    -0.353 OA
BRANCH  35  39
HETATM   39  O13 UNL     1      -4.177   8.311  -5.573  1.00  0.00    -0.286 OA
BRANCH  39  40
HETATM   40  P3  UNL     1      -5.055   9.000  -6.718  1.00  0.00     0.391 P 
HETATM   41  O14 UNL     1      -5.907  10.126  -6.229  1.00  0.00    -0.632 OA
BRANCH  40  42
HETATM   42  O15 UNL     1      -5.796   7.724  -7.335  1.00  0.00    -0.307 OA
HETATM   43  H36 UNL     1      -6.103   7.910  -8.255  1.00  0.00     0.222 HD
ENDBRANCH  40  42
BRANCH  40  44
HETATM   44  O16 UNL     1      -3.945   9.336  -7.807  1.00  0.00    -0.307 OA
HETATM   45  H37 UNL     1      -3.077   9.519  -7.415  1.00  0.00     0.222 HD
ENDBRANCH  40  44
ENDBRANCH  39  40
ENDBRANCH  35  39
BRANCH  36  46
HETATM   46  O12 UNL     1      -1.998   7.070  -6.476  1.00  0.00    -0.388 OA
HETATM   47  H35 UNL     1      -2.162   6.769  -7.401  1.00  0.00     0.210 HD
ENDBRANCH  36  46
BRANCH  37  48
HETATM   48  N3  UNL     1      -1.472   5.077  -3.950  1.00  0.00    -0.297 N 
HETATM   49  C19 UNL     1      -0.114   5.214  -3.781  1.00  0.00     0.188 A 
HETATM   50  N4  UNL     1       0.468   4.075  -3.477  1.00  0.00    -0.346 N 
HETATM   51  C20 UNL     1      -0.564   3.154  -3.441  1.00  0.00     0.116 A 
HETATM   52  H4  UNL     1       1.459   3.907  -3.305  1.00  0.00     0.167 HD
HETATM   53  C21 UNL     1      -0.608   1.782  -3.137  1.00  0.00     0.109 A 
HETATM   54  C23 UNL     1      -1.766   3.754  -3.771  1.00  0.00     0.142 A 
HETATM   55  N5  UNL     1      -1.800   1.140  -3.203  1.00  0.00    -0.341 N 
HETATM   56  C22 UNL     1      -2.888   1.850  -3.562  1.00  0.00     0.183 A 
HETATM   57  H5  UNL     1      -1.871   0.146  -2.985  1.00  0.00     0.167 HD
HETATM   58  N6  UNL     1      -2.970   3.161  -3.866  1.00  0.00    -0.336 N 
HETATM   59  H6  UNL     1      -3.830   3.641  -4.133  1.00  0.00     0.168 HD
BRANCH  53  60
HETATM   60  N7  UNL     1       0.510   1.045  -2.781  1.00  0.00    -0.287 NA
HETATM   61  H33 UNL     1       0.847   0.417  -3.508  1.00  0.00     0.125 HD
HETATM   62  H34 UNL     1       0.453   0.669  -1.844  1.00  0.00     0.125 HD
ENDBRANCH  53  60
ENDBRANCH  37  48
ENDBRANCH  33  34
ENDBRANCH  32  33
ENDBRANCH  28  32
ENDBRANCH  27  28
ENDBRANCH  23  27
ENDBRANCH  22  23
ENDBRANCH  21  22
ENDBRANCH  18  21
ENDBRANCH  17  18
BRANCH  17  63
HETATM   63  O17 UNL     1      -7.917   5.066 -11.179  1.00  0.00    -0.385 OA
HETATM   64  H38 UNL     1      -7.028   4.790 -11.458  1.00  0.00     0.210 HD
ENDBRANCH  17  63
ENDBRANCH  14  17
ENDBRANCH  12  13
ENDBRANCH  11  12
ENDBRANCH   8  11
ENDBRANCH   6   7
ENDBRANCH   5   6
ENDBRANCH   4   5
ENDBRANCH   2   4
TORSDOF 27
ENDMDL
MODEL 20
REMARK VINA RESULT:      -5.9      3.355      5.003
REMARK  27 active torsions:
REMARK  status: ('A' for Active; 'I' for Inactive)
REMARK    1  A    between atoms: C2_2  and  S1_4 
REMARK    2  A    between atoms: S1_4  and  C3_5 
REMARK    3  A    between atoms: C3_5  and  C4_6 
REMARK    4  A    between atoms: C4_6  and  N1_7 
REMARK       I    between atoms: N1_7  and  C5_8 
REMARK    5  A    between atoms: C5_8  and  C6_10 
REMARK    6  A    between atoms: C6_10  and  C7_11 
REMARK    7  A    between atoms: C7_11  and  N2_12 
REMARK       I    between atoms: N2_12  and  C8_13 
REMARK    8  A    between atoms: C8_13  and  C9_15 
REMARK    9  A    between atoms: C9_15  and  C10_16 
REMARK   10  A    between atoms: C9_15  and  O17_54 
REMARK   11  A    between atoms: C10_16  and  C13_19 
REMARK   12  A    between atoms: C13_19  and  O4_20 
REMARK   13  A    between atoms: O4_20  and  P1_21 
REMARK   14  A    between atoms: P1_21  and  O6_23 
REMARK   15  A    between atoms: P1_21  and  O7_24 
REMARK   16  A    between atoms: O7_24  and  P2_25 
REMARK   17  A    between atoms: P2_25  and  O9_27 
REMARK   18  A    between atoms: P2_25  and  O10_28 
REMARK   19  A    between atoms: O10_28  and  C14_29 
REMARK   20  A    between atoms: C14_29  and  C15_30 
REMARK   21  A    between atoms: C16_31  and  O13_49 
REMARK   22  A    between atoms: C17_32  and  O12_48 
REMARK   23  A    between atoms: C18_33  and  N3_35 
REMARK   24  A    between atoms: C21_40  and  N7_47 
REMARK   25  A    between atoms: O13_49  and  P3_50 
REMARK   26  A    between atoms: P3_50  and  O15_52 
REMARK   27  A    between atoms: P3_50  and  O16_53 
ROOT
HETATM    1  C1  UNL     1     -11.021   0.583  -8.603  1.00  0.00     0.104 C 
HETATM    2  C2  UNL     1     -11.959   0.737  -7.445  1.00  0.00     0.182 C 
HETATM    3  O1  UNL     1     -12.390   1.824  -7.066  1.00  0.00    -0.286 OA
ENDROOT
BRANCH   2   4
HETATM    4  S1  UNL     1     -12.369  -0.770  -6.638  1.00  0.00    -0.091 SA
BRANCH   4   5
HETATM    5  C3  UNL     1     -10.862  -1.025  -5.645  1.00  0.00     0.102 C 
BRANCH   5   6
HETATM    6  C4  UNL     1     -11.009  -0.459  -4.231  1.00  0.00     0.133 C 
BRANCH   6   7
HETATM    7  N1  UNL     1     -11.752   0.784  -4.201  1.00  0.00    -0.360 N 
HETATM    8  C5  UNL     1     -11.354   1.846  -3.423  1.00  0.00     0.219 C 
HETATM    9  O2  UNL     1     -10.403   1.781  -2.653  1.00  0.00    -0.274 OA
HETATM   10  H8  UNL     1     -12.581   0.869  -4.774  1.00  0.00     0.162 HD
BRANCH   8  11
HETATM   11  C6  UNL     1     -12.237   3.066  -3.578  1.00  0.00     0.122 C 
BRANCH  11  12
HETATM   12  C7  UNL     1     -11.480   4.243  -4.192  1.00  0.00     0.132 C 
BRANCH  12  13
HETATM   13  N2  UNL     1     -10.961   3.958  -5.513  1.00  0.00    -0.358 N 
HETATM   14  C8  UNL     1      -9.601   3.797  -5.708  1.00  0.00     0.247 C 
HETATM   15  O3  UNL     1      -8.786   4.004  -4.817  1.00  0.00    -0.271 OA
HETATM   16  H13 UNL     1     -11.583   3.434  -6.125  1.00  0.00     0.162 HD
BRANCH  14  17
HETATM   17  C9  UNL     1      -9.203   3.324  -7.114  1.00  0.00     0.219 C 
BRANCH  17  18
HETATM   18  C10 UNL     1      -8.615   4.435  -8.023  1.00  0.00     0.009 C 
HETATM   19  C11 UNL     1      -9.161   4.359  -9.456  1.00  0.00     0.020 C 
HETATM   20  C12 UNL     1      -8.924   5.841  -7.471  1.00  0.00     0.020 C 
BRANCH  18  21
HETATM   21  C13 UNL     1      -7.076   4.204  -8.038  1.00  0.00     0.192 C 
BRANCH  21  22
HETATM   22  O4  UNL     1      -6.456   4.632  -6.842  1.00  0.00    -0.296 OA
BRANCH  22  23
HETATM   23  P1  UNL     1      -4.987   5.273  -6.804  1.00  0.00     0.401 P 
HETATM   24  O5  UNL     1      -4.896   6.550  -6.029  1.00  0.00    -0.631 OA
BRANCH  23  25
HETATM   25  O6  UNL     1      -4.496   5.403  -8.331  1.00  0.00    -0.307 OA
HETATM   26  H23 UNL     1      -4.340   4.540  -8.736  1.00  0.00     0.222 HD
ENDBRANCH  23  25
BRANCH  23  27
HETATM   27  O7  UNL     1      -4.044   4.106  -6.275  1.00  0.00    -0.195 OA
BRANCH  27  28
HETATM   28  P2  UNL     1      -2.848   4.471  -5.287  1.00  0.00     0.401 P 
HETATM   29  O8  UNL     1      -1.913   5.551  -5.726  1.00  0.00    -0.631 OA
BRANCH  28  30
HETATM   30  O9  UNL     1      -3.591   4.774  -3.907  1.00  0.00    -0.307 OA
HETATM   31  H24 UNL     1      -3.789   5.730  -3.757  1.00  0.00     0.222 HD
ENDBRANCH  28  30
BRANCH  28  32
HETATM   32  O10 UNL     1      -2.177   3.060  -4.956  1.00  0.00    -0.294 OA
BRANCH  32  33
HETATM   33  C14 UNL     1      -2.687   2.267  -3.916  1.00  0.00     0.215 C 
BRANCH  33  34
HETATM   34  C15 UNL     1      -3.511   1.167  -4.582  1.00  0.00     0.180 C 
HETATM   35  C16 UNL     1      -4.199   0.322  -3.519  1.00  0.00     0.197 C 
HETATM   36  C17 UNL     1      -3.626  -1.070  -3.703  1.00  0.00     0.199 C 
HETATM   37  C18 UNL     1      -3.207  -1.054  -5.175  1.00  0.00     0.262 C 
HETATM   38  O11 UNL     1      -2.721   0.290  -5.393  1.00  0.00    -0.353 OA
BRANCH  35  39
HETATM   39  O13 UNL     1      -5.602   0.362  -3.763  1.00  0.00    -0.286 OA
BRANCH  39  40
HETATM   40  P3  UNL     1      -6.266   1.816  -3.729  1.00  0.00     0.391 P 
HETATM   41  O14 UNL     1      -5.667   2.729  -2.709  1.00  0.00    -0.632 OA
BRANCH  40  42
HETATM   42  O15 UNL     1      -7.811   1.435  -3.567  1.00  0.00    -0.307 OA
HETATM   43  H36 UNL     1      -7.909   0.554  -3.134  1.00  0.00     0.222 HD
ENDBRANCH  40  42
BRANCH  40  44
HETATM   44  O16 UNL     1      -6.158   2.246  -5.257  1.00  0.00    -0.307 OA
HETATM   45  H37 UNL     1      -5.933   3.183  -5.368  1.00  0.00     0.222 HD
ENDBRANCH  40  44
ENDBRANCH  39  40
ENDBRANCH  35  39
BRANCH  36  46
HETATM   46  O12 UNL     1      -4.581  -2.057  -3.303  1.00  0.00    -0.388 OA
HETATM   47  H35 UNL     1      -4.750  -2.618  -4.097  1.00  0.00     0.210 HD
ENDBRANCH  36  46
BRANCH  37  48
HETATM   48  N3  UNL     1      -2.136  -1.988  -5.459  1.00  0.00    -0.297 N 
HETATM   49  C19 UNL     1      -2.207  -3.125  -6.230  1.00  0.00     0.188 A 
HETATM   50  N4  UNL     1      -1.030  -3.688  -6.397  1.00  0.00    -0.346 N 
HETATM   51  C20 UNL     1      -0.152  -2.874  -5.703  1.00  0.00     0.116 A 
HETATM   52  H4  UNL     1      -0.813  -4.536  -6.920  1.00  0.00     0.167 HD
HETATM   53  C21 UNL     1       1.243  -2.907  -5.530  1.00  0.00     0.109 A 
HETATM   54  C23 UNL     1      -0.829  -1.839  -5.085  1.00  0.00     0.142 A 
HETATM   55  N5  UNL     1       1.824  -1.950  -4.766  1.00  0.00    -0.341 N 
HETATM   56  C22 UNL     1       1.034  -1.014  -4.204  1.00  0.00     0.183 A 
HETATM   57  H5  UNL     1       2.834  -1.939  -4.620  1.00  0.00     0.167 HD
HETATM   58  N6  UNL     1      -0.304  -0.877  -4.306  1.00  0.00    -0.336 N 
HETATM   59  H6  UNL     1      -0.846  -0.141  -3.852  1.00  0.00     0.168 HD
BRANCH  53  60
HETATM   60  N7  UNL     1       2.058  -3.876  -6.093  1.00  0.00    -0.287 NA
HETATM   61  H33 UNL     1       2.902  -3.511  -6.529  1.00  0.00     0.125 HD
HETATM   62  H34 UNL     1       1.542  -4.573  -6.612  1.00  0.00     0.125 HD
ENDBRANCH  53  60
ENDBRANCH  37  48
ENDBRANCH  33  34
ENDBRANCH  32  33
ENDBRANCH  28  32
ENDBRANCH  27  28
ENDBRANCH  23  27
ENDBRANCH  22  23
ENDBRANCH  21  22
ENDBRANCH  18  21
ENDBRANCH  17  18
BRANCH  17  63
HETATM   63  O17 UNL     1      -8.251   2.259  -7.024  1.00  0.00    -0.385 OA
HETATM   64  H38 UNL     1      -7.676   2.431  -6.259  1.00  0.00     0.210 HD
ENDBRANCH  17  63
ENDBRANCH  14  17
ENDBRANCH  12  13
ENDBRANCH  11  12
ENDBRANCH   8  11
ENDBRANCH   6   7
ENDBRANCH   5   6
ENDBRANCH   4   5
ENDBRANCH   2   4
TORSDOF 27
ENDMDL
