MODEL 1
REMARK VINA RESULT:      -3.9      0.000      0.000
REMARK  2 active torsions:
REMARK  status: ('A' for Active; 'I' for Inactive)
REMARK    1  A    between atoms: C3_3  and  O1_8 
REMARK    2  A    between atoms: C6_6  and  N1_7 
ROOT
HETATM    1  C1  UNL     1       3.638   1.407  -3.666  1.00  0.00     0.026 A 
HETATM    2  C2  UNL     1       2.457   0.710  -3.401  1.00  0.00     0.038 A 
HETATM    3  C3  UNL     1       1.473   1.296  -2.618  1.00  0.00     0.065 A 
HETATM    4  C4  UNL     1       1.644   2.578  -2.109  1.00  0.00     0.038 A 
HETATM    5  C5  UNL     1       2.829   3.270  -2.377  1.00  0.00     0.026 A 
HETATM    6  C6  UNL     1       3.857   2.673  -3.114  1.00  0.00     0.005 A 
ENDROOT
BRANCH   6   7
HETATM    7  N1  UNL     1       4.986   3.416  -3.477  1.00  0.00    -0.303 NA
HETATM    8  H5  UNL     1       5.385   3.951  -2.712  1.00  0.00     0.124 HD
HETATM    9  H6  UNL     1       4.859   3.974  -4.314  1.00  0.00     0.124 HD
ENDBRANCH   6   7
BRANCH   3  10
HETATM   10  O1  UNL     1       0.334   0.584  -2.385  1.00  0.00    -0.361 OA
HETATM   11  H7  UNL     1       0.228   0.475  -1.427  1.00  0.00     0.217 HD
ENDBRANCH   3  10
TORSDOF 2
ENDMDL
MODEL 2
REMARK VINA RESULT:      -3.9      2.779      3.264
REMARK  2 active torsions:
REMARK  status: ('A' for Active; 'I' for Inactive)
REMARK    1  A    between atoms: C3_3  and  O1_8 
REMARK    2  A    between atoms: C6_6  and  N1_7 
ROOT
HETATM    1  C1  UNL     1       2.451   0.818  -3.420  1.00  0.00     0.026 A 
HETATM    2  C2  UNL     1       3.628   1.502  -3.735  1.00  0.00     0.038 A 
HETATM    3  C3  UNL     1       3.844   2.772  -3.221  1.00  0.00     0.065 A 
HETATM    4  C4  UNL     1       2.907   3.365  -2.382  1.00  0.00     0.038 A 
HETATM    5  C5  UNL     1       1.731   2.676  -2.072  1.00  0.00     0.026 A 
HETATM    6  C6  UNL     1       1.469   1.419  -2.627  1.00  0.00     0.005 A 
ENDROOT
BRANCH   6   7
HETATM    7  N1  UNL     1       0.348   0.688  -2.218  1.00  0.00    -0.303 NA
HETATM    8  H5  UNL     1      -0.330   0.533  -2.958  1.00  0.00     0.124 HD
HETATM    9  H6  UNL     1      -0.081   1.036  -1.368  1.00  0.00     0.124 HD
ENDBRANCH   6   7
BRANCH   3  10
HETATM   10  O1  UNL     1       5.005   3.405  -3.549  1.00  0.00    -0.361 OA
HETATM   11  H7  UNL     1       5.692   2.735  -3.695  1.00  0.00     0.217 HD
ENDBRANCH   3  10
TORSDOF 2
ENDMDL
MODEL 3
REMARK VINA RESULT:      -3.9      1.652      2.353
REMARK  2 active torsions:
REMARK  status: ('A' for Active; 'I' for Inactive)
REMARK    1  A    between atoms: C3_3  and  O1_8 
REMARK    2  A    between atoms: C6_6  and  N1_7 
ROOT
HETATM    1  C1  UNL     1       1.189   2.571  -1.789  1.00  0.00     0.026 A 
HETATM    2  C2  UNL     1       0.548   1.854  -2.802  1.00  0.00     0.038 A 
HETATM    3  C3  UNL     1       1.268   1.440  -3.914  1.00  0.00     0.065 A 
HETATM    4  C4  UNL     1       2.626   1.719  -4.021  1.00  0.00     0.038 A 
HETATM    5  C5  UNL     1       3.261   2.437  -3.004  1.00  0.00     0.026 A 
HETATM    6  C6  UNL     1       2.539   2.913  -1.904  1.00  0.00     0.005 A 
ENDROOT
BRANCH   6   7
HETATM    7  N1  UNL     1       3.205   3.527  -0.837  1.00  0.00    -0.303 NA
HETATM    8  H5  UNL     1       2.807   3.308   0.071  1.00  0.00     0.124 HD
HETATM    9  H6  UNL     1       3.354   4.522  -0.964  1.00  0.00     0.124 HD
ENDBRANCH   6   7
BRANCH   3  10
HETATM   10  O1  UNL     1       0.607   0.741  -4.879  1.00  0.00    -0.361 OA
HETATM   11  H7  UNL     1       1.255   0.233  -5.392  1.00  0.00     0.217 HD
ENDBRANCH   3  10
TORSDOF 2
ENDMDL
MODEL 4
REMARK VINA RESULT:      -3.9      5.664      6.731
REMARK  2 active torsions:
REMARK  status: ('A' for Active; 'I' for Inactive)
REMARK    1  A    between atoms: C3_3  and  O1_8 
REMARK    2  A    between atoms: C6_6  and  N1_7 
ROOT
HETATM    1  C1  UNL     1      -3.362   4.202  -0.419  1.00  0.00     0.026 A 
HETATM    2  C2  UNL     1      -2.210   4.374  -1.189  1.00  0.00     0.038 A 
HETATM    3  C3  UNL     1      -1.156   3.480  -1.060  1.00  0.00     0.065 A 
HETATM    4  C4  UNL     1      -1.243   2.406  -0.182  1.00  0.00     0.038 A 
HETATM    5  C5  UNL     1      -2.399   2.241   0.587  1.00  0.00     0.026 A 
HETATM    6  C6  UNL     1      -3.447   3.164   0.514  1.00  0.00     0.005 A 
ENDROOT
BRANCH   6   7
HETATM    7  N1  UNL     1      -4.645   2.926   1.197  1.00  0.00    -0.303 NA
HETATM    8  H5  UNL     1      -5.242   3.743   1.270  1.00  0.00     0.124 HD
HETATM    9  H6  UNL     1      -4.523   2.455   2.087  1.00  0.00     0.124 HD
ENDBRANCH   6   7
BRANCH   3  10
HETATM   10  O1  UNL     1      -0.051   3.681  -1.831  1.00  0.00    -0.361 OA
HETATM   11  H7  UNL     1       0.734   3.421  -1.322  1.00  0.00     0.217 HD
ENDBRANCH   3  10
TORSDOF 2
ENDMDL
MODEL 5
REMARK VINA RESULT:      -3.9      2.337      2.991
REMARK  2 active torsions:
REMARK  status: ('A' for Active; 'I' for Inactive)
REMARK    1  A    between atoms: C3_3  and  O1_8 
REMARK    2  A    between atoms: C6_6  and  N1_7 
ROOT
HETATM    1  C1  UNL     1       2.675   2.223  -2.785  1.00  0.00     0.026 A 
HETATM    2  C2  UNL     1       2.459   3.087  -1.710  1.00  0.00     0.038 A 
HETATM    3  C3  UNL     1       1.279   3.001  -0.983  1.00  0.00     0.065 A 
HETATM    4  C4  UNL     1       0.317   2.050  -1.306  1.00  0.00     0.038 A 
HETATM    5  C5  UNL     1       0.540   1.189  -2.385  1.00  0.00     0.026 A 
HETATM    6  C6  UNL     1       1.696   1.300  -3.165  1.00  0.00     0.005 A 
ENDROOT
BRANCH   6   7
HETATM    7  N1  UNL     1       1.964   0.359  -4.166  1.00  0.00    -0.303 NA
HETATM    8  H5  UNL     1       2.726   0.624  -4.781  1.00  0.00     0.124 HD
HETATM    9  H6  UNL     1       1.141   0.058  -4.677  1.00  0.00     0.124 HD
ENDBRANCH   6   7
BRANCH   3  10
HETATM   10  O1  UNL     1       1.107   3.860   0.060  1.00  0.00    -0.361 OA
HETATM   11  H7  UNL     1       0.727   3.369   0.806  1.00  0.00     0.217 HD
ENDBRANCH   3  10
TORSDOF 2
ENDMDL
MODEL 6
REMARK VINA RESULT:      -3.8      3.888      4.732
REMARK  2 active torsions:
REMARK  status: ('A' for Active; 'I' for Inactive)
REMARK    1  A    between atoms: C3_3  and  O1_8 
REMARK    2  A    between atoms: C6_6  and  N1_7 
ROOT
HETATM    1  C1  UNL     1       0.631   3.043   1.348  1.00  0.00     0.026 A 
HETATM    2  C2  UNL     1       0.515   3.093  -0.042  1.00  0.00     0.038 A 
HETATM    3  C3  UNL     1       1.634   3.366  -0.817  1.00  0.00     0.065 A 
HETATM    4  C4  UNL     1       2.873   3.574  -0.221  1.00  0.00     0.038 A 
HETATM    5  C5  UNL     1       2.981   3.523   1.172  1.00  0.00     0.026 A 
HETATM    6  C6  UNL     1       1.854   3.308   1.971  1.00  0.00     0.005 A 
ENDROOT
BRANCH   6   7
HETATM    7  N1  UNL     1       1.993   3.141   3.354  1.00  0.00    -0.303 NA
HETATM    8  H5  UNL     1       1.666   2.240   3.691  1.00  0.00     0.124 HD
HETATM    9  H6  UNL     1       1.627   3.913   3.900  1.00  0.00     0.124 HD
ENDBRANCH   6   7
BRANCH   3  10
HETATM   10  O1  UNL     1       1.480   3.404  -2.170  1.00  0.00    -0.361 OA
HETATM   11  H7  UNL     1       1.196   2.527  -2.474  1.00  0.00     0.217 HD
ENDBRANCH   3  10
TORSDOF 2
ENDMDL
MODEL 7
REMARK VINA RESULT:      -3.8      2.218      2.841
REMARK  2 active torsions:
REMARK  status: ('A' for Active; 'I' for Inactive)
REMARK    1  A    between atoms: C3_3  and  O1_8 
REMARK    2  A    between atoms: C6_6  and  N1_7 
ROOT
HETATM    1  C1  UNL     1       2.511   3.079  -1.897  1.00  0.00     0.026 A 
HETATM    2  C2  UNL     1       2.712   2.159  -2.929  1.00  0.00     0.038 A 
HETATM    3  C3  UNL     1       1.745   1.198  -3.191  1.00  0.00     0.065 A 
HETATM    4  C4  UNL     1       0.572   1.153  -2.446  1.00  0.00     0.038 A 
HETATM    5  C5  UNL     1       0.379   2.076  -1.414  1.00  0.00     0.026 A 
HETATM    6  C6  UNL     1       1.366   3.014  -1.097  1.00  0.00     0.005 A 
ENDROOT
BRANCH   6   7
HETATM    7  N1  UNL     1       1.114   4.007  -0.144  1.00  0.00    -0.303 NA
HETATM    8  H5  UNL     1       0.424   4.691  -0.440  1.00  0.00     0.124 HD
HETATM    9  H6  UNL     1       1.952   4.441   0.229  1.00  0.00     0.124 HD
ENDBRANCH   6   7
BRANCH   3  10
HETATM   10  O1  UNL     1       1.977   0.321  -4.207  1.00  0.00    -0.361 OA
HETATM   11  H7  UNL     1       1.142   0.161  -4.675  1.00  0.00     0.217 HD
ENDBRANCH   3  10
TORSDOF 2
ENDMDL
MODEL 8
REMARK VINA RESULT:      -3.8      5.066      6.044
REMARK  2 active torsions:
REMARK  status: ('A' for Active; 'I' for Inactive)
REMARK    1  A    between atoms: C3_3  and  O1_8 
REMARK    2  A    between atoms: C6_6  and  N1_7 
ROOT
HETATM    1  C1  UNL     1      -2.238   4.379  -1.070  1.00  0.00     0.026 A 
HETATM    2  C2  UNL     1      -3.414   4.162  -0.349  1.00  0.00     0.038 A 
HETATM    3  C3  UNL     1      -3.511   3.064   0.494  1.00  0.00     0.065 A 
HETATM    4  C4  UNL     1      -2.442   2.187   0.641  1.00  0.00     0.038 A 
HETATM    5  C5  UNL     1      -1.268   2.411  -0.085  1.00  0.00     0.026 A 
HETATM    6  C6  UNL     1      -1.172   3.478  -0.984  1.00  0.00     0.005 A 
ENDROOT
BRANCH   6   7
HETATM    7  N1  UNL     1       0.045   3.763  -1.614  1.00  0.00    -0.303 NA
HETATM    8  H5  UNL     1       0.445   4.656  -1.344  1.00  0.00     0.124 HD
HETATM    9  H6  UNL     1       0.025   3.636  -2.620  1.00  0.00     0.124 HD
ENDBRANCH   6   7
BRANCH   3  10
HETATM   10  O1  UNL     1      -4.674   2.888   1.182  1.00  0.00    -0.361 OA
HETATM   11  H7  UNL     1      -5.338   3.502   0.831  1.00  0.00     0.217 HD
ENDBRANCH   3  10
TORSDOF 2
ENDMDL
MODEL 9
REMARK VINA RESULT:      -3.7      9.066      9.600
REMARK  2 active torsions:
REMARK  status: ('A' for Active; 'I' for Inactive)
REMARK    1  A    between atoms: C3_3  and  O1_8 
REMARK    2  A    between atoms: C6_6  and  N1_7 
ROOT
HETATM    1  C1  UNL     1       1.482   4.230 -10.657  1.00  0.00     0.026 A 
HETATM    2  C2  UNL     1       2.810   4.006 -10.285  1.00  0.00     0.038 A 
HETATM    3  C3  UNL     1       3.797   3.955 -11.258  1.00  0.00     0.065 A 
HETATM    4  C4  UNL     1       3.480   4.142 -12.599  1.00  0.00     0.038 A 
HETATM    5  C5  UNL     1       2.149   4.365 -12.964  1.00  0.00     0.026 A 
HETATM    6  C6  UNL     1       1.132   4.361 -12.004  1.00  0.00     0.005 A 
ENDROOT
BRANCH   6   7
HETATM    7  N1  UNL     1      -0.177   4.702 -12.363  1.00  0.00    -0.303 NA
HETATM    8  H5  UNL     1      -0.671   3.964 -12.854  1.00  0.00     0.124 HD
HETATM    9  H6  UNL     1      -0.253   5.598 -12.834  1.00  0.00     0.124 HD
ENDBRANCH   6   7
BRANCH   3  10
HETATM   10  O1  UNL     1       5.080   3.737 -10.854  1.00  0.00    -0.361 OA
HETATM   11  H7  UNL     1       5.116   2.893 -10.377  1.00  0.00     0.217 HD
ENDBRANCH   3  10
TORSDOF 2
ENDMDL
MODEL 10
REMARK VINA RESULT:      -3.6      5.960      7.004
REMARK  2 active torsions:
REMARK  status: ('A' for Active; 'I' for Inactive)
REMARK    1  A    between atoms: C3_3  and  O1_8 
REMARK    2  A    between atoms: C6_6  and  N1_7 
ROOT
HETATM    1  C1  UNL     1      -1.796   3.552   2.896  1.00  0.00     0.026 A 
HETATM    2  C2  UNL     1      -3.146   3.489   2.544  1.00  0.00     0.038 A 
HETATM    3  C3  UNL     1      -3.513   2.946   1.321  1.00  0.00     0.065 A 
HETATM    4  C4  UNL     1      -2.551   2.448   0.449  1.00  0.00     0.038 A 
HETATM    5  C5  UNL     1      -1.201   2.516   0.808  1.00  0.00     0.026 A 
HETATM    6  C6  UNL     1      -0.808   3.113   2.010  1.00  0.00     0.005 A 
ENDROOT
BRANCH   6   7
HETATM    7  N1  UNL     1       0.532   3.068   2.414  1.00  0.00    -0.303 NA
HETATM    8  H5  UNL     1       0.670   3.295   3.394  1.00  0.00     0.124 HD
HETATM    9  H6  UNL     1       1.161   3.582   1.806  1.00  0.00     0.124 HD
ENDBRANCH   6   7
BRANCH   3  10
HETATM   10  O1  UNL     1      -4.841   2.900   1.015  1.00  0.00    -0.361 OA
HETATM   11  H7  UNL     1      -5.320   2.524   1.771  1.00  0.00     0.217 HD
ENDBRANCH   3  10
TORSDOF 2
ENDMDL
MODEL 11
REMARK VINA RESULT:      -3.6      4.921      5.731
REMARK  2 active torsions:
REMARK  status: ('A' for Active; 'I' for Inactive)
REMARK    1  A    between atoms: C3_3  and  O1_8 
REMARK    2  A    between atoms: C6_6  and  N1_7 
ROOT
HETATM    1  C1  UNL     1       1.944   3.289   0.776  1.00  0.00     0.026 A 
HETATM    2  C2  UNL     1       2.324   3.470   2.107  1.00  0.00     0.038 A 
HETATM    3  C3  UNL     1       1.380   3.338   3.116  1.00  0.00     0.065 A 
HETATM    4  C4  UNL     1       0.063   3.012   2.814  1.00  0.00     0.038 A 
HETATM    5  C5  UNL     1      -0.311   2.835   1.479  1.00  0.00     0.026 A 
HETATM    6  C6  UNL     1       0.612   3.020   0.445  1.00  0.00     0.005 A 
ENDROOT
BRANCH   6   7
HETATM    7  N1  UNL     1       0.260   2.724  -0.877  1.00  0.00    -0.303 NA
HETATM    8  H5  UNL     1       0.812   1.979  -1.289  1.00  0.00     0.124 HD
HETATM    9  H6  UNL     1       0.201   3.539  -1.478  1.00  0.00     0.124 HD
ENDBRANCH   6   7
BRANCH   3  10
HETATM   10  O1  UNL     1       1.791   3.519   4.402  1.00  0.00    -0.361 OA
HETATM   11  H7  UNL     1       1.187   4.144   4.835  1.00  0.00     0.217 HD
ENDBRANCH   3  10
TORSDOF 2
ENDMDL
MODEL 12
REMARK VINA RESULT:      -3.4      5.264      6.326
REMARK  2 active torsions:
REMARK  status: ('A' for Active; 'I' for Inactive)
REMARK    1  A    between atoms: C3_3  and  O1_8 
REMARK    2  A    between atoms: C6_6  and  N1_7 
ROOT
HETATM    1  C1  UNL     1      -1.226   2.691   2.409  1.00  0.00     0.026 A 
HETATM    2  C2  UNL     1       0.102   3.031   2.676  1.00  0.00     0.038 A 
HETATM    3  C3  UNL     1       1.018   3.097   1.635  1.00  0.00     0.065 A 
HETATM    4  C4  UNL     1       0.621   2.843   0.327  1.00  0.00     0.038 A 
HETATM    5  C5  UNL     1      -0.710   2.502   0.068  1.00  0.00     0.026 A 
HETATM    6  C6  UNL     1      -1.633   2.374   1.110  1.00  0.00     0.005 A 
ENDROOT
BRANCH   6   7
HETATM    7  N1  UNL     1      -2.986   2.150   0.830  1.00  0.00    -0.303 NA
HETATM    8  H5  UNL     1      -3.600   2.321   1.620  1.00  0.00     0.124 HD
HETATM    9  H6  UNL     1      -3.170   1.258   0.383  1.00  0.00     0.124 HD
ENDBRANCH   6   7
BRANCH   3  10
HETATM   10  O1  UNL     1       2.303   3.435   1.936  1.00  0.00    -0.361 OA
HETATM   11  H7  UNL     1       2.314   3.872   2.802  1.00  0.00     0.217 HD
ENDBRANCH   3  10
TORSDOF 2
ENDMDL
MODEL 13
REMARK VINA RESULT:      -3.4      5.215      6.027
REMARK  2 active torsions:
REMARK  status: ('A' for Active; 'I' for Inactive)
REMARK    1  A    between atoms: C3_3  and  O1_8 
REMARK    2  A    between atoms: C6_6  and  N1_7 
ROOT
HETATM    1  C1  UNL     1       1.229   3.203   1.735  1.00  0.00     0.026 A 
HETATM    2  C2  UNL     1       0.284   2.919   0.747  1.00  0.00     0.038 A 
HETATM    3  C3  UNL     1      -1.022   2.622   1.110  1.00  0.00     0.065 A 
HETATM    4  C4  UNL     1      -1.402   2.620   2.448  1.00  0.00     0.038 A 
HETATM    5  C5  UNL     1      -0.450   2.904   3.431  1.00  0.00     0.026 A 
HETATM    6  C6  UNL     1       0.884   3.148   3.089  1.00  0.00     0.005 A 
ENDROOT
BRANCH   6   7
HETATM    7  N1  UNL     1       1.801   3.547   4.068  1.00  0.00    -0.303 NA
HETATM    8  H5  UNL     1       1.376   4.036   4.850  1.00  0.00     0.124 HD
HETATM    9  H6  UNL     1       2.608   4.039   3.698  1.00  0.00     0.124 HD
ENDBRANCH   6   7
BRANCH   3  10
HETATM   10  O1  UNL     1      -1.915   2.353   0.117  1.00  0.00    -0.361 OA
HETATM   11  H7  UNL     1      -1.514   1.718  -0.498  1.00  0.00     0.217 HD
ENDBRANCH   3  10
TORSDOF 2
ENDMDL
MODEL 14
REMARK VINA RESULT:      -3.4      3.024      3.811
REMARK  2 active torsions:
REMARK  status: ('A' for Active; 'I' for Inactive)
REMARK    1  A    between atoms: C3_3  and  O1_8 
REMARK    2  A    between atoms: C6_6  and  N1_7 
ROOT
HETATM    1  C1  UNL     1       3.516   3.531  -3.677  1.00  0.00     0.026 A 
HETATM    2  C2  UNL     1       4.782   3.585  -3.091  1.00  0.00     0.038 A 
HETATM    3  C3  UNL     1       5.473   2.409  -2.836  1.00  0.00     0.065 A 
HETATM    4  C4  UNL     1       4.924   1.178  -3.175  1.00  0.00     0.038 A 
HETATM    5  C5  UNL     1       3.655   1.131  -3.761  1.00  0.00     0.026 A 
HETATM    6  C6  UNL     1       2.919   2.301  -3.971  1.00  0.00     0.005 A 
ENDROOT
BRANCH   6   7
HETATM    7  N1  UNL     1       1.704   2.255  -4.665  1.00  0.00    -0.303 NA
HETATM    8  H5  UNL     1       1.804   2.012  -5.646  1.00  0.00     0.124 HD
HETATM    9  H6  UNL     1       1.121   3.073  -4.527  1.00  0.00     0.124 HD
ENDBRANCH   6   7
BRANCH   3  10
HETATM   10  O1  UNL     1       6.707   2.504  -2.266  1.00  0.00    -0.361 OA
HETATM   11  H7  UNL     1       6.623   2.327  -1.315  1.00  0.00     0.217 HD
ENDBRANCH   3  10
TORSDOF 2
ENDMDL
MODEL 15
REMARK VINA RESULT:      -3.4      3.880      4.666
REMARK  2 active torsions:
REMARK  status: ('A' for Active; 'I' for Inactive)
REMARK    1  A    between atoms: C3_3  and  O1_8 
REMARK    2  A    between atoms: C6_6  and  N1_7 
ROOT
HETATM    1  C1  UNL     1       2.799   3.527   1.429  1.00  0.00     0.026 A 
HETATM    2  C2  UNL     1       1.855   3.325   2.438  1.00  0.00     0.038 A 
HETATM    3  C3  UNL     1       0.547   3.007   2.101  1.00  0.00     0.065 A 
HETATM    4  C4  UNL     1       0.172   2.871   0.769  1.00  0.00     0.038 A 
HETATM    5  C5  UNL     1       1.122   3.077  -0.235  1.00  0.00     0.026 A 
HETATM    6  C6  UNL     1       2.431   3.455   0.083  1.00  0.00     0.005 A 
ENDROOT
BRANCH   6   7
HETATM    7  N1  UNL     1       3.403   3.541  -0.920  1.00  0.00    -0.303 NA
HETATM    8  H5  UNL     1       3.019   3.555  -1.860  1.00  0.00     0.124 HD
HETATM    9  H6  UNL     1       4.156   2.869  -0.821  1.00  0.00     0.124 HD
ENDBRANCH   6   7
BRANCH   3  10
HETATM   10  O1  UNL     1      -0.345   2.815   3.114  1.00  0.00    -0.361 OA
HETATM   11  H7  UNL     1      -0.971   3.556   3.120  1.00  0.00     0.217 HD
ENDBRANCH   3  10
TORSDOF 2
ENDMDL
MODEL 16
REMARK VINA RESULT:      -3.4     11.480     11.945
REMARK  2 active torsions:
REMARK  status: ('A' for Active; 'I' for Inactive)
REMARK    1  A    between atoms: C3_3  and  O1_8 
REMARK    2  A    between atoms: C6_6  and  N1_7 
ROOT
HETATM    1  C1  UNL     1      -0.914  12.001 -10.383  1.00  0.00     0.026 A 
HETATM    2  C2  UNL     1      -0.863  10.797 -11.089  1.00  0.00     0.038 A 
HETATM    3  C3  UNL     1      -0.086   9.751 -10.611  1.00  0.00     0.065 A 
HETATM    4  C4  UNL     1       0.630   9.886  -9.426  1.00  0.00     0.038 A 
HETATM    5  C5  UNL     1       0.576  11.094  -8.726  1.00  0.00     0.026 A 
HETATM    6  C6  UNL     1      -0.155  12.179  -9.222  1.00  0.00     0.005 A 
ENDROOT
BRANCH   6   7
HETATM    7  N1  UNL     1      -0.300  13.341  -8.455  1.00  0.00    -0.303 NA
HETATM    8  H5  UNL     1       0.426  14.031  -8.621  1.00  0.00     0.124 HD
HETATM    9  H6  UNL     1      -0.447  13.165  -7.467  1.00  0.00     0.124 HD
ENDBRANCH   6   7
BRANCH   3  10
HETATM   10  O1  UNL     1      -0.065   8.592 -11.327  1.00  0.00    -0.361 OA
HETATM   11  H7  UNL     1      -0.200   8.805 -12.264  1.00  0.00     0.217 HD
ENDBRANCH   3  10
TORSDOF 2
ENDMDL
MODEL 17
REMARK VINA RESULT:      -3.4      4.761      5.627
REMARK  2 active torsions:
REMARK  status: ('A' for Active; 'I' for Inactive)
REMARK    1  A    between atoms: C3_3  and  O1_8 
REMARK    2  A    between atoms: C6_6  and  N1_7 
ROOT
HETATM    1  C1  UNL     1      -0.750   2.445   0.748  1.00  0.00     0.026 A 
HETATM    2  C2  UNL     1       0.360   2.880   0.021  1.00  0.00     0.038 A 
HETATM    3  C3  UNL     1       0.176   3.561  -1.174  1.00  0.00     0.065 A 
HETATM    4  C4  UNL     1      -1.105   3.828  -1.646  1.00  0.00     0.038 A 
HETATM    5  C5  UNL     1      -2.211   3.388  -0.914  1.00  0.00     0.026 A 
HETATM    6  C6  UNL     1      -2.045   2.650   0.262  1.00  0.00     0.005 A 
ENDROOT
BRANCH   6   7
HETATM    7  N1  UNL     1      -3.154   2.318   1.049  1.00  0.00    -0.303 NA
HETATM    8  H5  UNL     1      -4.034   2.337   0.542  1.00  0.00     0.124 HD
HETATM    9  H6  UNL     1      -3.203   2.827   1.925  1.00  0.00     0.124 HD
ENDBRANCH   6   7
BRANCH   3  10
HETATM   10  O1  UNL     1       1.284   3.971  -1.852  1.00  0.00    -0.361 OA
HETATM   11  H7  UNL     1       1.479   4.888  -1.601  1.00  0.00     0.217 HD
ENDBRANCH   3  10
TORSDOF 2
ENDMDL
MODEL 18
REMARK VINA RESULT:      -3.2     11.743     12.292
REMARK  2 active torsions:
REMARK  status: ('A' for Active; 'I' for Inactive)
REMARK    1  A    between atoms: C3_3  and  O1_8 
REMARK    2  A    between atoms: C6_6  and  N1_7 
ROOT
HETATM    1  C1  UNL     1      -0.767  12.339 -10.354  1.00  0.00     0.026 A 
HETATM    2  C2  UNL     1       0.078  12.279  -9.244  1.00  0.00     0.038 A 
HETATM    3  C3  UNL     1       0.555  11.051  -8.808  1.00  0.00     0.065 A 
HETATM    4  C4  UNL     1       0.212   9.881  -9.476  1.00  0.00     0.038 A 
HETATM    5  C5  UNL     1      -0.635   9.949 -10.586  1.00  0.00     0.026 A 
HETATM    6  C6  UNL     1      -1.173  11.170 -11.005  1.00  0.00     0.005 A 
ENDROOT
BRANCH   6   7
HETATM    7  N1  UNL     1      -1.922  11.243 -12.184  1.00  0.00    -0.303 NA
HETATM    8  H5  UNL     1      -2.923  11.313 -12.028  1.00  0.00     0.124 HD
HETATM    9  H6  UNL     1      -1.686  10.528 -12.865  1.00  0.00     0.124 HD
ENDBRANCH   6   7
BRANCH   3  10
HETATM   10  O1  UNL     1       1.379  11.035  -7.723  1.00  0.00    -0.361 OA
HETATM   11  H7  UNL     1       1.217  10.219  -7.223  1.00  0.00     0.217 HD
ENDBRANCH   3  10
TORSDOF 2
ENDMDL
MODEL 19
REMARK VINA RESULT:      -3.2      5.050      6.030
REMARK  2 active torsions:
REMARK  status: ('A' for Active; 'I' for Inactive)
REMARK    1  A    between atoms: C3_3  and  O1_8 
REMARK    2  A    between atoms: C6_6  and  N1_7 
ROOT
HETATM    1  C1  UNL     1       0.061   2.842   1.122  1.00  0.00     0.026 A 
HETATM    2  C2  UNL     1      -0.700   3.398   2.153  1.00  0.00     0.038 A 
HETATM    3  C3  UNL     1      -2.068   3.561   1.987  1.00  0.00     0.065 A 
HETATM    4  C4  UNL     1      -2.691   3.161   0.810  1.00  0.00     0.038 A 
HETATM    5  C5  UNL     1      -1.923   2.607  -0.218  1.00  0.00     0.026 A 
HETATM    6  C6  UNL     1      -0.535   2.488  -0.093  1.00  0.00     0.005 A 
ENDROOT
BRANCH   6   7
HETATM    7  N1  UNL     1       0.207   1.825  -1.076  1.00  0.00    -0.303 NA
HETATM    8  H5  UNL     1       0.209   0.815  -0.974  1.00  0.00     0.124 HD
HETATM    9  H6  UNL     1       1.139   2.201  -1.210  1.00  0.00     0.124 HD
ENDBRANCH   6   7
BRANCH   3  10
HETATM   10  O1  UNL     1      -2.775   4.104   3.017  1.00  0.00    -0.361 OA
HETATM   11  H7  UNL     1      -3.718   4.091   2.787  1.00  0.00     0.217 HD
ENDBRANCH   3  10
TORSDOF 2
ENDMDL
MODEL 20
REMARK VINA RESULT:      -3.1      3.144      4.059
REMARK  2 active torsions:
REMARK  status: ('A' for Active; 'I' for Inactive)
REMARK    1  A    between atoms: C3_3  and  O1_8 
REMARK    2  A    between atoms: C6_6  and  N1_7 
ROOT
HETATM    1  C1  UNL     1       1.214   3.151  -0.247  1.00  0.00     0.026 A 
HETATM    2  C2  UNL     1       2.320   3.251  -1.094  1.00  0.00     0.038 A 
HETATM    3  C3  UNL     1       2.354   2.516  -2.271  1.00  0.00     0.065 A 
HETATM    4  C4  UNL     1       1.289   1.695  -2.623  1.00  0.00     0.038 A 
HETATM    5  C5  UNL     1       0.186   1.599  -1.770  1.00  0.00     0.026 A 
HETATM    6  C6  UNL     1       0.159   2.286  -0.552  1.00  0.00     0.005 A 
ENDROOT
BRANCH   6   7
HETATM    7  N1  UNL     1      -0.997   2.277   0.237  1.00  0.00    -0.303 NA
HETATM    8  H5  UNL     1      -0.845   2.601   1.187  1.00  0.00     0.124 HD
HETATM    9  H6  UNL     1      -1.510   1.403   0.203  1.00  0.00     0.124 HD
ENDBRANCH   6   7
BRANCH   3  10
HETATM   10  O1  UNL     1       3.450   2.643  -3.071  1.00  0.00    -0.361 OA
HETATM   11  H7  UNL     1       4.174   3.020  -2.547  1.00  0.00     0.217 HD
ENDBRANCH   3  10
TORSDOF 2
ENDMDL
