MODEL 1
REMARK VINA RESULT:      -3.3      0.000      0.000
REMARK  2 active torsions:
REMARK  status: ('A' for Active; 'I' for Inactive)
REMARK    1  A    between atoms: C3_3  and  O1_8 
REMARK    2  A    between atoms: C6_6  and  N1_7 
ROOT
HETATM    1  C1  UNL     1      -7.295   6.098   0.956  1.00  0.00     0.026 A 
HETATM    2  C2  UNL     1      -6.919   4.822   1.381  1.00  0.00     0.038 A 
HETATM    3  C3  UNL     1      -5.573   4.494   1.466  1.00  0.00     0.065 A 
HETATM    4  C4  UNL     1      -4.595   5.429   1.148  1.00  0.00     0.038 A 
HETATM    5  C5  UNL     1      -4.979   6.705   0.722  1.00  0.00     0.026 A 
HETATM    6  C6  UNL     1      -6.329   7.035   0.573  1.00  0.00     0.005 A 
ENDROOT
BRANCH   6   7
HETATM    7  N1  UNL     1      -6.704   8.347   0.262  1.00  0.00    -0.303 NA
HETATM    8  H5  UNL     1      -6.067   9.050   0.624  1.00  0.00     0.124 HD
HETATM    9  H6  UNL     1      -7.673   8.558   0.474  1.00  0.00     0.124 HD
ENDBRANCH   6   7
BRANCH   3  10
HETATM   10  O1  UNL     1      -5.248   3.240   1.887  1.00  0.00    -0.361 OA
HETATM   11  H7  UNL     1      -4.506   3.305   2.510  1.00  0.00     0.217 HD
ENDBRANCH   3  10
TORSDOF 2
ENDMDL
MODEL 2
REMARK VINA RESULT:      -3.1      2.780      3.265
REMARK  2 active torsions:
REMARK  status: ('A' for Active; 'I' for Inactive)
REMARK    1  A    between atoms: C3_3  and  O1_8 
REMARK    2  A    between atoms: C6_6  and  N1_7 
ROOT
HETATM    1  C1  UNL     1      -6.995   4.912   1.370  1.00  0.00     0.026 A 
HETATM    2  C2  UNL     1      -7.387   6.195   0.980  1.00  0.00     0.038 A 
HETATM    3  C3  UNL     1      -6.422   7.140   0.660  1.00  0.00     0.065 A 
HETATM    4  C4  UNL     1      -5.071   6.817   0.708  1.00  0.00     0.038 A 
HETATM    5  C5  UNL     1      -4.687   5.532   1.101  1.00  0.00     0.026 A 
HETATM    6  C6  UNL     1      -5.641   4.583   1.483  1.00  0.00     0.005 A 
ENDROOT
BRANCH   6   7
HETATM    7  N1  UNL     1      -5.255   3.267   1.759  1.00  0.00    -0.303 NA
HETATM    8  H5  UNL     1      -4.269   3.088   1.597  1.00  0.00     0.124 HD
HETATM    9  H6  UNL     1      -5.850   2.566   1.329  1.00  0.00     0.124 HD
ENDBRANCH   6   7
BRANCH   3  10
HETATM   10  O1  UNL     1      -6.844   8.379   0.282  1.00  0.00    -0.361 OA
HETATM   11  H7  UNL     1      -6.545   8.545  -0.627  1.00  0.00     0.217 HD
ENDBRANCH   3  10
TORSDOF 2
ENDMDL
MODEL 3
REMARK VINA RESULT:      -2.9      7.154      8.042
REMARK  2 active torsions:
REMARK  status: ('A' for Active; 'I' for Inactive)
REMARK    1  A    between atoms: C3_3  and  O1_8 
REMARK    2  A    between atoms: C6_6  and  N1_7 
ROOT
HETATM    1  C1  UNL     1       0.977   9.423   2.989  1.00  0.00     0.026 A 
HETATM    2  C2  UNL     1       0.016   8.747   2.235  1.00  0.00     0.038 A 
HETATM    3  C3  UNL     1       0.227   7.422   1.881  1.00  0.00     0.065 A 
HETATM    4  C4  UNL     1       1.378   6.756   2.285  1.00  0.00     0.038 A 
HETATM    5  C5  UNL     1       2.337   7.440   3.039  1.00  0.00     0.026 A 
HETATM    6  C6  UNL     1       2.169   8.792   3.355  1.00  0.00     0.005 A 
ENDROOT
BRANCH   6   7
HETATM    7  N1  UNL     1       3.074   9.433   4.209  1.00  0.00    -0.303 NA
HETATM    8  H5  UNL     1       3.793   9.959   3.721  1.00  0.00     0.124 HD
HETATM    9  H6  UNL     1       3.457   8.830   4.929  1.00  0.00     0.124 HD
ENDBRANCH   6   7
BRANCH   3  10
HETATM   10  O1  UNL     1      -0.736   6.796   1.147  1.00  0.00    -0.361 OA
HETATM   11  H7  UNL     1      -1.588   7.227   1.321  1.00  0.00     0.217 HD
ENDBRANCH   3  10
TORSDOF 2
ENDMDL
MODEL 4
REMARK VINA RESULT:      -2.9      7.627      8.558
REMARK  2 active torsions:
REMARK  status: ('A' for Active; 'I' for Inactive)
REMARK    1  A    between atoms: C3_3  and  O1_8 
REMARK    2  A    between atoms: C6_6  and  N1_7 
ROOT
HETATM    1  C1  UNL     1       0.989   6.743   2.159  1.00  0.00     0.026 A 
HETATM    2  C2  UNL     1       0.301   7.764   1.500  1.00  0.00     0.038 A 
HETATM    3  C3  UNL     1       1.005   8.828   0.954  1.00  0.00     0.065 A 
HETATM    4  C4  UNL     1       2.392   8.879   1.043  1.00  0.00     0.038 A 
HETATM    5  C5  UNL     1       3.074   7.854   1.706  1.00  0.00     0.026 A 
HETATM    6  C6  UNL     1       2.378   6.805   2.313  1.00  0.00     0.005 A 
ENDROOT
BRANCH   6   7
HETATM    7  N1  UNL     1       3.074   5.725   2.869  1.00  0.00    -0.303 NA
HETATM    8  H5  UNL     1       3.737   5.995   3.589  1.00  0.00     0.124 HD
HETATM    9  H6  UNL     1       3.483   5.102   2.180  1.00  0.00     0.124 HD
ENDBRANCH   6   7
BRANCH   3  10
HETATM   10  O1  UNL     1       0.297   9.802   0.316  1.00  0.00    -0.361 OA
HETATM   11  H7  UNL     1       0.854  10.183  -0.382  1.00  0.00     0.217 HD
ENDBRANCH   3  10
TORSDOF 2
ENDMDL
MODEL 5
REMARK VINA RESULT:      -2.9      7.127      7.940
REMARK  2 active torsions:
REMARK  status: ('A' for Active; 'I' for Inactive)
REMARK    1  A    between atoms: C3_3  and  O1_8 
REMARK    2  A    between atoms: C6_6  and  N1_7 
ROOT
HETATM    1  C1  UNL     1       0.302   7.920   1.469  1.00  0.00     0.026 A 
HETATM    2  C2  UNL     1       0.879   6.849   2.155  1.00  0.00     0.038 A 
HETATM    3  C3  UNL     1       2.260   6.768   2.269  1.00  0.00     0.065 A 
HETATM    4  C4  UNL     1       3.074   7.752   1.719  1.00  0.00     0.038 A 
HETATM    5  C5  UNL     1       2.490   8.821   1.032  1.00  0.00     0.026 A 
HETATM    6  C6  UNL     1       1.104   8.888   0.857  1.00  0.00     0.005 A 
ENDROOT
BRANCH   6   7
HETATM    7  N1  UNL     1       0.522  10.020   0.273  1.00  0.00    -0.303 NA
HETATM    8  H5  UNL     1       0.806  10.173  -0.690  1.00  0.00     0.124 HD
HETATM    9  H6  UNL     1       0.600  10.859   0.837  1.00  0.00     0.124 HD
ENDBRANCH   6   7
BRANCH   3  10
HETATM   10  O1  UNL     1       2.783   5.710   2.949  1.00  0.00    -0.361 OA
HETATM   11  H7  UNL     1       2.116   5.381   3.572  1.00  0.00     0.217 HD
ENDBRANCH   3  10
TORSDOF 2
ENDMDL
MODEL 6
REMARK VINA RESULT:      -2.8      2.290      2.834
REMARK  2 active torsions:
REMARK  status: ('A' for Active; 'I' for Inactive)
REMARK    1  A    between atoms: C3_3  and  O1_8 
REMARK    2  A    between atoms: C6_6  and  N1_7 
ROOT
HETATM    1  C1  UNL     1      -8.043   8.075   1.429  1.00  0.00     0.026 A 
HETATM    2  C2  UNL     1      -7.261   6.971   1.084  1.00  0.00     0.038 A 
HETATM    3  C3  UNL     1      -5.958   7.162   0.646  1.00  0.00     0.065 A 
HETATM    4  C4  UNL     1      -5.419   8.442   0.562  1.00  0.00     0.038 A 
HETATM    5  C5  UNL     1      -6.210   9.542   0.908  1.00  0.00     0.026 A 
HETATM    6  C6  UNL     1      -7.543   9.374   1.296  1.00  0.00     0.005 A 
ENDROOT
BRANCH   6   7
HETATM    7  N1  UNL     1      -8.287  10.467   1.753  1.00  0.00    -0.303 NA
HETATM    8  H5  UNL     1      -8.554  10.399   2.730  1.00  0.00     0.124 HD
HETATM    9  H6  UNL     1      -9.069  10.710   1.155  1.00  0.00     0.124 HD
ENDBRANCH   6   7
BRANCH   3  10
HETATM   10  O1  UNL     1      -5.226   6.060   0.321  1.00  0.00    -0.361 OA
HETATM   11  H7  UNL     1      -5.832   5.358   0.036  1.00  0.00     0.217 HD
ENDBRANCH   3  10
TORSDOF 2
ENDMDL
MODEL 7
REMARK VINA RESULT:      -2.8      7.098      7.997
REMARK  2 active torsions:
REMARK  status: ('A' for Active; 'I' for Inactive)
REMARK    1  A    between atoms: C3_3  and  O1_8 
REMARK    2  A    between atoms: C6_6  and  N1_7 
ROOT
HETATM    1  C1  UNL     1      -0.018   8.788   2.309  1.00  0.00     0.026 A 
HETATM    2  C2  UNL     1       0.998   9.376   3.066  1.00  0.00     0.038 A 
HETATM    3  C3  UNL     1       2.103   8.623   3.438  1.00  0.00     0.065 A 
HETATM    4  C4  UNL     1       2.215   7.292   3.050  1.00  0.00     0.038 A 
HETATM    5  C5  UNL     1       1.193   6.710   2.293  1.00  0.00     0.026 A 
HETATM    6  C6  UNL     1       0.046   7.436   1.959  1.00  0.00     0.005 A 
ENDROOT
BRANCH   6   7
HETATM    7  N1  UNL     1      -0.914   6.883   1.104  1.00  0.00    -0.303 NA
HETATM    8  H5  UNL     1      -1.614   6.325   1.582  1.00  0.00     0.124 HD
HETATM    9  H6  UNL     1      -0.520   6.404   0.301  1.00  0.00     0.124 HD
ENDBRANCH   6   7
BRANCH   3  10
HETATM   10  O1  UNL     1       3.074   9.233   4.173  1.00  0.00    -0.361 OA
HETATM   11  H7  UNL     1       3.351   8.630   4.881  1.00  0.00     0.217 HD
ENDBRANCH   3  10
TORSDOF 2
ENDMDL
MODEL 8
REMARK VINA RESULT:      -2.8      8.935      9.541
REMARK  2 active torsions:
REMARK  status: ('A' for Active; 'I' for Inactive)
REMARK    1  A    between atoms: C3_3  and  O1_8 
REMARK    2  A    between atoms: C6_6  and  N1_7 
ROOT
HETATM    1  C1  UNL     1      -8.943  12.150   5.145  1.00  0.00     0.026 A 
HETATM    2  C2  UNL     1      -9.283  12.281   6.493  1.00  0.00     0.038 A 
HETATM    3  C3  UNL     1      -8.877  13.404   7.200  1.00  0.00     0.065 A 
HETATM    4  C4  UNL     1      -8.148  14.408   6.574  1.00  0.00     0.038 A 
HETATM    5  C5  UNL     1      -7.809  14.270   5.224  1.00  0.00     0.026 A 
HETATM    6  C6  UNL     1      -8.159  13.119   4.511  1.00  0.00     0.005 A 
ENDROOT
BRANCH   6   7
HETATM    7  N1  UNL     1      -7.920  13.043   3.134  1.00  0.00    -0.303 NA
HETATM    8  H5  UNL     1      -8.758  13.142   2.569  1.00  0.00     0.124 HD
HETATM    9  H6  UNL     1      -7.361  12.244   2.858  1.00  0.00     0.124 HD
ENDBRANCH   6   7
BRANCH   3  10
HETATM   10  O1  UNL     1      -9.232  13.495   8.512  1.00  0.00    -0.361 OA
HETATM   11  H7  UNL     1      -8.562  14.021   8.978  1.00  0.00     0.217 HD
ENDBRANCH   3  10
TORSDOF 2
ENDMDL
MODEL 9
REMARK VINA RESULT:      -2.8      8.984      9.607
REMARK  2 active torsions:
REMARK  status: ('A' for Active; 'I' for Inactive)
REMARK    1  A    between atoms: C3_3  and  O1_8 
REMARK    2  A    between atoms: C6_6  and  N1_7 
ROOT
HETATM    1  C1  UNL     1      -9.274  12.310   6.478  1.00  0.00     0.026 A 
HETATM    2  C2  UNL     1      -8.935  12.160   5.131  1.00  0.00     0.038 A 
HETATM    3  C3  UNL     1      -8.173  13.134   4.501  1.00  0.00     0.065 A 
HETATM    4  C4  UNL     1      -7.731  14.250   5.202  1.00  0.00     0.038 A 
HETATM    5  C5  UNL     1      -8.075  14.394   6.549  1.00  0.00     0.026 A 
HETATM    6  C6  UNL     1      -8.891  13.453   7.186  1.00  0.00     0.005 A 
ENDROOT
BRANCH   6   7
HETATM    7  N1  UNL     1      -9.130  13.544   8.562  1.00  0.00    -0.303 NA
HETATM    8  H5  UNL     1      -9.019  14.482   8.934  1.00  0.00     0.124 HD
HETATM    9  H6  UNL     1      -8.636  12.850   9.111  1.00  0.00     0.124 HD
ENDBRANCH   6   7
BRANCH   3  10
HETATM   10  O1  UNL     1      -7.861  12.949   3.187  1.00  0.00    -0.361 OA
HETATM   11  H7  UNL     1      -7.957  12.007   2.976  1.00  0.00     0.217 HD
ENDBRANCH   3  10
TORSDOF 2
ENDMDL
MODEL 10
REMARK VINA RESULT:      -2.7      9.102      9.826
REMARK  2 active torsions:
REMARK  status: ('A' for Active; 'I' for Inactive)
REMARK    1  A    between atoms: C3_3  and  O1_8 
REMARK    2  A    between atoms: C6_6  and  N1_7 
ROOT
HETATM    1  C1  UNL     1      -8.007  14.408   6.711  1.00  0.00     0.026 A 
HETATM    2  C2  UNL     1      -7.697  14.318   5.352  1.00  0.00     0.038 A 
HETATM    3  C3  UNL     1      -8.162  13.241   4.611  1.00  0.00     0.065 A 
HETATM    4  C4  UNL     1      -8.947  12.259   5.205  1.00  0.00     0.038 A 
HETATM    5  C5  UNL     1      -9.252  12.355   6.566  1.00  0.00     0.026 A 
HETATM    6  C6  UNL     1      -8.744  13.402   7.342  1.00  0.00     0.005 A 
ENDROOT
BRANCH   6   7
HETATM    7  N1  UNL     1      -9.151  13.555   8.673  1.00  0.00    -0.303 NA
HETATM    8  H5  UNL     1      -8.889  12.778   9.271  1.00  0.00     0.124 HD
HETATM    9  H6  UNL     1     -10.127  13.810   8.776  1.00  0.00     0.124 HD
ENDBRANCH   6   7
BRANCH   3  10
HETATM   10  O1  UNL     1      -7.840  13.190   3.288  1.00  0.00    -0.361 OA
HETATM   11  H7  UNL     1      -7.328  12.382   3.124  1.00  0.00     0.217 HD
ENDBRANCH   3  10
TORSDOF 2
ENDMDL
MODEL 11
REMARK VINA RESULT:      -2.7      4.933      5.348
REMARK  2 active torsions:
REMARK  status: ('A' for Active; 'I' for Inactive)
REMARK    1  A    between atoms: C3_3  and  O1_8 
REMARK    2  A    between atoms: C6_6  and  N1_7 
ROOT
HETATM    1  C1  UNL     1      -2.924   9.477   1.493  1.00  0.00     0.026 A 
HETATM    2  C2  UNL     1      -2.913   8.751   0.299  1.00  0.00     0.038 A 
HETATM    3  C3  UNL     1      -1.911   7.818   0.071  1.00  0.00     0.065 A 
HETATM    4  C4  UNL     1      -0.927   7.587   1.026  1.00  0.00     0.038 A 
HETATM    5  C5  UNL     1      -0.944   8.318   2.218  1.00  0.00     0.026 A 
HETATM    6  C6  UNL     1      -1.911   9.304   2.441  1.00  0.00     0.005 A 
ENDROOT
BRANCH   6   7
HETATM    7  N1  UNL     1      -1.991   9.944   3.683  1.00  0.00    -0.303 NA
HETATM    8  H5  UNL     1      -2.873   9.796   4.162  1.00  0.00     0.124 HD
HETATM    9  H6  UNL     1      -1.725  10.923   3.658  1.00  0.00     0.124 HD
ENDBRANCH   6   7
BRANCH   3  10
HETATM   10  O1  UNL     1      -1.936   7.129  -1.104  1.00  0.00    -0.361 OA
HETATM   11  H7  UNL     1      -1.777   7.751  -1.832  1.00  0.00     0.217 HD
ENDBRANCH   3  10
TORSDOF 2
ENDMDL
MODEL 12
REMARK VINA RESULT:      -2.7      9.861     10.474
REMARK  2 active torsions:
REMARK  status: ('A' for Active; 'I' for Inactive)
REMARK    1  A    between atoms: C3_3  and  O1_8 
REMARK    2  A    between atoms: C6_6  and  N1_7 
ROOT
HETATM    1  C1  UNL     1      -7.260  14.478   5.916  1.00  0.00     0.026 A 
HETATM    2  C2  UNL     1      -8.248  13.548   5.585  1.00  0.00     0.038 A 
HETATM    3  C3  UNL     1      -8.988  12.944   6.591  1.00  0.00     0.065 A 
HETATM    4  C4  UNL     1      -8.766  13.267   7.925  1.00  0.00     0.038 A 
HETATM    5  C5  UNL     1      -7.774  14.197   8.249  1.00  0.00     0.026 A 
HETATM    6  C6  UNL     1      -6.979  14.773   7.253  1.00  0.00     0.005 A 
ENDROOT
BRANCH   6   7
HETATM    7  N1  UNL     1      -6.072  15.790   7.576  1.00  0.00    -0.303 NA
HETATM    8  H5  UNL     1      -6.432  16.725   7.410  1.00  0.00     0.124 HD
HETATM    9  H6  UNL     1      -5.148  15.656   7.181  1.00  0.00     0.124 HD
ENDBRANCH   6   7
BRANCH   3  10
HETATM   10  O1  UNL     1      -9.945  12.044   6.227  1.00  0.00    -0.361 OA
HETATM   11  H7  UNL     1     -10.055  12.082   5.263  1.00  0.00     0.217 HD
ENDBRANCH   3  10
TORSDOF 2
ENDMDL
MODEL 13
REMARK VINA RESULT:      -2.6      5.519      6.526
REMARK  2 active torsions:
REMARK  status: ('A' for Active; 'I' for Inactive)
REMARK    1  A    between atoms: C3_3  and  O1_8 
REMARK    2  A    between atoms: C6_6  and  N1_7 
ROOT
HETATM    1  C1  UNL     1      -0.867   7.322   1.282  1.00  0.00     0.026 A 
HETATM    2  C2  UNL     1       0.251   8.151   1.161  1.00  0.00     0.038 A 
HETATM    3  C3  UNL     1       0.404   8.938   0.028  1.00  0.00     0.065 A 
HETATM    4  C4  UNL     1      -0.554   8.922  -0.980  1.00  0.00     0.038 A 
HETATM    5  C5  UNL     1      -1.669   8.089  -0.852  1.00  0.00     0.026 A 
HETATM    6  C6  UNL     1      -1.812   7.246   0.254  1.00  0.00     0.005 A 
ENDROOT
BRANCH   6   7
HETATM    7  N1  UNL     1      -2.987   6.507   0.430  1.00  0.00    -0.303 NA
HETATM    8  H5  UNL     1      -3.085   5.735  -0.222  1.00  0.00     0.124 HD
HETATM    9  H6  UNL     1      -3.826   7.076   0.484  1.00  0.00     0.124 HD
ENDBRANCH   6   7
BRANCH   3  10
HETATM   10  O1  UNL     1       1.507   9.734  -0.051  1.00  0.00    -0.361 OA
HETATM   11  H7  UNL     1       1.338  10.434  -0.702  1.00  0.00     0.217 HD
ENDBRANCH   3  10
TORSDOF 2
ENDMDL
MODEL 14
REMARK VINA RESULT:      -2.5      5.348      6.438
REMARK  2 active torsions:
REMARK  status: ('A' for Active; 'I' for Inactive)
REMARK    1  A    between atoms: C3_3  and  O1_8 
REMARK    2  A    between atoms: C6_6  and  N1_7 
ROOT
HETATM    1  C1  UNL     1       0.208   8.329   0.410  1.00  0.00     0.026 A 
HETATM    2  C2  UNL     1      -0.464   8.892  -0.677  1.00  0.00     0.038 A 
HETATM    3  C3  UNL     1      -1.843   8.765  -0.775  1.00  0.00     0.065 A 
HETATM    4  C4  UNL     1      -2.563   8.096   0.208  1.00  0.00     0.038 A 
HETATM    5  C5  UNL     1      -1.884   7.534   1.293  1.00  0.00     0.026 A 
HETATM    6  C6  UNL     1      -0.489   7.601   1.379  1.00  0.00     0.005 A 
ENDROOT
BRANCH   6   7
HETATM    7  N1  UNL     1       0.169   7.141   2.525  1.00  0.00    -0.303 NA
HETATM    8  H5  UNL     1       0.322   7.861   3.224  1.00  0.00     0.124 HD
HETATM    9  H6  UNL     1       1.010   6.608   2.329  1.00  0.00     0.124 HD
ENDBRANCH   6   7
BRANCH   3  10
HETATM   10  O1  UNL     1      -2.461   9.330  -1.849  1.00  0.00    -0.361 OA
HETATM   11  H7  UNL     1      -2.557  10.282  -1.686  1.00  0.00     0.217 HD
ENDBRANCH   3  10
TORSDOF 2
ENDMDL
MODEL 15
REMARK VINA RESULT:      -2.5      4.695      5.578
REMARK  2 active torsions:
REMARK  status: ('A' for Active; 'I' for Inactive)
REMARK    1  A    between atoms: C3_3  and  O1_8 
REMARK    2  A    between atoms: C6_6  and  N1_7 
ROOT
HETATM    1  C1  UNL     1      -6.873   9.893   1.157  1.00  0.00     0.026 A 
HETATM    2  C2  UNL     1      -5.889   9.532   0.234  1.00  0.00     0.038 A 
HETATM    3  C3  UNL     1      -5.117  10.516  -0.368  1.00  0.00     0.065 A 
HETATM    4  C4  UNL     1      -5.303  11.856  -0.048  1.00  0.00     0.038 A 
HETATM    5  C5  UNL     1      -6.291  12.210   0.875  1.00  0.00     0.026 A 
HETATM    6  C6  UNL     1      -7.118  11.239   1.448  1.00  0.00     0.005 A 
ENDROOT
BRANCH   6   7
HETATM    7  N1  UNL     1      -8.021  11.589   2.458  1.00  0.00    -0.303 NA
HETATM    8  H5  UNL     1      -7.622  11.558   3.391  1.00  0.00     0.124 HD
HETATM    9  H6  UNL     1      -8.909  11.102   2.402  1.00  0.00     0.124 HD
ENDBRANCH   6   7
BRANCH   3  10
HETATM   10  O1  UNL     1      -4.166  10.123  -1.261  1.00  0.00    -0.361 OA
HETATM   11  H7  UNL     1      -4.239  10.676  -2.055  1.00  0.00     0.217 HD
ENDBRANCH   3  10
TORSDOF 2
ENDMDL
MODEL 16
REMARK VINA RESULT:      -2.5      5.381      6.333
REMARK  2 active torsions:
REMARK  status: ('A' for Active; 'I' for Inactive)
REMARK    1  A    between atoms: C3_3  and  O1_8 
REMARK    2  A    between atoms: C6_6  and  N1_7 
ROOT
HETATM    1  C1  UNL     1      -0.394   8.983  -1.128  1.00  0.00     0.026 A 
HETATM    2  C2  UNL     1      -1.564   8.222  -1.081  1.00  0.00     0.038 A 
HETATM    3  C3  UNL     1      -1.850   7.468   0.049  1.00  0.00     0.065 A 
HETATM    4  C4  UNL     1      -0.989   7.476   1.141  1.00  0.00     0.038 A 
HETATM    5  C5  UNL     1       0.181   8.239   1.086  1.00  0.00     0.026 A 
HETATM    6  C6  UNL     1       0.515   8.958  -0.066  1.00  0.00     0.005 A 
ENDROOT
BRANCH   6   7
HETATM    7  N1  UNL     1       1.625   9.811  -0.068  1.00  0.00    -0.303 NA
HETATM    8  H5  UNL     1       2.106   9.856   0.825  1.00  0.00     0.124 HD
HETATM    9  H6  UNL     1       1.435  10.731  -0.450  1.00  0.00     0.124 HD
ENDBRANCH   6   7
BRANCH   3  10
HETATM   10  O1  UNL     1      -3.002   6.741   0.057  1.00  0.00    -0.361 OA
HETATM   11  H7  UNL     1      -3.693   7.261   0.499  1.00  0.00     0.217 HD
ENDBRANCH   3  10
TORSDOF 2
ENDMDL
MODEL 17
REMARK VINA RESULT:      -2.4      5.524      6.584
REMARK  2 active torsions:
REMARK  status: ('A' for Active; 'I' for Inactive)
REMARK    1  A    between atoms: C3_3  and  O1_8 
REMARK    2  A    between atoms: C6_6  and  N1_7 
ROOT
HETATM    1  C1  UNL     1      -5.576  12.241  -0.325  1.00  0.00     0.026 A 
HETATM    2  C2  UNL     1      -6.475  12.912   0.506  1.00  0.00     0.038 A 
HETATM    3  C3  UNL     1      -7.224  12.196   1.429  1.00  0.00     0.065 A 
HETATM    4  C4  UNL     1      -7.076  10.818   1.545  1.00  0.00     0.038 A 
HETATM    5  C5  UNL     1      -6.175  10.153   0.709  1.00  0.00     0.026 A 
HETATM    6  C6  UNL     1      -5.454  10.849  -0.267  1.00  0.00     0.005 A 
ENDROOT
BRANCH   6   7
HETATM    7  N1  UNL     1      -4.470  10.195  -1.017  1.00  0.00    -0.303 NA
HETATM    8  H5  UNL     1      -3.667   9.901  -0.469  1.00  0.00     0.124 HD
HETATM    9  H6  UNL     1      -4.201  10.689  -1.861  1.00  0.00     0.124 HD
ENDBRANCH   6   7
BRANCH   3  10
HETATM   10  O1  UNL     1      -8.089  12.887   2.224  1.00  0.00    -0.361 OA
HETATM   11  H7  UNL     1      -8.422  13.652   1.728  1.00  0.00     0.217 HD
ENDBRANCH   3  10
TORSDOF 2
ENDMDL
MODEL 18
REMARK VINA RESULT:      -2.4     10.087     10.697
REMARK  2 active torsions:
REMARK  status: ('A' for Active; 'I' for Inactive)
REMARK    1  A    between atoms: C3_3  and  O1_8 
REMARK    2  A    between atoms: C6_6  and  N1_7 
ROOT
HETATM    1  C1  UNL     1      -6.340  14.145   7.465  1.00  0.00     0.026 A 
HETATM    2  C2  UNL     1      -7.129  13.946   8.600  1.00  0.00     0.038 A 
HETATM    3  C3  UNL     1      -8.479  13.663   8.458  1.00  0.00     0.065 A 
HETATM    4  C4  UNL     1      -9.052  13.558   7.195  1.00  0.00     0.038 A 
HETATM    5  C5  UNL     1      -8.256  13.759   6.063  1.00  0.00     0.026 A 
HETATM    6  C6  UNL     1      -6.907  14.104   6.187  1.00  0.00     0.005 A 
ENDROOT
BRANCH   6   7
HETATM    7  N1  UNL     1      -6.093  14.186   5.051  1.00  0.00    -0.303 NA
HETATM    8  H5  UNL     1      -5.309  13.541   5.064  1.00  0.00     0.124 HD
HETATM    9  H6  UNL     1      -5.811  15.132   4.816  1.00  0.00     0.124 HD
ENDBRANCH   6   7
BRANCH   3  10
HETATM   10  O1  UNL     1      -9.214  13.473   9.590  1.00  0.00    -0.361 OA
HETATM   11  H7  UNL     1     -10.081  13.892   9.470  1.00  0.00     0.217 HD
ENDBRANCH   3  10
TORSDOF 2
ENDMDL
MODEL 19
REMARK VINA RESULT:      -2.4      4.527      5.333
REMARK  2 active torsions:
REMARK  status: ('A' for Active; 'I' for Inactive)
REMARK    1  A    between atoms: C3_3  and  O1_8 
REMARK    2  A    between atoms: C6_6  and  N1_7 
ROOT
HETATM    1  C1  UNL     1      -3.249  10.176  -0.865  1.00  0.00     0.026 A 
HETATM    2  C2  UNL     1      -2.023   9.699  -1.332  1.00  0.00     0.038 A 
HETATM    3  C3  UNL     1      -1.420   8.619  -0.704  1.00  0.00     0.065 A 
HETATM    4  C4  UNL     1      -2.035   7.996   0.377  1.00  0.00     0.038 A 
HETATM    5  C5  UNL     1      -3.262   8.480   0.840  1.00  0.00     0.026 A 
HETATM    6  C6  UNL     1      -3.856   9.604   0.257  1.00  0.00     0.005 A 
ENDROOT
BRANCH   6   7
HETATM    7  N1  UNL     1      -5.138  10.007   0.648  1.00  0.00    -0.303 NA
HETATM    8  H5  UNL     1      -5.517  10.763   0.087  1.00  0.00     0.124 HD
HETATM    9  H6  UNL     1      -5.227  10.182   1.643  1.00  0.00     0.124 HD
ENDBRANCH   6   7
BRANCH   3  10
HETATM   10  O1  UNL     1      -0.225   8.181  -1.191  1.00  0.00    -0.361 OA
HETATM   11  H7  UNL     1       0.255   8.940  -1.560  1.00  0.00     0.217 HD
ENDBRANCH   3  10
TORSDOF 2
ENDMDL
