HETATM    1  C1  UNL     1      -7.251   9.421   8.357  1.00  0.00     0.026 A 
HETATM    2  C2  UNL     1      -6.875   8.145   8.782  1.00  0.00     0.038 A 
HETATM    3  C3  UNL     1      -5.529   7.817   8.867  1.00  0.00     0.065 A 
HETATM    4  C4  UNL     1      -4.551   8.752   8.549  1.00  0.00     0.038 A 
HETATM    5  C5  UNL     1      -4.935  10.028   8.123  1.00  0.00     0.026 A 
HETATM    6  C6  UNL     1      -6.285  10.358   7.974  1.00  0.00     0.005 A 
HETATM    7  N1  UNL     1      -6.660  11.670   7.663  1.00  0.00    -0.303 NA
HETATM    8  H5  UNL     1      -6.023  12.373   8.025  1.00  0.00     0.124 HD
HETATM    9  H6  UNL     1      -7.629  11.881   7.875  1.00  0.00     0.124 HD
HETATM   10  O1  UNL     1      -5.204   6.563   9.288  1.00  0.00    -0.361 OA
HETATM   11  H7  UNL     1      -4.462   6.628   9.911  1.00  0.00     0.217 HD
HETATM    1  C1  UNL     1      -6.951   8.235   8.771  1.00  0.00     0.026 A 
HETATM    2  C2  UNL     1      -7.343   9.518   8.381  1.00  0.00     0.038 A 
HETATM    3  C3  UNL     1      -6.378  10.463   8.061  1.00  0.00     0.065 A 
HETATM    4  C4  UNL     1      -5.027  10.140   8.109  1.00  0.00     0.038 A 
HETATM    5  C5  UNL     1      -4.643   8.855   8.502  1.00  0.00     0.026 A 
HETATM    6  C6  UNL     1      -5.597   7.906   8.884  1.00  0.00     0.005 A 
HETATM    7  N1  UNL     1      -5.211   6.590   9.160  1.00  0.00    -0.303 NA
HETATM    8  H5  UNL     1      -4.225   6.411   8.998  1.00  0.00     0.124 HD
HETATM    9  H6  UNL     1      -5.806   5.889   8.730  1.00  0.00     0.124 HD
HETATM   10  O1  UNL     1      -6.800  11.702   7.683  1.00  0.00    -0.361 OA
HETATM   11  H7  UNL     1      -6.501  11.868   6.774  1.00  0.00     0.217 HD
HETATM    1  C1  UNL     1       1.021  12.746  10.390  1.00  0.00     0.026 A 
HETATM    2  C2  UNL     1       0.060  12.070   9.636  1.00  0.00     0.038 A 
HETATM    3  C3  UNL     1       0.271  10.745   9.282  1.00  0.00     0.065 A 
HETATM    4  C4  UNL     1       1.422  10.079   9.686  1.00  0.00     0.038 A 
HETATM    5  C5  UNL     1       2.381  10.763  10.440  1.00  0.00     0.026 A 
HETATM    6  C6  UNL     1       2.213  12.115  10.756  1.00  0.00     0.005 A 
HETATM    7  N1  UNL     1       3.118  12.756  11.610  1.00  0.00    -0.303 NA
HETATM    8  H5  UNL     1       3.837  13.282  11.122  1.00  0.00     0.124 HD
HETATM    9  H6  UNL     1       3.501  12.153  12.330  1.00  0.00     0.124 HD
HETATM   10  O1  UNL     1      -0.692  10.119   8.548  1.00  0.00    -0.361 OA
HETATM   11  H7  UNL     1      -1.544  10.550   8.722  1.00  0.00     0.217 HD
HETATM    1  C1  UNL     1       1.033  10.066   9.560  1.00  0.00     0.026 A 
HETATM    2  C2  UNL     1       0.345  11.087   8.901  1.00  0.00     0.038 A 
HETATM    3  C3  UNL     1       1.049  12.151   8.355  1.00  0.00     0.065 A 
HETATM    4  C4  UNL     1       2.436  12.202   8.444  1.00  0.00     0.038 A 
HETATM    5  C5  UNL     1       3.118  11.177   9.107  1.00  0.00     0.026 A 
HETATM    6  C6  UNL     1       2.422  10.128   9.714  1.00  0.00     0.005 A 
HETATM    7  N1  UNL     1       3.118   9.048  10.270  1.00  0.00    -0.303 NA
HETATM    8  H5  UNL     1       3.781   9.318  10.990  1.00  0.00     0.124 HD
HETATM    9  H6  UNL     1       3.527   8.425   9.581  1.00  0.00     0.124 HD
HETATM   10  O1  UNL     1       0.341  13.125   7.717  1.00  0.00    -0.361 OA
HETATM   11  H7  UNL     1       0.898  13.506   7.019  1.00  0.00     0.217 HD
HETATM    1  C1  UNL     1       0.346  11.243   8.870  1.00  0.00     0.026 A 
HETATM    2  C2  UNL     1       0.923  10.172   9.556  1.00  0.00     0.038 A 
HETATM    3  C3  UNL     1       2.304  10.091   9.670  1.00  0.00     0.065 A 
HETATM    4  C4  UNL     1       3.118  11.075   9.120  1.00  0.00     0.038 A 
HETATM    5  C5  UNL     1       2.534  12.144   8.433  1.00  0.00     0.026 A 
HETATM    6  C6  UNL     1       1.148  12.211   8.258  1.00  0.00     0.005 A 
HETATM    7  N1  UNL     1       0.566  13.343   7.674  1.00  0.00    -0.303 NA
HETATM    8  H5  UNL     1       0.850  13.496   6.711  1.00  0.00     0.124 HD
HETATM    9  H6  UNL     1       0.644  14.182   8.238  1.00  0.00     0.124 HD
HETATM   10  O1  UNL     1       2.827   9.033  10.350  1.00  0.00    -0.361 OA
HETATM   11  H7  UNL     1       2.160   8.704  10.973  1.00  0.00     0.217 HD
HETATM    1  C1  UNL     1      -7.999  11.398   8.830  1.00  0.00     0.026 A 
HETATM    2  C2  UNL     1      -7.217  10.294   8.485  1.00  0.00     0.038 A 
HETATM    3  C3  UNL     1      -5.914  10.485   8.047  1.00  0.00     0.065 A 
HETATM    4  C4  UNL     1      -5.375  11.765   7.963  1.00  0.00     0.038 A 
HETATM    5  C5  UNL     1      -6.166  12.865   8.309  1.00  0.00     0.026 A 
HETATM    6  C6  UNL     1      -7.499  12.697   8.697  1.00  0.00     0.005 A 
HETATM    7  N1  UNL     1      -8.243  13.790   9.154  1.00  0.00    -0.303 NA
HETATM    8  H5  UNL     1      -8.510  13.722  10.131  1.00  0.00     0.124 HD
HETATM    9  H6  UNL     1      -9.025  14.033   8.556  1.00  0.00     0.124 HD
HETATM   10  O1  UNL     1      -5.182   9.383   7.722  1.00  0.00    -0.361 OA
HETATM   11  H7  UNL     1      -5.788   8.681   7.437  1.00  0.00     0.217 HD
HETATM    1  C1  UNL     1       0.026  12.111   9.710  1.00  0.00     0.026 A 
HETATM    2  C2  UNL     1       1.042  12.699  10.467  1.00  0.00     0.038 A 
HETATM    3  C3  UNL     1       2.147  11.946  10.839  1.00  0.00     0.065 A 
HETATM    4  C4  UNL     1       2.259  10.615  10.451  1.00  0.00     0.038 A 
HETATM    5  C5  UNL     1       1.237  10.033   9.694  1.00  0.00     0.026 A 
HETATM    6  C6  UNL     1       0.090  10.759   9.360  1.00  0.00     0.005 A 
HETATM    7  N1  UNL     1      -0.870  10.206   8.505  1.00  0.00    -0.303 NA
HETATM    8  H5  UNL     1      -1.570   9.648   8.983  1.00  0.00     0.124 HD
HETATM    9  H6  UNL     1      -0.476   9.727   7.702  1.00  0.00     0.124 HD
HETATM   10  O1  UNL     1       3.118  12.556  11.574  1.00  0.00    -0.361 OA
HETATM   11  H7  UNL     1       3.395  11.953  12.282  1.00  0.00     0.217 HD
HETATM    1  C1  UNL     1      -8.899  15.473  12.546  1.00  0.00     0.026 A 
HETATM    2  C2  UNL     1      -9.239  15.604  13.894  1.00  0.00     0.038 A 
HETATM    3  C3  UNL     1      -8.833  16.727  14.601  1.00  0.00     0.065 A 
HETATM    4  C4  UNL     1      -8.104  17.731  13.975  1.00  0.00     0.038 A 
HETATM    5  C5  UNL     1      -7.765  17.593  12.625  1.00  0.00     0.026 A 
HETATM    6  C6  UNL     1      -8.115  16.442  11.912  1.00  0.00     0.005 A 
HETATM    7  N1  UNL     1      -7.876  16.366  10.535  1.00  0.00    -0.303 NA
HETATM    8  H5  UNL     1      -8.714  16.465   9.970  1.00  0.00     0.124 HD
HETATM    9  H6  UNL     1      -7.317  15.567  10.259  1.00  0.00     0.124 HD
HETATM   10  O1  UNL     1      -9.188  16.818  15.913  1.00  0.00    -0.361 OA
HETATM   11  H7  UNL     1      -8.518  17.344  16.379  1.00  0.00     0.217 HD
HETATM    1  C1  UNL     1      -9.230  15.633  13.879  1.00  0.00     0.026 A 
HETATM    2  C2  UNL     1      -8.891  15.483  12.532  1.00  0.00     0.038 A 
HETATM    3  C3  UNL     1      -8.129  16.457  11.902  1.00  0.00     0.065 A 
HETATM    4  C4  UNL     1      -7.687  17.573  12.603  1.00  0.00     0.038 A 
HETATM    5  C5  UNL     1      -8.031  17.717  13.950  1.00  0.00     0.026 A 
HETATM    6  C6  UNL     1      -8.847  16.776  14.587  1.00  0.00     0.005 A 
HETATM    7  N1  UNL     1      -9.086  16.867  15.963  1.00  0.00    -0.303 NA
HETATM    8  H5  UNL     1      -8.975  17.805  16.335  1.00  0.00     0.124 HD
HETATM    9  H6  UNL     1      -8.592  16.173  16.512  1.00  0.00     0.124 HD
HETATM   10  O1  UNL     1      -7.817  16.272  10.588  1.00  0.00    -0.361 OA
HETATM   11  H7  UNL     1      -7.913  15.330  10.377  1.00  0.00     0.217 HD
HETATM    1  C1  UNL     1      -7.963  17.731  14.112  1.00  0.00     0.026 A 
HETATM    2  C2  UNL     1      -7.653  17.641  12.753  1.00  0.00     0.038 A 
HETATM    3  C3  UNL     1      -8.118  16.564  12.012  1.00  0.00     0.065 A 
HETATM    4  C4  UNL     1      -8.903  15.582  12.606  1.00  0.00     0.038 A 
HETATM    5  C5  UNL     1      -9.208  15.678  13.967  1.00  0.00     0.026 A 
HETATM    6  C6  UNL     1      -8.700  16.725  14.743  1.00  0.00     0.005 A 
HETATM    7  N1  UNL     1      -9.107  16.878  16.074  1.00  0.00    -0.303 NA
HETATM    8  H5  UNL     1      -8.845  16.101  16.672  1.00  0.00     0.124 HD
HETATM    9  H6  UNL     1     -10.083  17.133  16.177  1.00  0.00     0.124 HD
HETATM   10  O1  UNL     1      -7.796  16.513  10.689  1.00  0.00    -0.361 OA
HETATM   11  H7  UNL     1      -7.284  15.705  10.525  1.00  0.00     0.217 HD
HETATM    1  C1  UNL     1      -2.880  12.800   8.894  1.00  0.00     0.026 A 
HETATM    2  C2  UNL     1      -2.869  12.074   7.700  1.00  0.00     0.038 A 
HETATM    3  C3  UNL     1      -1.867  11.141   7.472  1.00  0.00     0.065 A 
HETATM    4  C4  UNL     1      -0.883  10.910   8.427  1.00  0.00     0.038 A 
HETATM    5  C5  UNL     1      -0.900  11.641   9.619  1.00  0.00     0.026 A 
HETATM    6  C6  UNL     1      -1.867  12.627   9.842  1.00  0.00     0.005 A 
HETATM    7  N1  UNL     1      -1.947  13.267  11.084  1.00  0.00    -0.303 NA
HETATM    8  H5  UNL     1      -2.829  13.119  11.563  1.00  0.00     0.124 HD
HETATM    9  H6  UNL     1      -1.681  14.246  11.059  1.00  0.00     0.124 HD
HETATM   10  O1  UNL     1      -1.892  10.452   6.297  1.00  0.00    -0.361 OA
HETATM   11  H7  UNL     1      -1.733  11.074   5.569  1.00  0.00     0.217 HD
HETATM    1  C1  UNL     1      -7.216  17.801  13.317  1.00  0.00     0.026 A 
HETATM    2  C2  UNL     1      -8.204  16.871  12.986  1.00  0.00     0.038 A 
HETATM    3  C3  UNL     1      -8.944  16.267  13.992  1.00  0.00     0.065 A 
HETATM    4  C4  UNL     1      -8.722  16.590  15.326  1.00  0.00     0.038 A 
HETATM    5  C5  UNL     1      -7.730  17.520  15.650  1.00  0.00     0.026 A 
HETATM    6  C6  UNL     1      -6.935  18.096  14.654  1.00  0.00     0.005 A 
HETATM    7  N1  UNL     1      -6.028  19.113  14.977  1.00  0.00    -0.303 NA
HETATM    8  H5  UNL     1      -6.388  20.048  14.811  1.00  0.00     0.124 HD
HETATM    9  H6  UNL     1      -5.104  18.979  14.582  1.00  0.00     0.124 HD
HETATM   10  O1  UNL     1      -9.901  15.367  13.628  1.00  0.00    -0.361 OA
HETATM   11  H7  UNL     1     -10.011  15.405  12.664  1.00  0.00     0.217 HD
HETATM    1  C1  UNL     1      -0.823  10.645   8.683  1.00  0.00     0.026 A 
HETATM    2  C2  UNL     1       0.295  11.474   8.562  1.00  0.00     0.038 A 
HETATM    3  C3  UNL     1       0.448  12.261   7.429  1.00  0.00     0.065 A 
HETATM    4  C4  UNL     1      -0.510  12.245   6.421  1.00  0.00     0.038 A 
HETATM    5  C5  UNL     1      -1.625  11.412   6.549  1.00  0.00     0.026 A 
HETATM    6  C6  UNL     1      -1.768  10.569   7.655  1.00  0.00     0.005 A 
HETATM    7  N1  UNL     1      -2.943   9.830   7.831  1.00  0.00    -0.303 NA
HETATM    8  H5  UNL     1      -3.041   9.058   7.179  1.00  0.00     0.124 HD
HETATM    9  H6  UNL     1      -3.782  10.399   7.885  1.00  0.00     0.124 HD
HETATM   10  O1  UNL     1       1.551  13.057   7.350  1.00  0.00    -0.361 OA
HETATM   11  H7  UNL     1       1.382  13.757   6.699  1.00  0.00     0.217 HD
HETATM    1  C1  UNL     1       0.252  11.652   7.811  1.00  0.00     0.026 A 
HETATM    2  C2  UNL     1      -0.420  12.215   6.724  1.00  0.00     0.038 A 
HETATM    3  C3  UNL     1      -1.799  12.088   6.626  1.00  0.00     0.065 A 
HETATM    4  C4  UNL     1      -2.519  11.419   7.609  1.00  0.00     0.038 A 
HETATM    5  C5  UNL     1      -1.840  10.857   8.694  1.00  0.00     0.026 A 
HETATM    6  C6  UNL     1      -0.445  10.924   8.780  1.00  0.00     0.005 A 
HETATM    7  N1  UNL     1       0.213  10.464   9.926  1.00  0.00    -0.303 NA
HETATM    8  H5  UNL     1       0.366  11.184  10.625  1.00  0.00     0.124 HD
HETATM    9  H6  UNL     1       1.054   9.931   9.730  1.00  0.00     0.124 HD
HETATM   10  O1  UNL     1      -2.417  12.653   5.552  1.00  0.00    -0.361 OA
HETATM   11  H7  UNL     1      -2.513  13.605   5.715  1.00  0.00     0.217 HD
HETATM    1  C1  UNL     1      -6.829  13.216   8.558  1.00  0.00     0.026 A 
HETATM    2  C2  UNL     1      -5.845  12.855   7.635  1.00  0.00     0.038 A 
HETATM    3  C3  UNL     1      -5.073  13.839   7.033  1.00  0.00     0.065 A 
HETATM    4  C4  UNL     1      -5.259  15.179   7.353  1.00  0.00     0.038 A 
HETATM    5  C5  UNL     1      -6.247  15.533   8.276  1.00  0.00     0.026 A 
HETATM    6  C6  UNL     1      -7.074  14.562   8.849  1.00  0.00     0.005 A 
HETATM    7  N1  UNL     1      -7.977  14.912   9.859  1.00  0.00    -0.303 NA
HETATM    8  H5  UNL     1      -7.578  14.881  10.792  1.00  0.00     0.124 HD
HETATM    9  H6  UNL     1      -8.865  14.425   9.803  1.00  0.00     0.124 HD
HETATM   10  O1  UNL     1      -4.122  13.446   6.140  1.00  0.00    -0.361 OA
HETATM   11  H7  UNL     1      -4.195  13.999   5.346  1.00  0.00     0.217 HD
HETATM    1  C1  UNL     1      -0.350  12.306   6.273  1.00  0.00     0.026 A 
HETATM    2  C2  UNL     1      -1.520  11.545   6.320  1.00  0.00     0.038 A 
HETATM    3  C3  UNL     1      -1.806  10.791   7.450  1.00  0.00     0.065 A 
HETATM    4  C4  UNL     1      -0.945  10.799   8.542  1.00  0.00     0.038 A 
HETATM    5  C5  UNL     1       0.225  11.562   8.487  1.00  0.00     0.026 A 
HETATM    6  C6  UNL     1       0.559  12.281   7.335  1.00  0.00     0.005 A 
HETATM    7  N1  UNL     1       1.669  13.134   7.333  1.00  0.00    -0.303 NA
HETATM    8  H5  UNL     1       2.150  13.179   8.226  1.00  0.00     0.124 HD
HETATM    9  H6  UNL     1       1.479  14.054   6.951  1.00  0.00     0.124 HD
HETATM   10  O1  UNL     1      -2.958  10.064   7.458  1.00  0.00    -0.361 OA
HETATM   11  H7  UNL     1      -3.649  10.584   7.900  1.00  0.00     0.217 HD
HETATM    1  C1  UNL     1      -5.532  15.564   7.076  1.00  0.00     0.026 A 
HETATM    2  C2  UNL     1      -6.431  16.235   7.907  1.00  0.00     0.038 A 
HETATM    3  C3  UNL     1      -7.180  15.519   8.830  1.00  0.00     0.065 A 
HETATM    4  C4  UNL     1      -7.032  14.141   8.946  1.00  0.00     0.038 A 
HETATM    5  C5  UNL     1      -6.131  13.476   8.110  1.00  0.00     0.026 A 
HETATM    6  C6  UNL     1      -5.410  14.172   7.134  1.00  0.00     0.005 A 
HETATM    7  N1  UNL     1      -4.426  13.518   6.384  1.00  0.00    -0.303 NA
HETATM    8  H5  UNL     1      -3.623  13.224   6.932  1.00  0.00     0.124 HD
HETATM    9  H6  UNL     1      -4.157  14.012   5.540  1.00  0.00     0.124 HD
HETATM   10  O1  UNL     1      -8.045  16.210   9.625  1.00  0.00    -0.361 OA
HETATM   11  H7  UNL     1      -8.378  16.975   9.129  1.00  0.00     0.217 HD
HETATM    1  C1  UNL     1      -6.296  17.468  14.866  1.00  0.00     0.026 A 
HETATM    2  C2  UNL     1      -7.085  17.269  16.001  1.00  0.00     0.038 A 
HETATM    3  C3  UNL     1      -8.435  16.986  15.859  1.00  0.00     0.065 A 
HETATM    4  C4  UNL     1      -9.008  16.881  14.596  1.00  0.00     0.038 A 
HETATM    5  C5  UNL     1      -8.212  17.082  13.464  1.00  0.00     0.026 A 
HETATM    6  C6  UNL     1      -6.863  17.427  13.588  1.00  0.00     0.005 A 
HETATM    7  N1  UNL     1      -6.049  17.509  12.452  1.00  0.00    -0.303 NA
HETATM    8  H5  UNL     1      -5.265  16.864  12.465  1.00  0.00     0.124 HD
HETATM    9  H6  UNL     1      -5.767  18.455  12.217  1.00  0.00     0.124 HD
HETATM   10  O1  UNL     1      -9.170  16.796  16.991  1.00  0.00    -0.361 OA
HETATM   11  H7  UNL     1     -10.037  17.215  16.871  1.00  0.00     0.217 HD
HETATM    1  C1  UNL     1      -3.205  13.499   6.536  1.00  0.00     0.026 A 
HETATM    2  C2  UNL     1      -1.979  13.022   6.069  1.00  0.00     0.038 A 
HETATM    3  C3  UNL     1      -1.376  11.942   6.697  1.00  0.00     0.065 A 
HETATM    4  C4  UNL     1      -1.991  11.319   7.778  1.00  0.00     0.038 A 
HETATM    5  C5  UNL     1      -3.218  11.803   8.241  1.00  0.00     0.026 A 
HETATM    6  C6  UNL     1      -3.812  12.927   7.658  1.00  0.00     0.005 A 
HETATM    7  N1  UNL     1      -5.094  13.330   8.049  1.00  0.00    -0.303 NA
HETATM    8  H5  UNL     1      -5.473  14.086   7.488  1.00  0.00     0.124 HD
HETATM    9  H6  UNL     1      -5.183  13.505   9.044  1.00  0.00     0.124 HD
HETATM   10  O1  UNL     1      -0.181  11.504   6.210  1.00  0.00    -0.361 OA
HETATM   11  H7  UNL     1       0.299  12.263   5.841  1.00  0.00     0.217 HD
