MODEL 1
REMARK VINA RESULT:      -4.9      0.000      0.000
REMARK  2 active torsions:
REMARK  status: ('A' for Active; 'I' for Inactive)
REMARK    1  A    between atoms: C3_3  and  O1_8 
REMARK    2  A    between atoms: C6_6  and  N1_7 
ROOT
HETATM    1  C1  UNL     1       2.148  -6.145  10.244  1.00  0.00     0.026 A 
HETATM    2  C2  UNL     1       2.027  -7.381  10.883  1.00  0.00     0.038 A 
HETATM    3  C3  UNL     1       1.379  -8.426  10.241  1.00  0.00     0.065 A 
HETATM    4  C4  UNL     1       0.863  -8.259   8.960  1.00  0.00     0.038 A 
HETATM    5  C5  UNL     1       0.986  -7.019   8.328  1.00  0.00     0.026 A 
HETATM    6  C6  UNL     1       1.584  -5.937   8.982  1.00  0.00     0.005 A 
ENDROOT
BRANCH   6   7
HETATM    7  N1  UNL     1       1.809  -4.737   8.297  1.00  0.00    -0.303 NA
HETATM    8  H5  UNL     1       2.472  -4.821   7.533  1.00  0.00     0.124 HD
HETATM    9  H6  UNL     1       2.017  -3.951   8.904  1.00  0.00     0.124 HD
ENDBRANCH   6   7
BRANCH   3  10
HETATM   10  O1  UNL     1       1.284  -9.617  10.896  1.00  0.00    -0.361 OA
HETATM   11  H7  UNL     1       0.361  -9.752  11.161  1.00  0.00     0.217 HD
ENDBRANCH   3  10
TORSDOF 2
ENDMDL
MODEL 2
REMARK VINA RESULT:      -4.8      2.779      3.682
REMARK  2 active torsions:
REMARK  status: ('A' for Active; 'I' for Inactive)
REMARK    1  A    between atoms: C3_3  and  O1_8 
REMARK    2  A    between atoms: C6_6  and  N1_7 
ROOT
HETATM    1  C1  UNL     1       0.871  -8.165   8.924  1.00  0.00     0.026 A 
HETATM    2  C2  UNL     1       0.991  -6.939   8.266  1.00  0.00     0.038 A 
HETATM    3  C3  UNL     1       1.643  -5.885   8.890  1.00  0.00     0.065 A 
HETATM    4  C4  UNL     1       2.194  -6.043  10.157  1.00  0.00     0.038 A 
HETATM    5  C5  UNL     1       2.068  -7.273  10.810  1.00  0.00     0.026 A 
HETATM    6  C6  UNL     1       1.363  -8.328  10.222  1.00  0.00     0.005 A 
ENDROOT
BRANCH   6   7
HETATM    7  N1  UNL     1       1.346  -9.589  10.830  1.00  0.00    -0.303 NA
HETATM    8  H5  UNL     1       1.702  -9.588  11.781  1.00  0.00     0.124 HD
HETATM    9  H6  UNL     1       1.758 -10.323  10.264  1.00  0.00     0.124 HD
ENDBRANCH   6   7
BRANCH   3  10
HETATM   10  O1  UNL     1       1.742  -4.705   8.214  1.00  0.00    -0.361 OA
HETATM   11  H7  UNL     1       1.153  -4.740   7.444  1.00  0.00     0.217 HD
ENDBRANCH   3  10
TORSDOF 2
ENDMDL
MODEL 3
REMARK VINA RESULT:      -4.5      2.116      2.401
REMARK  2 active torsions:
REMARK  status: ('A' for Active; 'I' for Inactive)
REMARK    1  A    between atoms: C3_3  and  O1_8 
REMARK    2  A    between atoms: C6_6  and  N1_7 
ROOT
HETATM    1  C1  UNL     1      -1.137  -7.492  10.393  1.00  0.00     0.026 A 
HETATM    2  C2  UNL     1      -0.711  -8.817  10.278  1.00  0.00     0.038 A 
HETATM    3  C3  UNL     1       0.205  -9.161   9.294  1.00  0.00     0.065 A 
HETATM    4  C4  UNL     1       0.716  -8.196   8.433  1.00  0.00     0.038 A 
HETATM    5  C5  UNL     1       0.284  -6.872   8.554  1.00  0.00     0.026 A 
HETATM    6  C6  UNL     1      -0.683  -6.516   9.500  1.00  0.00     0.005 A 
ENDROOT
BRANCH   6   7
HETATM    7  N1  UNL     1      -1.020  -5.172   9.693  1.00  0.00    -0.303 NA
HETATM    8  H5  UNL     1      -1.916  -5.037  10.150  1.00  0.00     0.124 HD
HETATM    9  H6  UNL     1      -0.922  -4.601   8.860  1.00  0.00     0.124 HD
ENDBRANCH   6   7
BRANCH   3  10
HETATM   10  O1  UNL     1       0.598 -10.464   9.215  1.00  0.00    -0.361 OA
HETATM   11  H7  UNL     1      -0.049 -10.950   8.680  1.00  0.00     0.217 HD
ENDBRANCH   3  10
TORSDOF 2
ENDMDL
MODEL 4
REMARK VINA RESULT:      -4.5      3.252      3.769
REMARK  2 active torsions:
REMARK  status: ('A' for Active; 'I' for Inactive)
REMARK    1  A    between atoms: C3_3  and  O1_8 
REMARK    2  A    between atoms: C6_6  and  N1_7 
ROOT
HETATM    1  C1  UNL     1      -0.760  -8.757  10.331  1.00  0.00     0.026 A 
HETATM    2  C2  UNL     1      -1.168  -7.422  10.365  1.00  0.00     0.038 A 
HETATM    3  C3  UNL     1      -0.633  -6.516   9.460  1.00  0.00     0.065 A 
HETATM    4  C4  UNL     1       0.294  -6.929   8.510  1.00  0.00     0.038 A 
HETATM    5  C5  UNL     1       0.699  -8.267   8.483  1.00  0.00     0.026 A 
HETATM    6  C6  UNL     1       0.216  -9.182   9.424  1.00  0.00     0.005 A 
ENDROOT
BRANCH   6   7
HETATM    7  N1  UNL     1       0.535 -10.540   9.314  1.00  0.00    -0.303 NA
HETATM    8  H5  UNL     1       0.201 -10.969   8.457  1.00  0.00     0.124 HD
HETATM    9  H6  UNL     1       0.298 -11.084  10.137  1.00  0.00     0.124 HD
ENDBRANCH   6   7
BRANCH   3  10
HETATM   10  O1  UNL     1      -1.059  -5.224   9.524  1.00  0.00    -0.361 OA
HETATM   11  H7  UNL     1      -1.091  -4.953  10.455  1.00  0.00     0.217 HD
ENDBRANCH   3  10
TORSDOF 2
ENDMDL
MODEL 5
REMARK VINA RESULT:      -4.5      3.192      3.576
REMARK  2 active torsions:
REMARK  status: ('A' for Active; 'I' for Inactive)
REMARK    1  A    between atoms: C3_3  and  O1_8 
REMARK    2  A    between atoms: C6_6  and  N1_7 
ROOT
HETATM    1  C1  UNL     1      -0.166  -4.509  10.752  1.00  0.00     0.026 A 
HETATM    2  C2  UNL     1       1.022  -4.429  10.022  1.00  0.00     0.038 A 
HETATM    3  C3  UNL     1       1.254  -5.324   8.987  1.00  0.00     0.065 A 
HETATM    4  C4  UNL     1       0.308  -6.289   8.659  1.00  0.00     0.038 A 
HETATM    5  C5  UNL     1      -0.878  -6.363   9.395  1.00  0.00     0.026 A 
HETATM    6  C6  UNL     1      -1.105  -5.509  10.479  1.00  0.00     0.005 A 
ENDROOT
BRANCH   6   7
HETATM    7  N1  UNL     1      -2.343  -5.512  11.132  1.00  0.00    -0.303 NA
HETATM    8  H5  UNL     1      -2.898  -4.680  10.957  1.00  0.00     0.124 HD
HETATM    9  H6  UNL     1      -2.285  -5.737  12.119  1.00  0.00     0.124 HD
ENDBRANCH   6   7
BRANCH   3  10
HETATM   10  O1  UNL     1       2.424  -5.212   8.297  1.00  0.00    -0.361 OA
HETATM   11  H7  UNL     1       2.346  -5.715   7.471  1.00  0.00     0.217 HD
ENDBRANCH   3  10
TORSDOF 2
ENDMDL
MODEL 6
REMARK VINA RESULT:      -4.3      2.341      2.484
REMARK  2 active torsions:
REMARK  status: ('A' for Active; 'I' for Inactive)
REMARK    1  A    between atoms: C3_3  and  O1_8 
REMARK    2  A    between atoms: C6_6  and  N1_7 
ROOT
HETATM    1  C1  UNL     1       0.596  -4.840   9.995  1.00  0.00     0.026 A 
HETATM    2  C2  UNL     1      -0.540  -5.287  10.675  1.00  0.00     0.038 A 
HETATM    3  C3  UNL     1      -1.129  -6.490  10.313  1.00  0.00     0.065 A 
HETATM    4  C4  UNL     1      -0.589  -7.263   9.291  1.00  0.00     0.038 A 
HETATM    5  C5  UNL     1       0.547  -6.809   8.614  1.00  0.00     0.026 A 
HETATM    6  C6  UNL     1       1.120  -5.572   8.925  1.00  0.00     0.005 A 
ENDROOT
BRANCH   6   7
HETATM    7  N1  UNL     1       2.323  -5.182   8.325  1.00  0.00    -0.303 NA
HETATM    8  H5  UNL     1       2.469  -5.584   7.405  1.00  0.00     0.124 HD
HETATM    9  H6  UNL     1       3.133  -5.287   8.926  1.00  0.00     0.124 HD
ENDBRANCH   6   7
BRANCH   3  10
HETATM   10  O1  UNL     1      -2.233  -6.893  11.002  1.00  0.00    -0.361 OA
HETATM   11  H7  UNL     1      -1.953  -7.484  11.718  1.00  0.00     0.217 HD
ENDBRANCH   3  10
TORSDOF 2
ENDMDL
MODEL 7
REMARK VINA RESULT:      -4.3      3.219      3.864
REMARK  2 active torsions:
REMARK  status: ('A' for Active; 'I' for Inactive)
REMARK    1  A    between atoms: C3_3  and  O1_8 
REMARK    2  A    between atoms: C6_6  and  N1_7 
ROOT
HETATM    1  C1  UNL     1       0.606  -8.636   8.714  1.00  0.00     0.026 A 
HETATM    2  C2  UNL     1       0.966  -7.320   8.414  1.00  0.00     0.038 A 
HETATM    3  C3  UNL     1       0.309  -6.268   9.037  1.00  0.00     0.065 A 
HETATM    4  C4  UNL     1      -0.693  -6.512   9.970  1.00  0.00     0.038 A 
HETATM    5  C5  UNL     1      -1.049  -7.832  10.264  1.00  0.00     0.026 A 
HETATM    6  C6  UNL     1      -0.440  -8.903   9.604  1.00  0.00     0.005 A 
ENDROOT
BRANCH   6   7
HETATM    7  N1  UNL     1      -0.718 -10.220   9.990  1.00  0.00    -0.303 NA
HETATM    8  H5  UNL     1      -1.588 -10.319  10.504  1.00  0.00     0.124 HD
HETATM    9  H6  UNL     1       0.057 -10.684  10.451  1.00  0.00     0.124 HD
ENDBRANCH   6   7
BRANCH   3  10
HETATM   10  O1  UNL     1       0.691  -5.000   8.719  1.00  0.00    -0.361 OA
HETATM   11  H7  UNL     1       0.900  -4.967   7.772  1.00  0.00     0.217 HD
ENDBRANCH   3  10
TORSDOF 2
ENDMDL
MODEL 8
REMARK VINA RESULT:      -4.0      3.401      3.611
REMARK  2 active torsions:
REMARK  status: ('A' for Active; 'I' for Inactive)
REMARK    1  A    between atoms: C3_3  and  O1_8 
REMARK    2  A    between atoms: C6_6  and  N1_7 
ROOT
HETATM    1  C1  UNL     1       0.769  -5.035  11.122  1.00  0.00     0.026 A 
HETATM    2  C2  UNL     1      -0.551  -4.610  11.284  1.00  0.00     0.038 A 
HETATM    3  C3  UNL     1      -1.592  -5.505  11.078  1.00  0.00     0.065 A 
HETATM    4  C4  UNL     1      -1.331  -6.825  10.728  1.00  0.00     0.038 A 
HETATM    5  C5  UNL     1      -0.007  -7.243  10.567  1.00  0.00     0.026 A 
HETATM    6  C6  UNL     1       1.052  -6.341  10.712  1.00  0.00     0.005 A 
ENDROOT
BRANCH   6   7
HETATM    7  N1  UNL     1       2.376  -6.795  10.666  1.00  0.00    -0.303 NA
HETATM    8  H5  UNL     1       3.002  -6.174  10.163  1.00  0.00     0.124 HD
HETATM    9  H6  UNL     1       2.468  -7.760  10.369  1.00  0.00     0.124 HD
ENDBRANCH   6   7
BRANCH   3  10
HETATM   10  O1  UNL     1      -2.866  -5.052  11.249  1.00  0.00    -0.361 OA
HETATM   11  H7  UNL     1      -3.467  -5.815  11.256  1.00  0.00     0.217 HD
ENDBRANCH   3  10
TORSDOF 2
ENDMDL
MODEL 9
REMARK VINA RESULT:      -4.0      3.033      3.212
REMARK  2 active torsions:
REMARK  status: ('A' for Active; 'I' for Inactive)
REMARK    1  A    between atoms: C3_3  and  O1_8 
REMARK    2  A    between atoms: C6_6  and  N1_7 
ROOT
HETATM    1  C1  UNL     1      -0.248  -4.909  11.580  1.00  0.00     0.026 A 
HETATM    2  C2  UNL     1       1.041  -5.447  11.583  1.00  0.00     0.038 A 
HETATM    3  C3  UNL     1       1.233  -6.776  11.232  1.00  0.00     0.065 A 
HETATM    4  C4  UNL     1       0.155  -7.572  10.861  1.00  0.00     0.038 A 
HETATM    5  C5  UNL     1      -1.132  -7.028  10.863  1.00  0.00     0.026 A 
HETATM    6  C6  UNL     1      -1.352  -5.708  11.270  1.00  0.00     0.005 A 
ENDROOT
BRANCH   6   7
HETATM    7  N1  UNL     1      -2.625  -5.137  11.154  1.00  0.00    -0.303 NA
HETATM    8  H5  UNL     1      -2.712  -4.236  11.614  1.00  0.00     0.124 HD
HETATM    9  H6  UNL     1      -3.381  -5.769  11.396  1.00  0.00     0.124 HD
ENDBRANCH   6   7
BRANCH   3  10
HETATM   10  O1  UNL     1       2.506  -7.262  11.244  1.00  0.00    -0.361 OA
HETATM   11  H7  UNL     1       2.889  -7.147  10.360  1.00  0.00     0.217 HD
ENDBRANCH   3  10
TORSDOF 2
ENDMDL
MODEL 10
REMARK VINA RESULT:      -4.0      2.471      3.366
REMARK  2 active torsions:
REMARK  status: ('A' for Active; 'I' for Inactive)
REMARK    1  A    between atoms: C3_3  and  O1_8 
REMARK    2  A    between atoms: C6_6  and  N1_7 
ROOT
HETATM    1  C1  UNL     1       1.116  -8.550   9.445  1.00  0.00     0.026 A 
HETATM    2  C2  UNL     1       0.209  -9.468   8.911  1.00  0.00     0.038 A 
HETATM    3  C3  UNL     1      -0.611 -10.198   9.759  1.00  0.00     0.065 A 
HETATM    4  C4  UNL     1      -0.551 -10.011  11.136  1.00  0.00     0.038 A 
HETATM    5  C5  UNL     1       0.360  -9.091  11.663  1.00  0.00     0.026 A 
HETATM    6  C6  UNL     1       1.236  -8.389  10.828  1.00  0.00     0.005 A 
ENDROOT
BRANCH   6   7
HETATM    7  N1  UNL     1       2.059  -7.386  11.353  1.00  0.00    -0.303 NA
HETATM    8  H5  UNL     1       2.472  -7.626  12.249  1.00  0.00     0.124 HD
HETATM    9  H6  UNL     1       1.632  -6.466  11.359  1.00  0.00     0.124 HD
ENDBRANCH   6   7
BRANCH   3  10
HETATM   10  O1  UNL     1      -1.484 -11.082   9.199  1.00  0.00    -0.361 OA
HETATM   11  H7  UNL     1      -2.364 -10.933   9.582  1.00  0.00     0.217 HD
ENDBRANCH   3  10
TORSDOF 2
ENDMDL
MODEL 11
REMARK VINA RESULT:      -4.0     16.281     17.141
REMARK  2 active torsions:
REMARK  status: ('A' for Active; 'I' for Inactive)
REMARK    1  A    between atoms: C3_3  and  O1_8 
REMARK    2  A    between atoms: C6_6  and  N1_7 
ROOT
HETATM    1  C1  UNL     1      -5.048   6.838   1.390  1.00  0.00     0.026 A 
HETATM    2  C2  UNL     1      -4.675   5.569   1.839  1.00  0.00     0.038 A 
HETATM    3  C3  UNL     1      -5.550   4.502   1.689  1.00  0.00     0.065 A 
HETATM    4  C4  UNL     1      -6.788   4.681   1.082  1.00  0.00     0.038 A 
HETATM    5  C5  UNL     1      -7.154   5.955   0.636  1.00  0.00     0.026 A 
HETATM    6  C6  UNL     1      -6.311   7.053   0.830  1.00  0.00     0.005 A 
ENDROOT
BRANCH   6   7
HETATM    7  N1  UNL     1      -6.634   8.297   0.276  1.00  0.00    -0.303 NA
HETATM    8  H5  UNL     1      -7.310   8.823   0.820  1.00  0.00     0.124 HD
HETATM    9  H6  UNL     1      -6.879   8.256  -0.708  1.00  0.00     0.124 HD
ENDBRANCH   6   7
BRANCH   3  10
HETATM   10  O1  UNL     1      -5.148   3.280   2.138  1.00  0.00    -0.361 OA
HETATM   11  H7  UNL     1      -5.552   3.120   3.006  1.00  0.00     0.217 HD
ENDBRANCH   3  10
TORSDOF 2
ENDMDL
MODEL 12
REMARK VINA RESULT:      -3.9     16.716     17.701
REMARK  2 active torsions:
REMARK  status: ('A' for Active; 'I' for Inactive)
REMARK    1  A    between atoms: C3_3  and  O1_8 
REMARK    2  A    between atoms: C6_6  and  N1_7 
ROOT
HETATM    1  C1  UNL     1      -6.724   4.896   1.020  1.00  0.00     0.026 A 
HETATM    2  C2  UNL     1      -7.505   6.035   0.811  1.00  0.00     0.038 A 
HETATM    3  C3  UNL     1      -7.214   7.204   1.500  1.00  0.00     0.065 A 
HETATM    4  C4  UNL     1      -6.142   7.257   2.384  1.00  0.00     0.038 A 
HETATM    5  C5  UNL     1      -5.366   6.112   2.589  1.00  0.00     0.026 A 
HETATM    6  C6  UNL     1      -5.679   4.909   1.948  1.00  0.00     0.005 A 
ENDROOT
BRANCH   6   7
HETATM    7  N1  UNL     1      -4.827   3.805   2.067  1.00  0.00    -0.303 NA
HETATM    8  H5  UNL     1      -4.074   3.795   1.387  1.00  0.00     0.124 HD
HETATM    9  H6  UNL     1      -5.313   2.916   2.119  1.00  0.00     0.124 HD
ENDBRANCH   6   7
BRANCH   3  10
HETATM   10  O1  UNL     1      -7.998   8.294   1.267  1.00  0.00    -0.361 OA
HETATM   11  H7  UNL     1      -8.374   8.592   2.111  1.00  0.00     0.217 HD
ENDBRANCH   3  10
TORSDOF 2
ENDMDL
MODEL 13
REMARK VINA RESULT:      -3.8      2.372      2.909
REMARK  2 active torsions:
REMARK  status: ('A' for Active; 'I' for Inactive)
REMARK    1  A    between atoms: C3_3  and  O1_8 
REMARK    2  A    between atoms: C6_6  and  N1_7 
ROOT
HETATM    1  C1  UNL     1      -0.278  -4.967  10.148  1.00  0.00     0.026 A 
HETATM    2  C2  UNL     1      -0.343  -6.142   9.395  1.00  0.00     0.038 A 
HETATM    3  C3  UNL     1       0.737  -6.515   8.608  1.00  0.00     0.065 A 
HETATM    4  C4  UNL     1       1.890  -5.738   8.574  1.00  0.00     0.038 A 
HETATM    5  C5  UNL     1       1.947  -4.563   9.329  1.00  0.00     0.026 A 
HETATM    6  C6  UNL     1       0.847  -4.140  10.082  1.00  0.00     0.005 A 
ENDROOT
BRANCH   6   7
HETATM    7  N1  UNL     1       0.956  -3.029  10.926  1.00  0.00    -0.303 NA
HETATM    8  H5  UNL     1       1.514  -2.275  10.537  1.00  0.00     0.124 HD
HETATM    9  H6  UNL     1       1.228  -3.260  11.876  1.00  0.00     0.124 HD
ENDBRANCH   6   7
BRANCH   3  10
HETATM   10  O1  UNL     1       0.636  -7.669   7.890  1.00  0.00    -0.361 OA
HETATM   11  H7  UNL     1       1.527  -7.952   7.632  1.00  0.00     0.217 HD
ENDBRANCH   3  10
TORSDOF 2
ENDMDL
MODEL 14
REMARK VINA RESULT:      -3.8      3.030      3.708
REMARK  2 active torsions:
REMARK  status: ('A' for Active; 'I' for Inactive)
REMARK    1  A    between atoms: C3_3  and  O1_8 
REMARK    2  A    between atoms: C6_6  and  N1_7 
ROOT
HETATM    1  C1  UNL     1      -0.409  -6.192   9.394  1.00  0.00     0.026 A 
HETATM    2  C2  UNL     1      -0.373  -4.989  10.102  1.00  0.00     0.038 A 
HETATM    3  C3  UNL     1       0.776  -4.210  10.076  1.00  0.00     0.065 A 
HETATM    4  C4  UNL     1       1.885  -4.610   9.339  1.00  0.00     0.038 A 
HETATM    5  C5  UNL     1       1.842  -5.816   8.634  1.00  0.00     0.026 A 
HETATM    6  C6  UNL     1       0.715  -6.643   8.695  1.00  0.00     0.005 A 
ENDROOT
BRANCH   6   7
HETATM    7  N1  UNL     1       0.636  -7.787   7.893  1.00  0.00    -0.303 NA
HETATM    8  H5  UNL     1       1.529  -8.248   7.752  1.00  0.00     0.124 HD
HETATM    9  H6  UNL     1       0.133  -7.645   7.024  1.00  0.00     0.124 HD
ENDBRANCH   6   7
BRANCH   3  10
HETATM   10  O1  UNL     1       0.771  -3.042  10.777  1.00  0.00    -0.361 OA
HETATM   11  H7  UNL     1       0.162  -2.423  10.343  1.00  0.00     0.217 HD
ENDBRANCH   3  10
TORSDOF 2
ENDMDL
MODEL 15
REMARK VINA RESULT:      -3.8     16.629     17.570
REMARK  2 active torsions:
REMARK  status: ('A' for Active; 'I' for Inactive)
REMARK    1  A    between atoms: C3_3  and  O1_8 
REMARK    2  A    between atoms: C6_6  and  N1_7 
ROOT
HETATM    1  C1  UNL     1      -6.306   7.839   2.566  1.00  0.00     0.026 A 
HETATM    2  C2  UNL     1      -6.594   7.448   1.257  1.00  0.00     0.038 A 
HETATM    3  C3  UNL     1      -6.272   6.166   0.835  1.00  0.00     0.065 A 
HETATM    4  C4  UNL     1      -5.681   5.261   1.710  1.00  0.00     0.038 A 
HETATM    5  C5  UNL     1      -5.394   5.660   3.018  1.00  0.00     0.026 A 
HETATM    6  C6  UNL     1      -5.657   6.966   3.444  1.00  0.00     0.005 A 
ENDROOT
BRANCH   6   7
HETATM    7  N1  UNL     1      -5.477   7.319   4.786  1.00  0.00    -0.303 NA
HETATM    8  H5  UNL     1      -4.665   6.888   5.216  1.00  0.00     0.124 HD
HETATM    9  H6  UNL     1      -6.313   7.219   5.352  1.00  0.00     0.124 HD
ENDBRANCH   6   7
BRANCH   3  10
HETATM   10  O1  UNL     1      -6.572   5.822  -0.449  1.00  0.00    -0.361 OA
HETATM   11  H7  UNL     1      -7.481   6.102  -0.641  1.00  0.00     0.217 HD
ENDBRANCH   3  10
TORSDOF 2
ENDMDL
MODEL 16
REMARK VINA RESULT:      -3.7     16.303     17.230
REMARK  2 active torsions:
REMARK  status: ('A' for Active; 'I' for Inactive)
REMARK    1  A    between atoms: C3_3  and  O1_8 
REMARK    2  A    between atoms: C6_6  and  N1_7 
ROOT
HETATM    1  C1  UNL     1      -6.429   7.419   1.628  1.00  0.00     0.026 A 
HETATM    2  C2  UNL     1      -6.028   7.690   2.938  1.00  0.00     0.038 A 
HETATM    3  C3  UNL     1      -5.384   6.708   3.677  1.00  0.00     0.065 A 
HETATM    4  C4  UNL     1      -5.119   5.461   3.119  1.00  0.00     0.038 A 
HETATM    5  C5  UNL     1      -5.525   5.197   1.808  1.00  0.00     0.026 A 
HETATM    6  C6  UNL     1      -6.227   6.154   1.068  1.00  0.00     0.005 A 
ENDROOT
BRANCH   6   7
HETATM    7  N1  UNL     1      -6.523   5.923  -0.281  1.00  0.00    -0.303 NA
HETATM    8  H5  UNL     1      -7.264   5.245  -0.425  1.00  0.00     0.124 HD
HETATM    9  H6  UNL     1      -5.708   5.732  -0.853  1.00  0.00     0.124 HD
ENDBRANCH   6   7
BRANCH   3  10
HETATM   10  O1  UNL     1      -5.005   7.012   4.950  1.00  0.00    -0.361 OA
HETATM   11  H7  UNL     1      -4.889   6.185   5.444  1.00  0.00     0.217 HD
ENDBRANCH   3  10
TORSDOF 2
ENDMDL
MODEL 17
REMARK VINA RESULT:      -3.6     16.387     17.377
REMARK  2 active torsions:
REMARK  status: ('A' for Active; 'I' for Inactive)
REMARK    1  A    between atoms: C3_3  and  O1_8 
REMARK    2  A    between atoms: C6_6  and  N1_7 
ROOT
HETATM    1  C1  UNL     1      -5.290   5.339   2.642  1.00  0.00     0.026 A 
HETATM    2  C2  UNL     1      -6.188   5.829   1.691  1.00  0.00     0.038 A 
HETATM    3  C3  UNL     1      -6.639   7.138   1.782  1.00  0.00     0.065 A 
HETATM    4  C4  UNL     1      -6.193   7.972   2.801  1.00  0.00     0.038 A 
HETATM    5  C5  UNL     1      -5.295   7.474   3.750  1.00  0.00     0.026 A 
HETATM    6  C6  UNL     1      -4.874   6.141   3.709  1.00  0.00     0.005 A 
ENDROOT
BRANCH   6   7
HETATM    7  N1  UNL     1      -3.886   5.687   4.590  1.00  0.00    -0.303 NA
HETATM    8  H5  UNL     1      -3.936   4.691   4.780  1.00  0.00     0.124 HD
HETATM    9  H6  UNL     1      -3.808   6.238   5.438  1.00  0.00     0.124 HD
ENDBRANCH   6   7
BRANCH   3  10
HETATM   10  O1  UNL     1      -7.513   7.579   0.833  1.00  0.00    -0.361 OA
HETATM   11  H7  UNL     1      -7.145   8.377   0.421  1.00  0.00     0.217 HD
ENDBRANCH   3  10
TORSDOF 2
ENDMDL
MODEL 18
REMARK VINA RESULT:      -3.4     12.055     12.861
REMARK  2 active torsions:
REMARK  status: ('A' for Active; 'I' for Inactive)
REMARK    1  A    between atoms: C3_3  and  O1_8 
REMARK    2  A    between atoms: C6_6  and  N1_7 
ROOT
HETATM    1  C1  UNL     1       1.697   6.106   8.043  1.00  0.00     0.026 A 
HETATM    2  C2  UNL     1       1.413   6.123   6.676  1.00  0.00     0.038 A 
HETATM    3  C3  UNL     1       0.586   5.150   6.133  1.00  0.00     0.065 A 
HETATM    4  C4  UNL     1       0.023   4.168   6.940  1.00  0.00     0.038 A 
HETATM    5  C5  UNL     1       0.313   4.156   8.308  1.00  0.00     0.026 A 
HETATM    6  C6  UNL     1       1.191   5.093   8.863  1.00  0.00     0.005 A 
ENDROOT
BRANCH   6   7
HETATM    7  N1  UNL     1       1.380   5.146  10.249  1.00  0.00    -0.303 NA
HETATM    8  H5  UNL     1       1.953   4.391  10.612  1.00  0.00     0.124 HD
HETATM    9  H6  UNL     1       0.521   5.267  10.776  1.00  0.00     0.124 HD
ENDBRANCH   6   7
BRANCH   3  10
HETATM   10  O1  UNL     1       0.331   5.203   4.795  1.00  0.00    -0.361 OA
HETATM   11  H7  UNL     1       1.149   4.996   4.316  1.00  0.00     0.217 HD
ENDBRANCH   3  10
TORSDOF 2
ENDMDL
MODEL 19
REMARK VINA RESULT:      -3.4     11.926     12.707
REMARK  2 active torsions:
REMARK  status: ('A' for Active; 'I' for Inactive)
REMARK    1  A    between atoms: C3_3  and  O1_8 
REMARK    2  A    between atoms: C6_6  and  N1_7 
ROOT
HETATM    1  C1  UNL     1       1.423   6.181   6.677  1.00  0.00     0.026 A 
HETATM    2  C2  UNL     1       1.611   6.085   8.058  1.00  0.00     0.038 A 
HETATM    3  C3  UNL     1       0.982   5.074   8.769  1.00  0.00     0.065 A 
HETATM    4  C4  UNL     1       0.179   4.144   8.118  1.00  0.00     0.038 A 
HETATM    5  C5  UNL     1      -0.006   4.247   6.736  1.00  0.00     0.026 A 
HETATM    6  C6  UNL     1       0.572   5.294   6.011  1.00  0.00     0.005 A 
ENDROOT
BRANCH   6   7
HETATM    7  N1  UNL     1       0.479   5.320   4.615  1.00  0.00    -0.303 NA
HETATM    8  H5  UNL     1      -0.441   5.577   4.272  1.00  0.00     0.124 HD
HETATM    9  H6  UNL     1       0.840   4.486   4.164  1.00  0.00     0.124 HD
ENDBRANCH   6   7
BRANCH   3  10
HETATM   10  O1  UNL     1       1.193   5.012  10.114  1.00  0.00    -0.361 OA
HETATM   11  H7  UNL     1       2.147   5.069  10.281  1.00  0.00     0.217 HD
ENDBRANCH   3  10
TORSDOF 2
ENDMDL
MODEL 20
REMARK VINA RESULT:      -3.3     13.331     14.151
REMARK  2 active torsions:
REMARK  status: ('A' for Active; 'I' for Inactive)
REMARK    1  A    between atoms: C3_3  and  O1_8 
REMARK    2  A    between atoms: C6_6  and  N1_7 
ROOT
HETATM    1  C1  UNL     1       4.020   4.748   5.705  1.00  0.00     0.026 A 
HETATM    2  C2  UNL     1       3.534   6.053   5.820  1.00  0.00     0.038 A 
HETATM    3  C3  UNL     1       3.242   6.781   4.675  1.00  0.00     0.065 A 
HETATM    4  C4  UNL     1       3.413   6.218   3.415  1.00  0.00     0.038 A 
HETATM    5  C5  UNL     1       3.901   4.912   3.308  1.00  0.00     0.026 A 
HETATM    6  C6  UNL     1       4.257   4.184   4.448  1.00  0.00     0.005 A 
ENDROOT
BRANCH   6   7
HETATM    7  N1  UNL     1       4.630   2.840   4.337  1.00  0.00    -0.303 NA
HETATM    8  H5  UNL     1       5.501   2.618   4.809  1.00  0.00     0.124 HD
HETATM    9  H6  UNL     1       4.604   2.483   3.388  1.00  0.00     0.124 HD
ENDBRANCH   6   7
BRANCH   3  10
HETATM   10  O1  UNL     1       2.767   8.049   4.829  1.00  0.00    -0.361 OA
HETATM   11  H7  UNL     1       2.053   8.192   4.188  1.00  0.00     0.217 HD
ENDBRANCH   3  10
TORSDOF 2
ENDMDL
