MODEL 1
REMARK VINA RESULT:      -5.1      0.000      0.000
REMARK  2 active torsions:
REMARK  status: ('A' for Active; 'I' for Inactive)
REMARK    1  A    between atoms: C3_3  and  O1_8 
REMARK    2  A    between atoms: C6_6  and  N1_7 
ROOT
HETATM    1  C1  UNL     1       0.903 -16.176 -14.680  1.00  0.00     0.026 A 
HETATM    2  C2  UNL     1       1.734 -15.273 -14.012  1.00  0.00     0.038 A 
HETATM    3  C3  UNL     1       1.499 -13.910 -14.123  1.00  0.00     0.065 A 
HETATM    4  C4  UNL     1       0.433 -13.435 -14.880  1.00  0.00     0.038 A 
HETATM    5  C5  UNL     1      -0.393 -14.344 -15.547  1.00  0.00     0.026 A 
HETATM    6  C6  UNL     1      -0.137 -15.718 -15.495  1.00  0.00     0.005 A 
ENDROOT
BRANCH   6   7
HETATM    7  N1  UNL     1      -1.037 -16.625 -16.066  1.00  0.00    -0.303 NA
HETATM    8  H5  UNL     1      -1.563 -17.162 -15.383  1.00  0.00     0.124 HD
HETATM    9  H6  UNL     1      -0.628 -17.211 -16.786  1.00  0.00     0.124 HD
ENDBRANCH   6   7
BRANCH   3  10
HETATM   10  O1  UNL     1       2.329 -13.062 -13.454  1.00  0.00    -0.361 OA
HETATM   11  H7  UNL     1       2.045 -12.150 -13.626  1.00  0.00     0.217 HD
ENDBRANCH   3  10
TORSDOF 2
ENDMDL
MODEL 2
REMARK VINA RESULT:      -5.0      2.781      3.683
REMARK  2 active torsions:
REMARK  status: ('A' for Active; 'I' for Inactive)
REMARK    1  A    between atoms: C3_3  and  O1_8 
REMARK    2  A    between atoms: C6_6  and  N1_7 
ROOT
HETATM    1  C1  UNL     1       0.361 -13.539 -14.943  1.00  0.00     0.026 A 
HETATM    2  C2  UNL     1      -0.512 -14.427 -15.575  1.00  0.00     0.038 A 
HETATM    3  C3  UNL     1      -0.280 -15.793 -15.497  1.00  0.00     0.065 A 
HETATM    4  C4  UNL     1       0.804 -16.286 -14.780  1.00  0.00     0.038 A 
HETATM    5  C5  UNL     1       1.675 -15.391 -14.150  1.00  0.00     0.026 A 
HETATM    6  C6  UNL     1       1.491 -14.010 -14.267  1.00  0.00     0.005 A 
ENDROOT
BRANCH   6   7
HETATM    7  N1  UNL     1       2.295 -13.128 -13.537  1.00  0.00    -0.303 NA
HETATM    8  H5  UNL     1       1.796 -12.317 -13.184  1.00  0.00     0.124 HD
HETATM    9  H6  UNL     1       3.158 -12.875 -14.007  1.00  0.00     0.124 HD
ENDBRANCH   6   7
BRANCH   3  10
HETATM   10  O1  UNL     1      -1.156 -16.626 -16.125  1.00  0.00    -0.361 OA
HETATM   11  H7  UNL     1      -1.229 -16.355 -17.054  1.00  0.00     0.217 HD
ENDBRANCH   3  10
TORSDOF 2
ENDMDL
MODEL 3
REMARK VINA RESULT:      -5.0      2.760      3.299
REMARK  2 active torsions:
REMARK  status: ('A' for Active; 'I' for Inactive)
REMARK    1  A    between atoms: C3_3  and  O1_8 
REMARK    2  A    between atoms: C6_6  and  N1_7 
ROOT
HETATM    1  C1  UNL     1       1.917 -16.942 -14.515  1.00  0.00     0.026 A 
HETATM    2  C2  UNL     1       0.675 -16.812 -15.140  1.00  0.00     0.038 A 
HETATM    3  C3  UNL     1      -0.040 -15.630 -15.010  1.00  0.00     0.065 A 
HETATM    4  C4  UNL     1       0.476 -14.568 -14.275  1.00  0.00     0.038 A 
HETATM    5  C5  UNL     1       1.719 -14.706 -13.651  1.00  0.00     0.026 A 
HETATM    6  C6  UNL     1       2.427 -15.910 -13.723  1.00  0.00     0.005 A 
ENDROOT
BRANCH   6   7
HETATM    7  N1  UNL     1       3.721 -15.999 -13.197  1.00  0.00    -0.303 NA
HETATM    8  H5  UNL     1       3.903 -16.868 -12.704  1.00  0.00     0.124 HD
HETATM    9  H6  UNL     1       4.003 -15.185 -12.660  1.00  0.00     0.124 HD
ENDBRANCH   6   7
BRANCH   3  10
HETATM   10  O1  UNL     1      -1.247 -15.541 -15.637  1.00  0.00    -0.361 OA
HETATM   11  H7  UNL     1      -1.742 -16.359 -15.474  1.00  0.00     0.217 HD
ENDBRANCH   3  10
TORSDOF 2
ENDMDL
MODEL 4
REMARK VINA RESULT:      -4.9      1.500      1.873
REMARK  2 active torsions:
REMARK  status: ('A' for Active; 'I' for Inactive)
REMARK    1  A    between atoms: C3_3  and  O1_8 
REMARK    2  A    between atoms: C6_6  and  N1_7 
ROOT
HETATM    1  C1  UNL     1       0.792 -16.811 -15.164  1.00  0.00     0.026 A 
HETATM    2  C2  UNL     1       2.003 -16.923 -14.478  1.00  0.00     0.038 A 
HETATM    3  C3  UNL     1       2.452 -15.868 -13.697  1.00  0.00     0.065 A 
HETATM    4  C4  UNL     1       1.699 -14.705 -13.578  1.00  0.00     0.038 A 
HETATM    5  C5  UNL     1       0.488 -14.599 -14.268  1.00  0.00     0.026 A 
HETATM    6  C6  UNL     1       0.047 -15.628 -15.106  1.00  0.00     0.005 A 
ENDROOT
BRANCH   6   7
HETATM    7  N1  UNL     1      -1.219 -15.563 -15.698  1.00  0.00    -0.303 NA
HETATM    8  H5  UNL     1      -1.502 -14.622 -15.952  1.00  0.00     0.124 HD
HETATM    9  H6  UNL     1      -1.940 -16.056 -15.181  1.00  0.00     0.124 HD
ENDBRANCH   6   7
BRANCH   3  10
HETATM   10  O1  UNL     1       3.637 -16.017 -13.042  1.00  0.00    -0.361 OA
HETATM   11  H7  UNL     1       4.195 -16.631 -13.546  1.00  0.00     0.217 HD
ENDBRANCH   3  10
TORSDOF 2
ENDMDL
MODEL 5
REMARK VINA RESULT:      -4.8     12.602     13.076
REMARK  2 active torsions:
REMARK  status: ('A' for Active; 'I' for Inactive)
REMARK    1  A    between atoms: C3_3  and  O1_8 
REMARK    2  A    between atoms: C6_6  and  N1_7 
ROOT
HETATM    1  C1  UNL     1      -6.865 -10.088  -6.549  1.00  0.00     0.026 A 
HETATM    2  C2  UNL     1      -6.970  -8.704  -6.394  1.00  0.00     0.038 A 
HETATM    3  C3  UNL     1      -6.522  -8.107  -5.225  1.00  0.00     0.065 A 
HETATM    4  C4  UNL     1      -5.953  -8.872  -4.212  1.00  0.00     0.038 A 
HETATM    5  C5  UNL     1      -5.853 -10.257  -4.374  1.00  0.00     0.026 A 
HETATM    6  C6  UNL     1      -6.353 -10.883  -5.520  1.00  0.00     0.005 A 
ENDROOT
BRANCH   6   7
HETATM    7  N1  UNL     1      -6.140 -12.251  -5.724  1.00  0.00    -0.303 NA
HETATM    8  H5  UNL     1      -6.761 -12.662  -6.415  1.00  0.00     0.124 HD
HETATM    9  H6  UNL     1      -6.103 -12.793  -4.868  1.00  0.00     0.124 HD
ENDBRANCH   6   7
BRANCH   3  10
HETATM   10  O1  UNL     1      -6.639  -6.754  -5.113  1.00  0.00    -0.361 OA
HETATM   11  H7  UNL     1      -5.774  -6.352  -5.291  1.00  0.00     0.217 HD
ENDBRANCH   3  10
TORSDOF 2
ENDMDL
MODEL 6
REMARK VINA RESULT:      -4.8     12.764     13.298
REMARK  2 active torsions:
REMARK  status: ('A' for Active; 'I' for Inactive)
REMARK    1  A    between atoms: C3_3  and  O1_8 
REMARK    2  A    between atoms: C6_6  and  N1_7 
ROOT
HETATM    1  C1  UNL     1      -7.018  -8.813  -6.463  1.00  0.00     0.026 A 
HETATM    2  C2  UNL     1      -6.923 -10.201  -6.583  1.00  0.00     0.038 A 
HETATM    3  C3  UNL     1      -6.357 -10.943  -5.556  1.00  0.00     0.065 A 
HETATM    4  C4  UNL     1      -5.898 -10.319  -4.401  1.00  0.00     0.038 A 
HETATM    5  C5  UNL     1      -5.996  -8.929  -4.289  1.00  0.00     0.026 A 
HETATM    6  C6  UNL     1      -6.509  -8.159  -5.338  1.00  0.00     0.005 A 
ENDROOT
BRANCH   6   7
HETATM    7  N1  UNL     1      -6.711  -6.784  -5.169  1.00  0.00    -0.303 NA
HETATM    8  H5  UNL     1      -5.858  -6.265  -4.988  1.00  0.00     0.124 HD
HETATM    9  H6  UNL     1      -7.449  -6.556  -4.511  1.00  0.00     0.124 HD
ENDBRANCH   6   7
BRANCH   3  10
HETATM   10  O1  UNL     1      -6.285 -12.295  -5.709  1.00  0.00    -0.361 OA
HETATM   11  H7  UNL     1      -5.373 -12.533  -5.939  1.00  0.00     0.217 HD
ENDBRANCH   3  10
TORSDOF 2
ENDMDL
MODEL 7
REMARK VINA RESULT:      -4.7     13.417     13.563
REMARK  2 active torsions:
REMARK  status: ('A' for Active; 'I' for Inactive)
REMARK    1  A    between atoms: C3_3  and  O1_8 
REMARK    2  A    between atoms: C6_6  and  N1_7 
ROOT
HETATM    1  C1  UNL     1      -6.534 -11.092  -4.209  1.00  0.00     0.026 A 
HETATM    2  C2  UNL     1      -5.354 -10.557  -3.688  1.00  0.00     0.038 A 
HETATM    3  C3  UNL     1      -5.102  -9.198  -3.811  1.00  0.00     0.065 A 
HETATM    4  C4  UNL     1      -6.021  -8.361  -4.434  1.00  0.00     0.038 A 
HETATM    5  C5  UNL     1      -7.199  -8.904  -4.955  1.00  0.00     0.026 A 
HETATM    6  C6  UNL     1      -7.444 -10.280  -4.893  1.00  0.00     0.005 A 
ENDROOT
BRANCH   6   7
HETATM    7  N1  UNL     1      -8.676 -10.796  -5.309  1.00  0.00    -0.303 NA
HETATM    8  H5  UNL     1      -9.472 -10.385  -4.832  1.00  0.00     0.124 HD
HETATM    9  H6  UNL     1      -8.714 -11.810  -5.319  1.00  0.00     0.124 HD
ENDBRANCH   6   7
BRANCH   3  10
HETATM   10  O1  UNL     1      -3.941  -8.714  -3.287  1.00  0.00    -0.361 OA
HETATM   11  H7  UNL     1      -4.033  -7.756  -3.162  1.00  0.00     0.217 HD
ENDBRANCH   3  10
TORSDOF 2
ENDMDL
MODEL 8
REMARK VINA RESULT:      -4.7     39.324     40.148
REMARK  2 active torsions:
REMARK  status: ('A' for Active; 'I' for Inactive)
REMARK    1  A    between atoms: C3_3  and  O1_8 
REMARK    2  A    between atoms: C6_6  and  N1_7 
ROOT
HETATM    1  C1  UNL     1     -20.188  17.105  -3.087  1.00  0.00     0.026 A 
HETATM    2  C2  UNL     1     -18.812  16.867  -3.073  1.00  0.00     0.038 A 
HETATM    3  C3  UNL     1     -17.939  17.850  -3.517  1.00  0.00     0.065 A 
HETATM    4  C4  UNL     1     -18.421  19.077  -3.961  1.00  0.00     0.038 A 
HETATM    5  C5  UNL     1     -19.800  19.307  -3.973  1.00  0.00     0.026 A 
HETATM    6  C6  UNL     1     -20.698  18.308  -3.584  1.00  0.00     0.005 A 
ENDROOT
BRANCH   6   7
HETATM    7  N1  UNL     1     -22.066  18.589  -3.487  1.00  0.00    -0.303 NA
HETATM    8  H5  UNL     1     -22.640  17.768  -3.323  1.00  0.00     0.124 HD
HETATM    9  H6  UNL     1     -22.421  19.164  -4.243  1.00  0.00     0.124 HD
ENDBRANCH   6   7
BRANCH   3  10
HETATM   10  O1  UNL     1     -16.604  17.580  -3.486  1.00  0.00    -0.361 OA
HETATM   11  H7  UNL     1     -16.196  18.114  -2.785  1.00  0.00     0.217 HD
ENDBRANCH   3  10
TORSDOF 2
ENDMDL
MODEL 9
REMARK VINA RESULT:      -4.6     39.417     40.263
REMARK  2 active torsions:
REMARK  status: ('A' for Active; 'I' for Inactive)
REMARK    1  A    between atoms: C3_3  and  O1_8 
REMARK    2  A    between atoms: C6_6  and  N1_7 
ROOT
HETATM    1  C1  UNL     1     -19.010  16.796  -3.003  1.00  0.00     0.026 A 
HETATM    2  C2  UNL     1     -20.390  17.011  -3.006  1.00  0.00     0.038 A 
HETATM    3  C3  UNL     1     -20.895  18.225  -3.449  1.00  0.00     0.065 A 
HETATM    4  C4  UNL     1     -20.041  19.224  -3.905  1.00  0.00     0.038 A 
HETATM    5  C5  UNL     1     -18.661  19.001  -3.897  1.00  0.00     0.026 A 
HETATM    6  C6  UNL     1     -18.130  17.807  -3.400  1.00  0.00     0.005 A 
ENDROOT
BRANCH   6   7
HETATM    7  N1  UNL     1     -16.759  17.547  -3.507  1.00  0.00    -0.303 NA
HETATM    8  H5  UNL     1     -16.175  18.241  -3.050  1.00  0.00     0.124 HD
HETATM    9  H6  UNL     1     -16.452  17.347  -4.453  1.00  0.00     0.124 HD
ENDBRANCH   6   7
BRANCH   3  10
HETATM   10  O1  UNL     1     -22.247  18.396  -3.439  1.00  0.00    -0.361 OA
HETATM   11  H7  UNL     1     -22.591  18.196  -4.325  1.00  0.00     0.217 HD
ENDBRANCH   3  10
TORSDOF 2
ENDMDL
