MODEL 1
REMARK VINA RESULT:      -6.8      0.000      0.000
REMARK  27 active torsions:
REMARK  status: ('A' for Active; 'I' for Inactive)
REMARK    1  A    between atoms: C2_2  and  S1_4 
REMARK    2  A    between atoms: S1_4  and  C3_5 
REMARK    3  A    between atoms: C3_5  and  C4_6 
REMARK    4  A    between atoms: C4_6  and  N1_7 
REMARK       I    between atoms: N1_7  and  C5_8 
REMARK    5  A    between atoms: C5_8  and  C6_10 
REMARK    6  A    between atoms: C6_10  and  C7_11 
REMARK    7  A    between atoms: C7_11  and  N2_12 
REMARK       I    between atoms: N2_12  and  C8_13 
REMARK    8  A    between atoms: C8_13  and  C9_15 
REMARK    9  A    between atoms: C9_15  and  C10_16 
REMARK   10  A    between atoms: C9_15  and  O17_54 
REMARK   11  A    between atoms: C10_16  and  C13_19 
REMARK   12  A    between atoms: C13_19  and  O4_20 
REMARK   13  A    between atoms: O4_20  and  P1_21 
REMARK   14  A    between atoms: P1_21  and  O6_23 
REMARK   15  A    between atoms: P1_21  and  O7_24 
REMARK   16  A    between atoms: O7_24  and  P2_25 
REMARK   17  A    between atoms: P2_25  and  O9_27 
REMARK   18  A    between atoms: P2_25  and  O10_28 
REMARK   19  A    between atoms: O10_28  and  C14_29 
REMARK   20  A    between atoms: C14_29  and  C15_30 
REMARK   21  A    between atoms: C16_31  and  O13_49 
REMARK   22  A    between atoms: C17_32  and  O12_48 
REMARK   23  A    between atoms: C18_33  and  N3_35 
REMARK   24  A    between atoms: C21_40  and  N7_47 
REMARK   25  A    between atoms: O13_49  and  P3_50 
REMARK   26  A    between atoms: P3_50  and  O15_52 
REMARK   27  A    between atoms: P3_50  and  O16_53 
ROOT
HETATM    1  C1  UNL     1     -11.348  16.384 -13.243  1.00  0.00     0.104 C 
HETATM    2  C2  UNL     1     -10.444  15.391 -13.907  1.00  0.00     0.182 C 
HETATM    3  O1  UNL     1     -10.209  15.395 -15.113  1.00  0.00    -0.286 OA
ENDROOT
BRANCH   2   4
HETATM    4  S1  UNL     1      -9.771  14.183 -12.821  1.00  0.00    -0.091 SA
BRANCH   4   5
HETATM    5  C3  UNL     1     -11.282  13.264 -12.383  1.00  0.00     0.102 C 
BRANCH   5   6
HETATM    6  C4  UNL     1     -11.651  13.442 -10.909  1.00  0.00     0.133 C 
BRANCH   6   7
HETATM    7  N1  UNL     1     -10.543  13.924 -10.109  1.00  0.00    -0.360 N 
HETATM    8  C5  UNL     1      -9.705  13.062  -9.440  1.00  0.00     0.219 C 
HETATM    9  O2  UNL     1      -9.890  11.851  -9.412  1.00  0.00    -0.274 OA
HETATM   10  H8  UNL     1     -10.382  14.920 -10.051  1.00  0.00     0.162 HD
BRANCH   8  11
HETATM   11  C6  UNL     1      -8.581  13.765  -8.710  1.00  0.00     0.122 C 
BRANCH  11  12
HETATM   12  C7  UNL     1      -8.189  13.034  -7.427  1.00  0.00     0.132 C 
BRANCH  12  13
HETATM   13  N2  UNL     1      -7.639  11.717  -7.669  1.00  0.00    -0.358 N 
HETATM   14  C8  UNL     1      -6.295  11.565  -7.955  1.00  0.00     0.247 C 
HETATM   15  O3  UNL     1      -5.553  12.524  -8.131  1.00  0.00    -0.271 OA
HETATM   16  H13 UNL     1      -8.100  10.953  -7.179  1.00  0.00     0.162 HD
BRANCH  14  17
HETATM   17  C9  UNL     1      -5.809  10.109  -8.014  1.00  0.00     0.219 C 
BRANCH  17  18
HETATM   18  C10 UNL     1      -6.193   9.356  -9.315  1.00  0.00     0.009 C 
HETATM   19  C11 UNL     1      -7.287   8.306  -9.074  1.00  0.00     0.020 C 
HETATM   20  C12 UNL     1      -6.697  10.326 -10.402  1.00  0.00     0.020 C 
BRANCH  18  21
HETATM   21  C13 UNL     1      -4.893   8.653  -9.800  1.00  0.00     0.192 C 
BRANCH  21  22
HETATM   22  O4  UNL     1      -4.332   9.282 -10.935  1.00  0.00    -0.296 OA
BRANCH  22  23
HETATM   23  P1  UNL     1      -4.078   8.515 -12.320  1.00  0.00     0.401 P 
HETATM   24  O5  UNL     1      -4.541   9.266 -13.529  1.00  0.00    -0.631 OA
BRANCH  23  25
HETATM   25  O6  UNL     1      -4.737   7.054 -12.170  1.00  0.00    -0.307 OA
HETATM   26  H23 UNL     1      -4.255   6.386 -12.674  1.00  0.00     0.222 HD
ENDBRANCH  23  25
BRANCH  23  27
HETATM   27  O7  UNL     1      -2.528   8.157 -12.313  1.00  0.00    -0.195 OA
BRANCH  27  28
HETATM   28  P2  UNL     1      -1.485   9.241 -12.835  1.00  0.00     0.401 P 
HETATM   29  O8  UNL     1      -1.036   9.120 -14.255  1.00  0.00    -0.631 OA
BRANCH  28  30
HETATM   30  O9  UNL     1      -2.196  10.629 -12.494  1.00  0.00    -0.307 OA
HETATM   31  H24 UNL     1      -3.099  10.726 -12.884  1.00  0.00     0.222 HD
ENDBRANCH  28  30
BRANCH  28  32
HETATM   32  O10 UNL     1      -0.328   9.226 -11.735  1.00  0.00    -0.294 OA
BRANCH  32  33
HETATM   33  C14 UNL     1       0.343   8.030 -11.437  1.00  0.00     0.215 C 
BRANCH  33  34
HETATM   34  C15 UNL     1       0.452   7.968  -9.915  1.00  0.00     0.180 C 
HETATM   35  C16 UNL     1      -0.919   7.698  -9.310  1.00  0.00     0.197 C 
HETATM   36  C17 UNL     1      -1.214   8.923  -8.464  1.00  0.00     0.199 C 
HETATM   37  C18 UNL     1       0.190   9.436  -8.139  1.00  0.00     0.262 C 
HETATM   38  O11 UNL     1       0.950   9.183  -9.341  1.00  0.00    -0.353 OA
BRANCH  35  39
HETATM   39  O13 UNL     1      -0.830   6.513  -8.526  1.00  0.00    -0.286 OA
BRANCH  39  40
HETATM   40  P3  UNL     1      -1.915   5.386  -8.856  1.00  0.00     0.391 P 
HETATM   41  O14 UNL     1      -1.353   4.002  -8.894  1.00  0.00    -0.632 OA
BRANCH  40  42
HETATM   42  O15 UNL     1      -2.549   5.966 -10.205  1.00  0.00    -0.307 OA
HETATM   43  H36 UNL     1      -1.839   6.256 -10.827  1.00  0.00     0.222 HD
ENDBRANCH  40  42
BRANCH  40  44
HETATM   44  O16 UNL     1      -3.033   5.697  -7.768  1.00  0.00    -0.307 OA
HETATM   45  H37 UNL     1      -3.327   6.622  -7.785  1.00  0.00     0.222 HD
ENDBRANCH  40  44
ENDBRANCH  39  40
ENDBRANCH  35  39
BRANCH  36  46
HETATM   46  O12 UNL     1      -2.057   8.573  -7.363  1.00  0.00    -0.388 OA
HETATM   47  H35 UNL     1      -2.744   7.961  -7.722  1.00  0.00     0.210 HD
ENDBRANCH  36  46
BRANCH  37  48
HETATM   48  N3  UNL     1       0.213  10.859  -7.864  1.00  0.00    -0.297 N 
HETATM   49  C19 UNL     1      -0.853  11.728  -7.893  1.00  0.00     0.188 A 
HETATM   50  N4  UNL     1      -0.527  12.930  -7.472  1.00  0.00    -0.346 N 
HETATM   51  C20 UNL     1       0.815  12.835  -7.150  1.00  0.00     0.116 A 
HETATM   52  H4  UNL     1      -1.129  13.750  -7.398  1.00  0.00     0.167 HD
HETATM   53  C21 UNL     1       1.733  13.754  -6.610  1.00  0.00     0.109 A 
HETATM   54  C23 UNL     1       1.296  11.568  -7.425  1.00  0.00     0.142 A 
HETATM   55  N5  UNL     1       3.013  13.353  -6.415  1.00  0.00    -0.341 N 
HETATM   56  C22 UNL     1       3.345  12.091  -6.753  1.00  0.00     0.183 A 
HETATM   57  H5  UNL     1       3.706  13.990  -6.022  1.00  0.00     0.167 HD
HETATM   58  N6  UNL     1       2.555  11.126  -7.266  1.00  0.00    -0.336 N 
HETATM   59  H6  UNL     1       2.871  10.185  -7.501  1.00  0.00     0.168 HD
BRANCH  53  60
HETATM   60  N7  UNL     1       1.400  15.056  -6.275  1.00  0.00    -0.287 NA
HETATM   61  H33 UNL     1       1.997  15.763  -6.698  1.00  0.00     0.125 HD
HETATM   62  H34 UNL     1       1.186  15.169  -5.293  1.00  0.00     0.125 HD
ENDBRANCH  53  60
ENDBRANCH  37  48
ENDBRANCH  33  34
ENDBRANCH  32  33
ENDBRANCH  28  32
ENDBRANCH  27  28
ENDBRANCH  23  27
ENDBRANCH  22  23
ENDBRANCH  21  22
ENDBRANCH  18  21
ENDBRANCH  17  18
BRANCH  17  63
HETATM   63  O17 UNL     1      -4.387  10.057  -7.862  1.00  0.00    -0.385 OA
HETATM   64  H38 UNL     1      -4.190   9.680  -6.988  1.00  0.00     0.210 HD
ENDBRANCH  17  63
ENDBRANCH  14  17
ENDBRANCH  12  13
ENDBRANCH  11  12
ENDBRANCH   8  11
ENDBRANCH   6   7
ENDBRANCH   5   6
ENDBRANCH   4   5
ENDBRANCH   2   4
TORSDOF 27
ENDMDL
MODEL 2
REMARK VINA RESULT:      -6.8      3.465      5.652
REMARK  27 active torsions:
REMARK  status: ('A' for Active; 'I' for Inactive)
REMARK    1  A    between atoms: C2_2  and  S1_4 
REMARK    2  A    between atoms: S1_4  and  C3_5 
REMARK    3  A    between atoms: C3_5  and  C4_6 
REMARK    4  A    between atoms: C4_6  and  N1_7 
REMARK       I    between atoms: N1_7  and  C5_8 
REMARK    5  A    between atoms: C5_8  and  C6_10 
REMARK    6  A    between atoms: C6_10  and  C7_11 
REMARK    7  A    between atoms: C7_11  and  N2_12 
REMARK       I    between atoms: N2_12  and  C8_13 
REMARK    8  A    between atoms: C8_13  and  C9_15 
REMARK    9  A    between atoms: C9_15  and  C10_16 
REMARK   10  A    between atoms: C9_15  and  O17_54 
REMARK   11  A    between atoms: C10_16  and  C13_19 
REMARK   12  A    between atoms: C13_19  and  O4_20 
REMARK   13  A    between atoms: O4_20  and  P1_21 
REMARK   14  A    between atoms: P1_21  and  O6_23 
REMARK   15  A    between atoms: P1_21  and  O7_24 
REMARK   16  A    between atoms: O7_24  and  P2_25 
REMARK   17  A    between atoms: P2_25  and  O9_27 
REMARK   18  A    between atoms: P2_25  and  O10_28 
REMARK   19  A    between atoms: O10_28  and  C14_29 
REMARK   20  A    between atoms: C14_29  and  C15_30 
REMARK   21  A    between atoms: C16_31  and  O13_49 
REMARK   22  A    between atoms: C17_32  and  O12_48 
REMARK   23  A    between atoms: C18_33  and  N3_35 
REMARK   24  A    between atoms: C21_40  and  N7_47 
REMARK   25  A    between atoms: O13_49  and  P3_50 
REMARK   26  A    between atoms: P3_50  and  O15_52 
REMARK   27  A    between atoms: P3_50  and  O16_53 
ROOT
HETATM    1  C1  UNL     1     -10.982  12.347 -18.494  1.00  0.00     0.104 C 
HETATM    2  C2  UNL     1     -11.068  12.339 -16.999  1.00  0.00     0.182 C 
HETATM    3  O1  UNL     1     -12.067  11.978 -16.382  1.00  0.00    -0.286 OA
ENDROOT
BRANCH   2   4
HETATM    4  S1  UNL     1      -9.625  12.932 -16.186  1.00  0.00    -0.091 SA
BRANCH   4   5
HETATM    5  C3  UNL     1      -8.904  11.358 -15.618  1.00  0.00     0.102 C 
BRANCH   5   6
HETATM    6  C4  UNL     1      -9.629  10.811 -14.386  1.00  0.00     0.133 C 
BRANCH   6   7
HETATM    7  N1  UNL     1     -10.204  11.857 -13.565  1.00  0.00    -0.360 N 
HETATM    8  C5  UNL     1      -9.638  12.231 -12.368  1.00  0.00     0.219 C 
HETATM    9  O2  UNL     1      -8.670  11.655 -11.887  1.00  0.00    -0.274 OA
HETATM   10  H8  UNL     1     -11.039  12.326 -13.889  1.00  0.00     0.162 HD
BRANCH   8  11
HETATM   11  C6  UNL     1     -10.362  13.378 -11.696  1.00  0.00     0.122 C 
BRANCH  11  12
HETATM   12  C7  UNL     1     -10.925  12.977 -10.333  1.00  0.00     0.132 C 
BRANCH  12  13
HETATM   13  N2  UNL     1      -9.905  12.544  -9.402  1.00  0.00    -0.358 N 
HETATM   14  C8  UNL     1      -9.269  13.464  -8.589  1.00  0.00     0.247 C 
HETATM   15  O3  UNL     1      -9.451  14.670  -8.702  1.00  0.00    -0.271 OA
HETATM   16  H13 UNL     1     -10.014  11.600  -9.039  1.00  0.00     0.162 HD
BRANCH  14  17
HETATM   17  C9  UNL     1      -8.340  12.853  -7.529  1.00  0.00     0.219 C 
BRANCH  17  18
HETATM   18  C10 UNL     1      -6.897  12.572  -8.023  1.00  0.00     0.009 C 
HETATM   19  C11 UNL     1      -6.473  13.531  -9.145  1.00  0.00     0.020 C 
HETATM   20  C12 UNL     1      -5.872  12.697  -6.878  1.00  0.00     0.020 C 
BRANCH  18  21
HETATM   21  C13 UNL     1      -6.908  11.112  -8.561  1.00  0.00     0.192 C 
BRANCH  21  22
HETATM   22  O4  UNL     1      -5.639  10.496  -8.471  1.00  0.00    -0.296 OA
BRANCH  22  23
HETATM   23  P1  UNL     1      -5.182   9.297  -9.433  1.00  0.00     0.401 P 
HETATM   24  O5  UNL     1      -5.231   9.630 -10.891  1.00  0.00    -0.631 OA
BRANCH  23  25
HETATM   25  O6  UNL     1      -6.068   8.015  -9.030  1.00  0.00    -0.307 OA
HETATM   26  H23 UNL     1      -6.797   8.249  -8.442  1.00  0.00     0.222 HD
ENDBRANCH  23  25
BRANCH  23  27
HETATM   27  O7  UNL     1      -3.748   8.864  -8.898  1.00  0.00    -0.195 OA
BRANCH  27  28
HETATM   28  P2  UNL     1      -3.281   7.352  -9.085  1.00  0.00     0.401 P 
HETATM   29  O8  UNL     1      -3.656   6.390  -8.006  1.00  0.00    -0.631 OA
BRANCH  28  30
HETATM   30  O9  UNL     1      -3.850   6.969 -10.527  1.00  0.00    -0.307 OA
HETATM   31  H24 UNL     1      -4.832   6.861 -10.557  1.00  0.00     0.222 HD
ENDBRANCH  28  30
BRANCH  28  32
HETATM   32  O10 UNL     1      -1.721   7.468  -9.407  1.00  0.00    -0.294 OA
BRANCH  32  33
HETATM   33  C14 UNL     1      -0.799   7.639  -8.362  1.00  0.00     0.215 C 
BRANCH  33  34
HETATM   34  C15 UNL     1       0.566   7.823  -9.023  1.00  0.00     0.180 C 
HETATM   35  C16 UNL     1       1.001   9.278  -8.911  1.00  0.00     0.197 C 
HETATM   36  C17 UNL     1       1.106   9.759 -10.346  1.00  0.00     0.199 C 
HETATM   37  C18 UNL     1       1.367   8.455 -11.105  1.00  0.00     0.262 C 
HETATM   38  O11 UNL     1       0.566   7.473 -10.412  1.00  0.00    -0.353 OA
BRANCH  35  39
HETATM   39  O13 UNL     1       2.256   9.313  -8.239  1.00  0.00    -0.286 OA
BRANCH  39  40
HETATM   40  P3  UNL     1       2.350  10.328  -7.008  1.00  0.00     0.391 P 
HETATM   41  O14 UNL     1       1.173  10.271  -6.088  1.00  0.00    -0.632 OA
BRANCH  40  42
HETATM   42  O15 UNL     1       2.625  11.704  -7.775  1.00  0.00    -0.307 OA
HETATM   43  H36 UNL     1       2.778  12.437  -7.132  1.00  0.00     0.222 HD
ENDBRANCH  40  42
BRANCH  40  44
HETATM   44  O16 UNL     1       3.775   9.959  -6.405  1.00  0.00    -0.307 OA
HETATM   45  H37 UNL     1       3.719   9.349  -5.652  1.00  0.00     0.222 HD
ENDBRANCH  40  44
ENDBRANCH  39  40
ENDBRANCH  35  39
BRANCH  36  46
HETATM   46  O12 UNL     1       2.093  10.789 -10.452  1.00  0.00    -0.388 OA
HETATM   47  H35 UNL     1       2.933  10.406 -10.103  1.00  0.00     0.210 HD
ENDBRANCH  36  46
BRANCH  37  48
HETATM   48  N3  UNL     1       0.933   8.520 -12.486  1.00  0.00    -0.297 N 
HETATM   49  C19 UNL     1       1.730   8.572 -13.606  1.00  0.00     0.188 A 
HETATM   50  N4  UNL     1       1.033   8.495 -14.718  1.00  0.00    -0.346 N 
HETATM   51  C20 UNL     1      -0.281   8.381 -14.299  1.00  0.00     0.116 A 
HETATM   52  H4  UNL     1       1.383   8.513 -15.676  1.00  0.00     0.167 HD
HETATM   53  C21 UNL     1      -1.492   8.221 -14.994  1.00  0.00     0.109 A 
HETATM   54  C23 UNL     1      -0.360   8.435 -12.920  1.00  0.00     0.142 A 
HETATM   55  N5  UNL     1      -2.644   8.149 -14.283  1.00  0.00    -0.341 N 
HETATM   56  C22 UNL     1      -2.571   8.240 -12.940  1.00  0.00     0.183 A 
HETATM   57  H5  UNL     1      -3.541   8.029 -14.752  1.00  0.00     0.167 HD
HETATM   58  N6  UNL     1      -1.475   8.385 -12.168  1.00  0.00    -0.336 N 
HETATM   59  H6  UNL     1      -1.488   8.448 -11.150  1.00  0.00     0.168 HD
BRANCH  53  60
HETATM   60  N7  UNL     1      -1.574   8.142 -16.375  1.00  0.00    -0.287 NA
HETATM   61  H33 UNL     1      -1.601   7.192 -16.740  1.00  0.00     0.125 HD
HETATM   62  H34 UNL     1      -0.958   8.792 -16.845  1.00  0.00     0.125 HD
ENDBRANCH  53  60
ENDBRANCH  37  48
ENDBRANCH  33  34
ENDBRANCH  32  33
ENDBRANCH  28  32
ENDBRANCH  27  28
ENDBRANCH  23  27
ENDBRANCH  22  23
ENDBRANCH  21  22
ENDBRANCH  18  21
ENDBRANCH  17  18
BRANCH  17  63
HETATM   63  O17 UNL     1      -8.269  13.710  -6.383  1.00  0.00    -0.385 OA
HETATM   64  H38 UNL     1      -7.344  13.988  -6.272  1.00  0.00     0.210 HD
ENDBRANCH  17  63
ENDBRANCH  14  17
ENDBRANCH  12  13
ENDBRANCH  11  12
ENDBRANCH   8  11
ENDBRANCH   6   7
ENDBRANCH   5   6
ENDBRANCH   4   5
ENDBRANCH   2   4
TORSDOF 27
ENDMDL
MODEL 3
REMARK VINA RESULT:      -6.7      4.580     11.740
REMARK  27 active torsions:
REMARK  status: ('A' for Active; 'I' for Inactive)
REMARK    1  A    between atoms: C2_2  and  S1_4 
REMARK    2  A    between atoms: S1_4  and  C3_5 
REMARK    3  A    between atoms: C3_5  and  C4_6 
REMARK    4  A    between atoms: C4_6  and  N1_7 
REMARK       I    between atoms: N1_7  and  C5_8 
REMARK    5  A    between atoms: C5_8  and  C6_10 
REMARK    6  A    between atoms: C6_10  and  C7_11 
REMARK    7  A    between atoms: C7_11  and  N2_12 
REMARK       I    between atoms: N2_12  and  C8_13 
REMARK    8  A    between atoms: C8_13  and  C9_15 
REMARK    9  A    between atoms: C9_15  and  C10_16 
REMARK   10  A    between atoms: C9_15  and  O17_54 
REMARK   11  A    between atoms: C10_16  and  C13_19 
REMARK   12  A    between atoms: C13_19  and  O4_20 
REMARK   13  A    between atoms: O4_20  and  P1_21 
REMARK   14  A    between atoms: P1_21  and  O6_23 
REMARK   15  A    between atoms: P1_21  and  O7_24 
REMARK   16  A    between atoms: O7_24  and  P2_25 
REMARK   17  A    between atoms: P2_25  and  O9_27 
REMARK   18  A    between atoms: P2_25  and  O10_28 
REMARK   19  A    between atoms: O10_28  and  C14_29 
REMARK   20  A    between atoms: C14_29  and  C15_30 
REMARK   21  A    between atoms: C16_31  and  O13_49 
REMARK   22  A    between atoms: C17_32  and  O12_48 
REMARK   23  A    between atoms: C18_33  and  N3_35 
REMARK   24  A    between atoms: C21_40  and  N7_47 
REMARK   25  A    between atoms: O13_49  and  P3_50 
REMARK   26  A    between atoms: P3_50  and  O15_52 
REMARK   27  A    between atoms: P3_50  and  O16_53 
ROOT
HETATM    1  C1  UNL     1      10.140  14.327 -12.299  1.00  0.00     0.104 C 
HETATM    2  C2  UNL     1       8.710  14.499 -12.711  1.00  0.00     0.182 C 
HETATM    3  O1  UNL     1       8.147  13.763 -13.519  1.00  0.00    -0.286 OA
ENDROOT
BRANCH   2   4
HETATM    4  S1  UNL     1       7.902  15.875 -11.972  1.00  0.00    -0.091 SA
BRANCH   4   5
HETATM    5  C3  UNL     1       8.147  15.485 -10.209  1.00  0.00     0.102 C 
BRANCH   5   6
HETATM    6  C4  UNL     1       7.455  14.179  -9.813  1.00  0.00     0.133 C 
BRANCH   6   7
HETATM    7  N1  UNL     1       6.097  14.382  -9.353  1.00  0.00    -0.360 N 
HETATM    8  C5  UNL     1       5.032  13.727  -9.926  1.00  0.00     0.219 C 
HETATM    9  O2  UNL     1       5.155  12.999 -10.904  1.00  0.00    -0.274 OA
HETATM   10  H8  UNL     1       5.934  15.019  -8.585  1.00  0.00     0.162 HD
BRANCH   8  11
HETATM   11  C6  UNL     1       3.709  14.038  -9.262  1.00  0.00     0.122 C 
BRANCH  11  12
HETATM   12  C7  UNL     1       3.700  13.631  -7.789  1.00  0.00     0.132 C 
BRANCH  12  13
HETATM   13  N2  UNL     1       3.406  12.227  -7.589  1.00  0.00    -0.358 N 
HETATM   14  C8  UNL     1       2.250  11.843  -6.936  1.00  0.00     0.247 C 
HETATM   15  O3  UNL     1       1.501  12.654  -6.404  1.00  0.00    -0.271 OA
HETATM   16  H13 UNL     1       3.768  11.598  -8.303  1.00  0.00     0.162 HD
BRANCH  14  17
HETATM   17  C9  UNL     1       1.974  10.332  -6.949  1.00  0.00     0.219 C 
BRANCH  17  18
HETATM   18  C10 UNL     1       1.246   9.823  -8.221  1.00  0.00     0.009 C 
HETATM   19  C11 UNL     1       0.940  10.960  -9.207  1.00  0.00     0.020 C 
HETATM   20  C12 UNL     1       2.083   8.762  -8.965  1.00  0.00     0.020 C 
BRANCH  18  21
HETATM   21  C13 UNL     1      -0.085   9.188  -7.726  1.00  0.00     0.192 C 
BRANCH  21  22
HETATM   22  O4  UNL     1      -1.047   9.083  -8.756  1.00  0.00    -0.296 OA
BRANCH  22  23
HETATM   23  P1  UNL     1      -2.584   8.718  -8.478  1.00  0.00     0.401 P 
HETATM   24  O5  UNL     1      -3.109   9.232  -7.175  1.00  0.00    -0.631 OA
BRANCH  23  25
HETATM   25  O6  UNL     1      -2.722   7.124  -8.650  1.00  0.00    -0.307 OA
HETATM   26  H23 UNL     1      -3.567   6.796  -8.318  1.00  0.00     0.222 HD
ENDBRANCH  23  25
BRANCH  23  27
HETATM   27  O7  UNL     1      -3.368   9.236  -9.762  1.00  0.00    -0.195 OA
BRANCH  27  28
HETATM   28  P2  UNL     1      -4.685   8.467 -10.222  1.00  0.00     0.401 P 
HETATM   29  O8  UNL     1      -4.502   7.296 -11.130  1.00  0.00    -0.631 OA
BRANCH  28  30
HETATM   30  O9  UNL     1      -5.405   8.115  -8.841  1.00  0.00    -0.307 OA
HETATM   31  H24 UNL     1      -4.855   8.298  -8.041  1.00  0.00     0.222 HD
ENDBRANCH  28  30
BRANCH  28  32
HETATM   32  O10 UNL     1      -5.640   9.627 -10.764  1.00  0.00    -0.294 OA
BRANCH  32  33
HETATM   33  C14 UNL     1      -6.905   9.821 -10.188  1.00  0.00     0.215 C 
BRANCH  33  34
HETATM   34  C15 UNL     1      -7.207  11.313 -10.314  1.00  0.00     0.180 C 
HETATM   35  C16 UNL     1      -8.080  11.763  -9.149  1.00  0.00     0.197 C 
HETATM   36  C17 UNL     1      -9.367  12.239  -9.795  1.00  0.00     0.199 C 
HETATM   37  C18 UNL     1      -8.899  12.630 -11.199  1.00  0.00     0.262 C 
HETATM   38  O11 UNL     1      -7.894  11.645 -11.526  1.00  0.00    -0.353 OA
BRANCH  35  39
HETATM   39  O13 UNL     1      -7.400  12.812  -8.468  1.00  0.00    -0.286 OA
BRANCH  39  40
HETATM   40  P3  UNL     1      -7.110  12.552  -6.917  1.00  0.00     0.391 P 
HETATM   41  O14 UNL     1      -6.070  13.456  -6.339  1.00  0.00    -0.632 OA
BRANCH  40  42
HETATM   42  O15 UNL     1      -6.805  10.982  -6.928  1.00  0.00    -0.307 OA
HETATM   43  H36 UNL     1      -7.015  10.580  -6.053  1.00  0.00     0.222 HD
ENDBRANCH  40  42
BRANCH  40  44
HETATM   44  O16 UNL     1      -8.576  12.631  -6.305  1.00  0.00    -0.307 OA
HETATM   45  H37 UNL     1      -8.851  11.804  -5.879  1.00  0.00     0.222 HD
ENDBRANCH  40  44
ENDBRANCH  39  40
ENDBRANCH  35  39
BRANCH  36  46
HETATM   46  O12 UNL     1      -9.974  13.260  -8.997  1.00  0.00    -0.388 OA
HETATM   47  H35 UNL     1      -9.533  14.106  -9.247  1.00  0.00     0.210 HD
ENDBRANCH  36  46
BRANCH  37  48
HETATM   48  N3  UNL     1      -9.962  12.555 -12.181  1.00  0.00    -0.297 N 
HETATM   49  C19 UNL     1     -11.167  13.218 -12.153  1.00  0.00     0.188 A 
HETATM   50  N4  UNL     1     -11.861  13.037 -13.255  1.00  0.00    -0.346 N 
HETATM   51  C20 UNL     1     -11.064  12.220 -14.039  1.00  0.00     0.116 A 
HETATM   52  H4  UNL     1     -12.781  13.414 -13.482  1.00  0.00     0.167 HD
HETATM   53  C21 UNL     1     -11.216  11.703 -15.337  1.00  0.00     0.109 A 
HETATM   54  C23 UNL     1      -9.902  11.882 -13.369  1.00  0.00     0.142 A 
HETATM   55  N5  UNL     1     -10.241  10.905 -15.836  1.00  0.00    -0.341 N 
HETATM   56  C22 UNL     1      -9.172  10.641 -15.058  1.00  0.00     0.183 A 
HETATM   57  H5  UNL     1     -10.314  10.514 -16.775  1.00  0.00     0.167 HD
HETATM   58  N6  UNL     1      -8.914  11.084 -13.810  1.00  0.00    -0.336 N 
HETATM   59  H6  UNL     1      -8.081  10.846 -13.273  1.00  0.00     0.168 HD
BRANCH  53  60
HETATM   60  N7  UNL     1     -12.320  11.959 -16.135  1.00  0.00    -0.287 NA
HETATM   61  H33 UNL     1     -12.093  12.221 -17.092  1.00  0.00     0.125 HD
HETATM   62  H34 UNL     1     -13.026  12.510 -15.667  1.00  0.00     0.125 HD
ENDBRANCH  53  60
ENDBRANCH  37  48
ENDBRANCH  33  34
ENDBRANCH  32  33
ENDBRANCH  28  32
ENDBRANCH  27  28
ENDBRANCH  23  27
ENDBRANCH  22  23
ENDBRANCH  21  22
ENDBRANCH  18  21
ENDBRANCH  17  18
BRANCH  17  63
HETATM   63  O17 UNL     1       3.199   9.606  -6.805  1.00  0.00    -0.385 OA
HETATM   64  H38 UNL     1       3.925  10.249  -6.737  1.00  0.00     0.210 HD
ENDBRANCH  17  63
ENDBRANCH  14  17
ENDBRANCH  12  13
ENDBRANCH  11  12
ENDBRANCH   8  11
ENDBRANCH   6   7
ENDBRANCH   5   6
ENDBRANCH   4   5
ENDBRANCH   2   4
TORSDOF 27
ENDMDL
MODEL 4
REMARK VINA RESULT:      -6.5      4.415     11.278
REMARK  27 active torsions:
REMARK  status: ('A' for Active; 'I' for Inactive)
REMARK    1  A    between atoms: C2_2  and  S1_4 
REMARK    2  A    between atoms: S1_4  and  C3_5 
REMARK    3  A    between atoms: C3_5  and  C4_6 
REMARK    4  A    between atoms: C4_6  and  N1_7 
REMARK       I    between atoms: N1_7  and  C5_8 
REMARK    5  A    between atoms: C5_8  and  C6_10 
REMARK    6  A    between atoms: C6_10  and  C7_11 
REMARK    7  A    between atoms: C7_11  and  N2_12 
REMARK       I    between atoms: N2_12  and  C8_13 
REMARK    8  A    between atoms: C8_13  and  C9_15 
REMARK    9  A    between atoms: C9_15  and  C10_16 
REMARK   10  A    between atoms: C9_15  and  O17_54 
REMARK   11  A    between atoms: C10_16  and  C13_19 
REMARK   12  A    between atoms: C13_19  and  O4_20 
REMARK   13  A    between atoms: O4_20  and  P1_21 
REMARK   14  A    between atoms: P1_21  and  O6_23 
REMARK   15  A    between atoms: P1_21  and  O7_24 
REMARK   16  A    between atoms: O7_24  and  P2_25 
REMARK   17  A    between atoms: P2_25  and  O9_27 
REMARK   18  A    between atoms: P2_25  and  O10_28 
REMARK   19  A    between atoms: O10_28  and  C14_29 
REMARK   20  A    between atoms: C14_29  and  C15_30 
REMARK   21  A    between atoms: C16_31  and  O13_49 
REMARK   22  A    between atoms: C17_32  and  O12_48 
REMARK   23  A    between atoms: C18_33  and  N3_35 
REMARK   24  A    between atoms: C21_40  and  N7_47 
REMARK   25  A    between atoms: O13_49  and  P3_50 
REMARK   26  A    between atoms: P3_50  and  O15_52 
REMARK   27  A    between atoms: P3_50  and  O16_53 
ROOT
HETATM    1  C1  UNL     1       9.914  15.505 -12.633  1.00  0.00     0.104 C 
HETATM    2  C2  UNL     1       9.026  14.648 -11.783  1.00  0.00     0.182 C 
HETATM    3  O1  UNL     1       9.261  13.468 -11.538  1.00  0.00    -0.286 OA
ENDROOT
BRANCH   2   4
HETATM    4  S1  UNL     1       7.584  15.463 -11.191  1.00  0.00    -0.091 SA
BRANCH   4   5
HETATM    5  C3  UNL     1       6.637  14.035 -10.571  1.00  0.00     0.102 C 
BRANCH   5   6
HETATM    6  C4  UNL     1       5.631  14.443  -9.494  1.00  0.00     0.133 C 
BRANCH   6   7
HETATM    7  N1  UNL     1       4.306  13.907  -9.733  1.00  0.00    -0.360 N 
HETATM    8  C5  UNL     1       3.549  13.369  -8.719  1.00  0.00     0.219 C 
HETATM    9  O2  UNL     1       3.973  13.236  -7.577  1.00  0.00    -0.274 OA
HETATM   10  H8  UNL     1       3.931  13.939 -10.672  1.00  0.00     0.162 HD
BRANCH   8  11
HETATM   11  C6  UNL     1       2.177  12.917  -9.171  1.00  0.00     0.122 C 
BRANCH  11  12
HETATM   12  C7  UNL     1       2.229  11.577  -9.903  1.00  0.00     0.132 C 
BRANCH  12  13
HETATM   13  N2  UNL     1       0.926  10.968 -10.067  1.00  0.00    -0.358 N 
HETATM   14  C8  UNL     1       0.804   9.593 -10.147  1.00  0.00     0.247 C 
HETATM   15  O3  UNL     1       1.779   8.855 -10.201  1.00  0.00    -0.271 OA
HETATM   16  H13 UNL     1       0.148  11.482  -9.658  1.00  0.00     0.162 HD
BRANCH  14  17
HETATM   17  C9  UNL     1      -0.642   9.074 -10.140  1.00  0.00     0.219 C 
BRANCH  17  18
HETATM   18  C10 UNL     1      -1.337   9.124  -8.754  1.00  0.00     0.009 C 
HETATM   19  C11 UNL     1      -0.355   8.850  -7.605  1.00  0.00     0.020 C 
HETATM   20  C12 UNL     1      -1.994  10.495  -8.501  1.00  0.00     0.020 C 
BRANCH  18  21
HETATM   21  C13 UNL     1      -2.428   8.016  -8.784  1.00  0.00     0.192 C 
BRANCH  21  22
HETATM   22  O4  UNL     1      -3.624   8.421  -8.149  1.00  0.00    -0.296 OA
BRANCH  22  23
HETATM   23  P1  UNL     1      -5.061   8.322  -8.854  1.00  0.00     0.401 P 
HETATM   24  O5  UNL     1      -6.215   8.390  -7.903  1.00  0.00    -0.631 OA
BRANCH  23  25
HETATM   25  O6  UNL     1      -5.044   6.992  -9.760  1.00  0.00    -0.307 OA
HETATM   26  H23 UNL     1      -5.145   6.191  -9.230  1.00  0.00     0.222 HD
ENDBRANCH  23  25
BRANCH  23  27
HETATM   27  O7  UNL     1      -5.051   9.456  -9.969  1.00  0.00    -0.195 OA
BRANCH  27  28
HETATM   28  P2  UNL     1      -6.018   9.309 -11.226  1.00  0.00     0.401 P 
HETATM   29  O8  UNL     1      -5.484   8.568 -12.408  1.00  0.00    -0.631 OA
BRANCH  28  30
HETATM   30  O9  UNL     1      -7.339   8.669 -10.599  1.00  0.00    -0.307 OA
HETATM   31  H24 UNL     1      -7.355   8.663  -9.611  1.00  0.00     0.222 HD
ENDBRANCH  28  30
BRANCH  28  32
HETATM   32  O10 UNL     1      -6.519  10.800 -11.505  1.00  0.00    -0.294 OA
BRANCH  32  33
HETATM   33  C14 UNL     1      -5.817  11.889 -10.965  1.00  0.00     0.215 C 
BRANCH  33  34
HETATM   34  C15 UNL     1      -6.873  12.907 -10.537  1.00  0.00     0.180 C 
HETATM   35  C16 UNL     1      -7.680  12.353  -9.370  1.00  0.00     0.197 C 
HETATM   36  C17 UNL     1      -9.101  12.260  -9.895  1.00  0.00     0.199 C 
HETATM   37  C18 UNL     1      -9.108  13.322 -10.997  1.00  0.00     0.262 C 
HETATM   38  O11 UNL     1      -7.792  13.233 -11.586  1.00  0.00    -0.353 OA
BRANCH  35  39
HETATM   39  O13 UNL     1      -7.568  13.266  -8.284  1.00  0.00    -0.286 OA
BRANCH  39  40
HETATM   40  P3  UNL     1      -7.145  12.622  -6.883  1.00  0.00     0.391 P 
HETATM   41  O14 UNL     1      -6.007  13.324  -6.216  1.00  0.00    -0.632 OA
BRANCH  40  42
HETATM   42  O15 UNL     1      -6.926  11.096  -7.310  1.00  0.00    -0.307 OA
HETATM   43  H36 UNL     1      -6.546  10.576  -6.562  1.00  0.00     0.222 HD
ENDBRANCH  40  42
BRANCH  40  44
HETATM   44  O16 UNL     1      -8.539  12.587  -6.118  1.00  0.00    -0.307 OA
HETATM   45  H37 UNL     1      -9.296  12.731  -6.708  1.00  0.00     0.222 HD
ENDBRANCH  40  44
ENDBRANCH  39  40
ENDBRANCH  35  39
BRANCH  36  46
HETATM   46  O12 UNL     1     -10.036  12.418  -8.825  1.00  0.00    -0.388 OA
HETATM   47  H35 UNL     1     -10.090  11.543  -8.372  1.00  0.00     0.210 HD
ENDBRANCH  36  46
BRANCH  37  48
HETATM   48  N3  UNL     1     -10.097  13.054 -12.022  1.00  0.00    -0.297 N 
HETATM   49  C19 UNL     1     -11.324  13.656 -12.170  1.00  0.00     0.188 A 
HETATM   50  N4  UNL     1     -11.933  13.282 -13.275  1.00  0.00    -0.346 N 
HETATM   51  C20 UNL     1     -11.055  12.397 -13.874  1.00  0.00     0.116 A 
HETATM   52  H4  UNL     1     -12.848  13.578 -13.614  1.00  0.00     0.167 HD
HETATM   53  C21 UNL     1     -11.097  11.686 -15.086  1.00  0.00     0.109 A 
HETATM   54  C23 UNL     1      -9.931  12.216 -13.089  1.00  0.00     0.142 A 
HETATM   55  N5  UNL     1     -10.061  10.869 -15.396  1.00  0.00    -0.341 N 
HETATM   56  C22 UNL     1      -9.040  10.774 -14.522  1.00  0.00     0.183 A 
HETATM   57  H5  UNL     1     -10.054  10.341 -16.269  1.00  0.00     0.167 HD
HETATM   58  N6  UNL     1      -8.886  11.408 -13.341  1.00  0.00    -0.336 N 
HETATM   59  H6  UNL     1      -8.083  11.291 -12.722  1.00  0.00     0.168 HD
BRANCH  53  60
HETATM   60  N7  UNL     1     -12.151  11.770 -15.982  1.00  0.00    -0.287 NA
HETATM   61  H33 UNL     1     -12.033  12.478 -16.703  1.00  0.00     0.125 HD
HETATM   62  H34 UNL     1     -13.056  11.723 -15.532  1.00  0.00     0.125 HD
ENDBRANCH  53  60
ENDBRANCH  37  48
ENDBRANCH  33  34
ENDBRANCH  32  33
ENDBRANCH  28  32
ENDBRANCH  27  28
ENDBRANCH  23  27
ENDBRANCH  22  23
ENDBRANCH  21  22
ENDBRANCH  18  21
ENDBRANCH  17  18
BRANCH  17  63
HETATM   63  O17 UNL     1      -1.436   9.814 -11.074  1.00  0.00    -0.385 OA
HETATM   64  H38 UNL     1      -1.641  10.677 -10.678  1.00  0.00     0.210 HD
ENDBRANCH  17  63
ENDBRANCH  14  17
ENDBRANCH  12  13
ENDBRANCH  11  12
ENDBRANCH   8  11
ENDBRANCH   6   7
ENDBRANCH   5   6
ENDBRANCH   4   5
ENDBRANCH   2   4
TORSDOF 27
ENDMDL
MODEL 5
REMARK VINA RESULT:      -6.5      3.514      5.663
REMARK  27 active torsions:
REMARK  status: ('A' for Active; 'I' for Inactive)
REMARK    1  A    between atoms: C2_2  and  S1_4 
REMARK    2  A    between atoms: S1_4  and  C3_5 
REMARK    3  A    between atoms: C3_5  and  C4_6 
REMARK    4  A    between atoms: C4_6  and  N1_7 
REMARK       I    between atoms: N1_7  and  C5_8 
REMARK    5  A    between atoms: C5_8  and  C6_10 
REMARK    6  A    between atoms: C6_10  and  C7_11 
REMARK    7  A    between atoms: C7_11  and  N2_12 
REMARK       I    between atoms: N2_12  and  C8_13 
REMARK    8  A    between atoms: C8_13  and  C9_15 
REMARK    9  A    between atoms: C9_15  and  C10_16 
REMARK   10  A    between atoms: C9_15  and  O17_54 
REMARK   11  A    between atoms: C10_16  and  C13_19 
REMARK   12  A    between atoms: C13_19  and  O4_20 
REMARK   13  A    between atoms: O4_20  and  P1_21 
REMARK   14  A    between atoms: P1_21  and  O6_23 
REMARK   15  A    between atoms: P1_21  and  O7_24 
REMARK   16  A    between atoms: O7_24  and  P2_25 
REMARK   17  A    between atoms: P2_25  and  O9_27 
REMARK   18  A    between atoms: P2_25  and  O10_28 
REMARK   19  A    between atoms: O10_28  and  C14_29 
REMARK   20  A    between atoms: C14_29  and  C15_30 
REMARK   21  A    between atoms: C16_31  and  O13_49 
REMARK   22  A    between atoms: C17_32  and  O12_48 
REMARK   23  A    between atoms: C18_33  and  N3_35 
REMARK   24  A    between atoms: C21_40  and  N7_47 
REMARK   25  A    between atoms: O13_49  and  P3_50 
REMARK   26  A    between atoms: P3_50  and  O15_52 
REMARK   27  A    between atoms: P3_50  and  O16_53 
ROOT
HETATM    1  C1  UNL     1     -10.663   9.984 -17.658  1.00  0.00     0.104 C 
HETATM    2  C2  UNL     1     -11.568  10.508 -16.585  1.00  0.00     0.182 C 
HETATM    3  O1  UNL     1     -12.443   9.831 -16.050  1.00  0.00    -0.286 OA
ENDROOT
BRANCH   2   4
HETATM    4  S1  UNL     1     -11.303  12.197 -16.174  1.00  0.00    -0.091 SA
BRANCH   4   5
HETATM    5  C3  UNL     1     -11.023  12.053 -14.379  1.00  0.00     0.102 C 
BRANCH   5   6
HETATM    6  C4  UNL     1     -11.745  13.154 -13.600  1.00  0.00     0.133 C 
BRANCH   6   7
HETATM    7  N1  UNL     1     -11.501  13.082 -12.174  1.00  0.00    -0.360 N 
HETATM    8  C5  UNL     1     -11.616  14.187 -11.363  1.00  0.00     0.219 C 
HETATM    9  O2  UNL     1     -11.851  15.306 -11.802  1.00  0.00    -0.274 OA
HETATM   10  H8  UNL     1     -11.247  12.191 -11.768  1.00  0.00     0.162 HD
BRANCH   8  11
HETATM   11  C6  UNL     1     -11.374  13.884  -9.900  1.00  0.00     0.122 C 
BRANCH  11  12
HETATM   12  C7  UNL     1     -10.969  12.427  -9.678  1.00  0.00     0.132 C 
BRANCH  12  13
HETATM   13  N2  UNL     1      -9.597  12.280  -9.238  1.00  0.00    -0.358 N 
HETATM   14  C8  UNL     1      -8.584  12.107 -10.163  1.00  0.00     0.247 C 
HETATM   15  O3  UNL     1      -8.810  11.954 -11.357  1.00  0.00    -0.271 OA
HETATM   16  H13 UNL     1      -9.360  12.761  -8.373  1.00  0.00     0.162 HD
BRANCH  14  17
HETATM   17  C9  UNL     1      -7.164  12.143  -9.578  1.00  0.00     0.219 C 
BRANCH  17  18
HETATM   18  C10 UNL     1      -6.380  10.811  -9.711  1.00  0.00     0.009 C 
HETATM   19  C11 UNL     1      -7.285   9.585  -9.514  1.00  0.00     0.020 C 
HETATM   20  C12 UNL     1      -5.707  10.687 -11.093  1.00  0.00     0.020 C 
BRANCH  18  21
HETATM   21  C13 UNL     1      -5.293  10.842  -8.599  1.00  0.00     0.192 C 
BRANCH  21  22
HETATM   22  O4  UNL     1      -4.100  10.195  -8.993  1.00  0.00    -0.296 OA
BRANCH  22  23
HETATM   23  P1  UNL     1      -3.648   8.772  -8.409  1.00  0.00     0.401 P 
HETATM   24  O5  UNL     1      -4.784   7.895  -7.985  1.00  0.00    -0.631 OA
BRANCH  23  25
HETATM   25  O6  UNL     1      -2.582   9.066  -7.239  1.00  0.00    -0.307 OA
HETATM   26  H23 UNL     1      -2.685   9.954  -6.872  1.00  0.00     0.222 HD
ENDBRANCH  23  25
BRANCH  23  27
HETATM   27  O7  UNL     1      -2.710   8.147  -9.532  1.00  0.00    -0.195 OA
BRANCH  27  28
HETATM   28  P2  UNL     1      -2.009   6.743  -9.256  1.00  0.00     0.401 P 
HETATM   29  O8  UNL     1      -2.266   6.108  -7.928  1.00  0.00    -0.631 OA
BRANCH  28  30
HETATM   30  O9  UNL     1      -2.463   5.855 -10.502  1.00  0.00    -0.307 OA
HETATM   31  H24 UNL     1      -2.554   4.892 -10.299  1.00  0.00     0.222 HD
ENDBRANCH  28  30
BRANCH  28  32
HETATM   32  O10 UNL     1      -0.475   6.999  -9.621  1.00  0.00    -0.294 OA
BRANCH  32  33
HETATM   33  C14 UNL     1       0.402   7.508  -8.651  1.00  0.00     0.215 C 
BRANCH  33  34
HETATM   34  C15 UNL     1       1.356   8.446  -9.389  1.00  0.00     0.180 C 
HETATM   35  C16 UNL     1       0.886   9.887  -9.232  1.00  0.00     0.197 C 
HETATM   36  C17 UNL     1       0.579  10.347 -10.644  1.00  0.00     0.199 C 
HETATM   37  C18 UNL     1       1.475   9.434 -11.484  1.00  0.00     0.262 C 
HETATM   38  O11 UNL     1       1.442   8.166 -10.791  1.00  0.00    -0.353 OA
BRANCH  35  39
HETATM   39  O13 UNL     1       1.945  10.634  -8.642  1.00  0.00    -0.286 OA
BRANCH  39  40
HETATM   40  P3  UNL     1       1.599  11.337  -7.248  1.00  0.00     0.391 P 
HETATM   41  O14 UNL     1       1.376  10.374  -6.127  1.00  0.00    -0.632 OA
BRANCH  40  42
HETATM   42  O15 UNL     1       0.372  12.269  -7.679  1.00  0.00    -0.307 OA
HETATM   43  H36 UNL     1      -0.410  11.722  -7.928  1.00  0.00     0.222 HD
ENDBRANCH  40  42
BRANCH  40  44
HETATM   44  O16 UNL     1       2.803  12.366  -7.107  1.00  0.00    -0.307 OA
HETATM   45  H37 UNL     1       3.550  12.154  -7.689  1.00  0.00     0.222 HD
ENDBRANCH  40  44
ENDBRANCH  39  40
ENDBRANCH  35  39
BRANCH  36  46
HETATM   46  O12 UNL     1       0.784  11.757 -10.762  1.00  0.00    -0.388 OA
HETATM   47  H35 UNL     1      -0.102  12.177 -10.650  1.00  0.00     0.210 HD
ENDBRANCH  36  46
BRANCH  37  48
HETATM   48  N3  UNL     1       0.971   9.243 -12.829  1.00  0.00    -0.297 N 
HETATM   49  C19 UNL     1       1.690   9.295 -14.001  1.00  0.00     0.188 A 
HETATM   50  N4  UNL     1       0.966   8.953 -15.044  1.00  0.00    -0.346 N 
HETATM   51  C20 UNL     1      -0.281   8.659 -14.523  1.00  0.00     0.116 A 
HETATM   52  H4  UNL     1       1.259   8.912 -16.020  1.00  0.00     0.167 HD
HETATM   53  C21 UNL     1      -1.473   8.197 -15.107  1.00  0.00     0.109 A 
HETATM   54  C23 UNL     1      -0.303   8.873 -13.157  1.00  0.00     0.142 A 
HETATM   55  N5  UNL     1      -2.556   8.011 -14.313  1.00  0.00    -0.341 N 
HETATM   56  C22 UNL     1      -2.437   8.283 -12.998  1.00  0.00     0.183 A 
HETATM   57  H5  UNL     1      -3.437   7.673 -14.700  1.00  0.00     0.167 HD
HETATM   58  N6  UNL     1      -1.351   8.719 -12.328  1.00  0.00    -0.336 N 
HETATM   59  H6  UNL     1      -1.327   8.908 -11.325  1.00  0.00     0.168 HD
BRANCH  53  60
HETATM   60  N7  UNL     1      -1.605   7.930 -16.460  1.00  0.00    -0.287 NA
HETATM   61  H33 UNL     1      -1.585   6.940 -16.696  1.00  0.00     0.125 HD
HETATM   62  H34 UNL     1      -1.053   8.547 -17.040  1.00  0.00     0.125 HD
ENDBRANCH  53  60
ENDBRANCH  37  48
ENDBRANCH  33  34
ENDBRANCH  32  33
ENDBRANCH  28  32
ENDBRANCH  27  28
ENDBRANCH  23  27
ENDBRANCH  22  23
ENDBRANCH  21  22
ENDBRANCH  18  21
ENDBRANCH  17  18
BRANCH  17  63
HETATM   63  O17 UNL     1      -6.401  13.183 -10.198  1.00  0.00    -0.385 OA
HETATM   64  H38 UNL     1      -5.831  12.778 -10.873  1.00  0.00     0.210 HD
ENDBRANCH  17  63
ENDBRANCH  14  17
ENDBRANCH  12  13
ENDBRANCH  11  12
ENDBRANCH   8  11
ENDBRANCH   6   7
ENDBRANCH   5   6
ENDBRANCH   4   5
ENDBRANCH   2   4
TORSDOF 27
ENDMDL
MODEL 6
REMARK VINA RESULT:      -6.3      3.061      5.160
REMARK  27 active torsions:
REMARK  status: ('A' for Active; 'I' for Inactive)
REMARK    1  A    between atoms: C2_2  and  S1_4 
REMARK    2  A    between atoms: S1_4  and  C3_5 
REMARK    3  A    between atoms: C3_5  and  C4_6 
REMARK    4  A    between atoms: C4_6  and  N1_7 
REMARK       I    between atoms: N1_7  and  C5_8 
REMARK    5  A    between atoms: C5_8  and  C6_10 
REMARK    6  A    between atoms: C6_10  and  C7_11 
REMARK    7  A    between atoms: C7_11  and  N2_12 
REMARK       I    between atoms: N2_12  and  C8_13 
REMARK    8  A    between atoms: C8_13  and  C9_15 
REMARK    9  A    between atoms: C9_15  and  C10_16 
REMARK   10  A    between atoms: C9_15  and  O17_54 
REMARK   11  A    between atoms: C10_16  and  C13_19 
REMARK   12  A    between atoms: C13_19  and  O4_20 
REMARK   13  A    between atoms: O4_20  and  P1_21 
REMARK   14  A    between atoms: P1_21  and  O6_23 
REMARK   15  A    between atoms: P1_21  and  O7_24 
REMARK   16  A    between atoms: O7_24  and  P2_25 
REMARK   17  A    between atoms: P2_25  and  O9_27 
REMARK   18  A    between atoms: P2_25  and  O10_28 
REMARK   19  A    between atoms: O10_28  and  C14_29 
REMARK   20  A    between atoms: C14_29  and  C15_30 
REMARK   21  A    between atoms: C16_31  and  O13_49 
REMARK   22  A    between atoms: C17_32  and  O12_48 
REMARK   23  A    between atoms: C18_33  and  N3_35 
REMARK   24  A    between atoms: C21_40  and  N7_47 
REMARK   25  A    between atoms: O13_49  and  P3_50 
REMARK   26  A    between atoms: P3_50  and  O15_52 
REMARK   27  A    between atoms: P3_50  and  O16_53 
ROOT
HETATM    1  C1  UNL     1     -11.348  16.369 -13.234  1.00  0.00     0.104 C 
HETATM    2  C2  UNL     1     -10.454  15.360 -13.887  1.00  0.00     0.182 C 
HETATM    3  O1  UNL     1     -10.211  15.354 -15.092  1.00  0.00    -0.286 OA
ENDROOT
BRANCH   2   4
HETATM    4  S1  UNL     1      -9.804  14.149 -12.790  1.00  0.00    -0.091 SA
BRANCH   4   5
HETATM    5  C3  UNL     1     -11.323  13.225 -12.393  1.00  0.00     0.102 C 
BRANCH   5   6
HETATM    6  C4  UNL     1     -11.690  13.341 -10.912  1.00  0.00     0.133 C 
BRANCH   6   7
HETATM    7  N1  UNL     1     -10.611  13.880 -10.109  1.00  0.00    -0.360 N 
HETATM    8  C5  UNL     1      -9.735  13.064  -9.432  1.00  0.00     0.219 C 
HETATM    9  O2  UNL     1      -9.859  11.845  -9.400  1.00  0.00    -0.274 OA
HETATM   10  H8  UNL     1     -10.500  14.884 -10.055  1.00  0.00     0.162 HD
BRANCH   8  11
HETATM   11  C6  UNL     1      -8.651  13.825  -8.701  1.00  0.00     0.122 C 
BRANCH  11  12
HETATM   12  C7  UNL     1      -8.365  13.228  -7.323  1.00  0.00     0.132 C 
BRANCH  12  13
HETATM   13  N2  UNL     1      -7.620  11.988  -7.385  1.00  0.00    -0.358 N 
HETATM   14  C8  UNL     1      -6.264  12.002  -7.653  1.00  0.00     0.247 C 
HETATM   15  O3  UNL     1      -5.672  13.028  -7.962  1.00  0.00    -0.271 OA
HETATM   16  H13 UNL     1      -7.970  11.237  -6.793  1.00  0.00     0.162 HD
BRANCH  14  17
HETATM   17  C9  UNL     1      -5.566  10.641  -7.514  1.00  0.00     0.219 C 
BRANCH  17  18
HETATM   18  C10 UNL     1      -5.528   9.802  -8.818  1.00  0.00     0.009 C 
HETATM   19  C11 UNL     1      -6.871   9.828  -9.562  1.00  0.00     0.020 C 
HETATM   20  C12 UNL     1      -4.439  10.309  -9.785  1.00  0.00     0.020 C 
BRANCH  18  21
HETATM   21  C13 UNL     1      -5.202   8.346  -8.379  1.00  0.00     0.192 C 
BRANCH  21  22
HETATM   22  O4  UNL     1      -3.813   8.124  -8.239  1.00  0.00    -0.296 OA
BRANCH  22  23
HETATM   23  P1  UNL     1      -3.042   6.931  -8.983  1.00  0.00     0.401 P 
HETATM   24  O5  UNL     1      -3.556   6.634 -10.357  1.00  0.00    -0.631 OA
BRANCH  23  25
HETATM   25  O6  UNL     1      -3.075   5.664  -7.990  1.00  0.00    -0.307 OA
HETATM   26  H23 UNL     1      -2.191   5.421  -7.686  1.00  0.00     0.222 HD
ENDBRANCH  23  25
BRANCH  23  27
HETATM   27  O7  UNL     1      -1.505   7.333  -8.921  1.00  0.00    -0.195 OA
BRANCH  27  28
HETATM   28  P2  UNL     1      -0.441   6.433  -9.693  1.00  0.00     0.401 P 
HETATM   29  O8  UNL     1      -0.420   4.976  -9.361  1.00  0.00    -0.631 OA
BRANCH  28  30
HETATM   30  O9  UNL     1      -0.741   6.747 -11.229  1.00  0.00    -0.307 OA
HETATM   31  H24 UNL     1      -0.458   6.032 -11.850  1.00  0.00     0.222 HD
ENDBRANCH  28  30
BRANCH  28  32
HETATM   32  O10 UNL     1       0.939   7.212  -9.497  1.00  0.00    -0.294 OA
BRANCH  32  33
HETATM   33  C14 UNL     1       1.015   8.294  -8.606  1.00  0.00     0.215 C 
BRANCH  33  34
HETATM   34  C15 UNL     1       1.391   9.513  -9.447  1.00  0.00     0.180 C 
HETATM   35  C16 UNL     1       0.238  10.508  -9.457  1.00  0.00     0.197 C 
HETATM   36  C17 UNL     1      -0.176  10.601 -10.914  1.00  0.00     0.199 C 
HETATM   37  C18 UNL     1       1.112  10.208 -11.641  1.00  0.00     0.262 C 
HETATM   38  O11 UNL     1       1.695   9.183 -10.807  1.00  0.00    -0.353 OA
BRANCH  35  39
HETATM   39  O13 UNL     1       0.722  11.750  -8.957  1.00  0.00    -0.286 OA
BRANCH  39  40
HETATM   40  P3  UNL     1      -0.049  12.326  -7.680  1.00  0.00     0.391 P 
HETATM   41  O14 UNL     1       0.147  13.792  -7.468  1.00  0.00    -0.632 OA
BRANCH  40  42
HETATM   42  O15 UNL     1       0.480  11.336  -6.540  1.00  0.00    -0.307 OA
HETATM   43  H36 UNL     1      -0.116  11.360  -5.754  1.00  0.00     0.222 HD
ENDBRANCH  40  42
BRANCH  40  44
HETATM   44  O16 UNL     1      -1.529  11.812  -7.948  1.00  0.00    -0.307 OA
HETATM   45  H37 UNL     1      -2.004  12.352  -8.599  1.00  0.00     0.222 HD
ENDBRANCH  40  44
ENDBRANCH  39  40
ENDBRANCH  35  39
BRANCH  36  46
HETATM   46  O12 UNL     1      -0.720  11.894 -11.193  1.00  0.00    -0.388 OA
HETATM   47  H35 UNL     1      -1.670  11.859 -10.928  1.00  0.00     0.210 HD
ENDBRANCH  36  46
BRANCH  37  48
HETATM   48  N3  UNL     1       0.862   9.653 -12.956  1.00  0.00    -0.297 N 
HETATM   49  C19 UNL     1       1.787   9.400 -13.942  1.00  0.00     0.188 A 
HETATM   50  N4  UNL     1       1.260   8.776 -14.972  1.00  0.00    -0.346 N 
HETATM   51  C20 UNL     1      -0.072   8.611 -14.636  1.00  0.00     0.116 A 
HETATM   52  H4  UNL     1       1.728   8.478 -15.828  1.00  0.00     0.167 HD
HETATM   53  C21 UNL     1      -1.150   7.988 -15.289  1.00  0.00     0.109 A 
HETATM   54  C23 UNL     1      -0.341   9.185 -13.407  1.00  0.00     0.142 A 
HETATM   55  N5  UNL     1      -2.367   8.003 -14.693  1.00  0.00    -0.341 N 
HETATM   56  C22 UNL     1      -2.486   8.622 -13.501  1.00  0.00     0.183 A 
HETATM   57  H5  UNL     1      -3.171   7.558 -15.134  1.00  0.00     0.167 HD
HETATM   58  N6  UNL     1      -1.529   9.242 -12.780  1.00  0.00    -0.336 N 
HETATM   59  H6  UNL     1      -1.686   9.695 -11.879  1.00  0.00     0.168 HD
BRANCH  53  60
HETATM   60  N7  UNL     1      -1.036   7.363 -16.521  1.00  0.00    -0.287 NA
HETATM   61  H33 UNL     1      -0.118   7.450 -16.951  1.00  0.00     0.125 HD
HETATM   62  H34 UNL     1      -1.837   7.520 -17.118  1.00  0.00     0.125 HD
ENDBRANCH  53  60
ENDBRANCH  37  48
ENDBRANCH  33  34
ENDBRANCH  32  33
ENDBRANCH  28  32
ENDBRANCH  27  28
ENDBRANCH  23  27
ENDBRANCH  22  23
ENDBRANCH  21  22
ENDBRANCH  18  21
ENDBRANCH  17  18
BRANCH  17  63
HETATM   63  O17 UNL     1      -4.223  10.821  -7.050  1.00  0.00    -0.385 OA
HETATM   64  H38 UNL     1      -4.150  11.716  -6.679  1.00  0.00     0.210 HD
ENDBRANCH  17  63
ENDBRANCH  14  17
ENDBRANCH  12  13
ENDBRANCH  11  12
ENDBRANCH   8  11
ENDBRANCH   6   7
ENDBRANCH   5   6
ENDBRANCH   4   5
ENDBRANCH   2   4
TORSDOF 27
ENDMDL
MODEL 7
REMARK VINA RESULT:      -6.3      3.232      9.762
REMARK  27 active torsions:
REMARK  status: ('A' for Active; 'I' for Inactive)
REMARK    1  A    between atoms: C2_2  and  S1_4 
REMARK    2  A    between atoms: S1_4  and  C3_5 
REMARK    3  A    between atoms: C3_5  and  C4_6 
REMARK    4  A    between atoms: C4_6  and  N1_7 
REMARK       I    between atoms: N1_7  and  C5_8 
REMARK    5  A    between atoms: C5_8  and  C6_10 
REMARK    6  A    between atoms: C6_10  and  C7_11 
REMARK    7  A    between atoms: C7_11  and  N2_12 
REMARK       I    between atoms: N2_12  and  C8_13 
REMARK    8  A    between atoms: C8_13  and  C9_15 
REMARK    9  A    between atoms: C9_15  and  C10_16 
REMARK   10  A    between atoms: C9_15  and  O17_54 
REMARK   11  A    between atoms: C10_16  and  C13_19 
REMARK   12  A    between atoms: C13_19  and  O4_20 
REMARK   13  A    between atoms: O4_20  and  P1_21 
REMARK   14  A    between atoms: P1_21  and  O6_23 
REMARK   15  A    between atoms: P1_21  and  O7_24 
REMARK   16  A    between atoms: O7_24  and  P2_25 
REMARK   17  A    between atoms: P2_25  and  O9_27 
REMARK   18  A    between atoms: P2_25  and  O10_28 
REMARK   19  A    between atoms: O10_28  and  C14_29 
REMARK   20  A    between atoms: C14_29  and  C15_30 
REMARK   21  A    between atoms: C16_31  and  O13_49 
REMARK   22  A    between atoms: C17_32  and  O12_48 
REMARK   23  A    between atoms: C18_33  and  N3_35 
REMARK   24  A    between atoms: C21_40  and  N7_47 
REMARK   25  A    between atoms: O13_49  and  P3_50 
REMARK   26  A    between atoms: P3_50  and  O15_52 
REMARK   27  A    between atoms: P3_50  and  O16_53 
ROOT
HETATM    1  C1  UNL     1       1.952  13.921 -12.420  1.00  0.00     0.104 C 
HETATM    2  C2  UNL     1       1.141  12.686 -12.171  1.00  0.00     0.182 C 
HETATM    3  O1  UNL     1       1.531  11.555 -12.452  1.00  0.00    -0.286 OA
ENDROOT
BRANCH   2   4
HETATM    4  S1  UNL     1      -0.445  12.989 -11.474  1.00  0.00    -0.091 SA
BRANCH   4   5
HETATM    5  C3  UNL     1      -0.057  14.398 -10.386  1.00  0.00     0.102 C 
BRANCH   5   6
HETATM    6  C4  UNL     1      -1.073  14.538  -9.251  1.00  0.00     0.133 C 
BRANCH   6   7
HETATM    7  N1  UNL     1      -0.512  14.217  -7.955  1.00  0.00    -0.360 N 
HETATM    8  C5  UNL     1      -1.274  13.665  -6.952  1.00  0.00     0.219 C 
HETATM    9  O2  UNL     1      -2.482  13.488  -7.063  1.00  0.00    -0.274 OA
HETATM   10  H8  UNL     1       0.470  14.399  -7.791  1.00  0.00     0.162 HD
BRANCH   8  11
HETATM   11  C6  UNL     1      -0.484  13.356  -5.699  1.00  0.00     0.122 C 
BRANCH  11  12
HETATM   12  C7  UNL     1       0.907  12.812  -6.021  1.00  0.00     0.132 C 
BRANCH  12  13
HETATM   13  N2  UNL     1       0.904  11.399  -6.337  1.00  0.00    -0.358 N 
HETATM   14  C8  UNL     1       1.260  10.966  -7.601  1.00  0.00     0.247 C 
HETATM   15  O3  UNL     1       1.471  11.747  -8.521  1.00  0.00    -0.271 OA
HETATM   16  H13 UNL     1       1.107  10.776  -5.558  1.00  0.00     0.162 HD
BRANCH  14  17
HETATM   17  C9  UNL     1       1.387   9.443  -7.749  1.00  0.00     0.219 C 
BRANCH  17  18
HETATM   18  C10 UNL     1       0.235   8.777  -8.547  1.00  0.00     0.009 C 
HETATM   19  C11 UNL     1      -0.190   9.618  -9.760  1.00  0.00     0.020 C 
HETATM   20  C12 UNL     1       0.636   7.378  -9.057  1.00  0.00     0.020 C 
BRANCH  18  21
HETATM   21  C13 UNL     1      -0.956   8.652  -7.555  1.00  0.00     0.192 C 
BRANCH  21  22
HETATM   22  O4  UNL     1      -2.196   8.952  -8.161  1.00  0.00    -0.296 OA
BRANCH  22  23
HETATM   23  P1  UNL     1      -3.222   7.822  -8.652  1.00  0.00     0.401 P 
HETATM   24  O5  UNL     1      -2.808   6.427  -8.303  1.00  0.00    -0.631 OA
BRANCH  23  25
HETATM   25  O6  UNL     1      -3.452   8.055 -10.228  1.00  0.00    -0.307 OA
HETATM   26  H23 UNL     1      -4.390   8.064 -10.460  1.00  0.00     0.222 HD
ENDBRANCH  23  25
BRANCH  23  27
HETATM   27  O7  UNL     1      -4.633   8.264  -8.065  1.00  0.00    -0.195 OA
BRANCH  27  28
HETATM   28  P2  UNL     1      -5.893   8.307  -9.039  1.00  0.00     0.401 P 
HETATM   29  O8  UNL     1      -6.056   7.164  -9.986  1.00  0.00    -0.631 OA
BRANCH  28  30
HETATM   30  O9  UNL     1      -7.122   8.505  -8.040  1.00  0.00    -0.307 OA
HETATM   31  H24 UNL     1      -7.845   7.840  -8.152  1.00  0.00     0.222 HD
ENDBRANCH  28  30
BRANCH  28  32
HETATM   32  O10 UNL     1      -5.818   9.758  -9.703  1.00  0.00    -0.294 OA
BRANCH  32  33
HETATM   33  C14 UNL     1      -6.428   9.994 -10.945  1.00  0.00     0.215 C 
BRANCH  33  34
HETATM   34  C15 UNL     1      -6.803  11.475 -10.961  1.00  0.00     0.180 C 
HETATM   35  C16 UNL     1      -7.577  11.825  -9.696  1.00  0.00     0.197 C 
HETATM   36  C17 UNL     1      -8.939  12.272 -10.191  1.00  0.00     0.199 C 
HETATM   37  C18 UNL     1      -8.626  12.753 -11.610  1.00  0.00     0.262 C 
HETATM   38  O11 UNL     1      -7.617  11.833 -12.083  1.00  0.00    -0.353 OA
BRANCH  35  39
HETATM   39  O13 UNL     1      -6.879  12.870  -9.027  1.00  0.00    -0.286 OA
BRANCH  39  40
HETATM   40  P3  UNL     1      -6.328  12.508  -7.571  1.00  0.00     0.391 P 
HETATM   41  O14 UNL     1      -6.432  13.632  -6.591  1.00  0.00    -0.632 OA
BRANCH  40  42
HETATM   42  O15 UNL     1      -4.864  11.972  -7.929  1.00  0.00    -0.307 OA
HETATM   43  H36 UNL     1      -4.174  12.498  -7.459  1.00  0.00     0.222 HD
ENDBRANCH  40  42
BRANCH  40  44
HETATM   44  O16 UNL     1      -7.133  11.175  -7.251  1.00  0.00    -0.307 OA
HETATM   45  H37 UNL     1      -8.029  11.347  -6.920  1.00  0.00     0.222 HD
ENDBRANCH  40  44
ENDBRANCH  39  40
ENDBRANCH  35  39
BRANCH  36  46
HETATM   46  O12 UNL     1      -9.508  13.222  -9.286  1.00  0.00    -0.388 OA
HETATM   47  H35 UNL     1      -9.248  14.114  -9.620  1.00  0.00     0.210 HD
ENDBRANCH  36  46
BRANCH  37  48
HETATM   48  N3  UNL     1      -9.776  12.677 -12.489  1.00  0.00    -0.297 N 
HETATM   49  C19 UNL     1     -10.898  13.472 -12.461  1.00  0.00     0.188 A 
HETATM   50  N4  UNL     1     -11.703  13.234 -13.472  1.00  0.00    -0.346 N 
HETATM   51  C20 UNL     1     -11.070  12.238 -14.195  1.00  0.00     0.116 A 
HETATM   52  H4  UNL     1     -12.596  13.682 -13.678  1.00  0.00     0.167 HD
HETATM   53  C21 UNL     1     -11.392  11.581 -15.396  1.00  0.00     0.109 A 
HETATM   54  C23 UNL     1      -9.894  11.857 -13.576  1.00  0.00     0.142 A 
HETATM   55  N5  UNL     1     -10.554  10.619 -15.853  1.00  0.00    -0.341 N 
HETATM   56  C22 UNL     1      -9.452  10.335 -15.130  1.00  0.00     0.183 A 
HETATM   57  H5  UNL     1     -10.752  10.123 -16.722  1.00  0.00     0.167 HD
HETATM   58  N6  UNL     1      -9.038  10.900 -13.978  1.00  0.00    -0.336 N 
HETATM   59  H6  UNL     1      -8.189  10.638 -13.477  1.00  0.00     0.168 HD
BRANCH  53  60
HETATM   60  N7  UNL     1     -12.530  11.859 -16.135  1.00  0.00    -0.287 NA
HETATM   61  H33 UNL     1     -13.072  12.648 -15.790  1.00  0.00     0.125 HD
HETATM   62  H34 UNL     1     -13.048  11.028 -16.390  1.00  0.00     0.125 HD
ENDBRANCH  53  60
ENDBRANCH  37  48
ENDBRANCH  33  34
ENDBRANCH  32  33
ENDBRANCH  28  32
ENDBRANCH  27  28
ENDBRANCH  23  27
ENDBRANCH  22  23
ENDBRANCH  21  22
ENDBRANCH  18  21
ENDBRANCH  17  18
BRANCH  17  63
HETATM   63  O17 UNL     1       2.628   9.110  -8.380  1.00  0.00    -0.385 OA
HETATM   64  H38 UNL     1       3.348   9.487  -7.846  1.00  0.00     0.210 HD
ENDBRANCH  17  63
ENDBRANCH  14  17
ENDBRANCH  12  13
ENDBRANCH  11  12
ENDBRANCH   8  11
ENDBRANCH   6   7
ENDBRANCH   5   6
ENDBRANCH   4   5
ENDBRANCH   2   4
TORSDOF 27
ENDMDL
MODEL 8
REMARK VINA RESULT:      -6.0      3.229      7.716
REMARK  27 active torsions:
REMARK  status: ('A' for Active; 'I' for Inactive)
REMARK    1  A    between atoms: C2_2  and  S1_4 
REMARK    2  A    between atoms: S1_4  and  C3_5 
REMARK    3  A    between atoms: C3_5  and  C4_6 
REMARK    4  A    between atoms: C4_6  and  N1_7 
REMARK       I    between atoms: N1_7  and  C5_8 
REMARK    5  A    between atoms: C5_8  and  C6_10 
REMARK    6  A    between atoms: C6_10  and  C7_11 
REMARK    7  A    between atoms: C7_11  and  N2_12 
REMARK       I    between atoms: N2_12  and  C8_13 
REMARK    8  A    between atoms: C8_13  and  C9_15 
REMARK    9  A    between atoms: C9_15  and  C10_16 
REMARK   10  A    between atoms: C9_15  and  O17_54 
REMARK   11  A    between atoms: C10_16  and  C13_19 
REMARK   12  A    between atoms: C13_19  and  O4_20 
REMARK   13  A    between atoms: O4_20  and  P1_21 
REMARK   14  A    between atoms: P1_21  and  O6_23 
REMARK   15  A    between atoms: P1_21  and  O7_24 
REMARK   16  A    between atoms: O7_24  and  P2_25 
REMARK   17  A    between atoms: P2_25  and  O9_27 
REMARK   18  A    between atoms: P2_25  and  O10_28 
REMARK   19  A    between atoms: O10_28  and  C14_29 
REMARK   20  A    between atoms: C14_29  and  C15_30 
REMARK   21  A    between atoms: C16_31  and  O13_49 
REMARK   22  A    between atoms: C17_32  and  O12_48 
REMARK   23  A    between atoms: C18_33  and  N3_35 
REMARK   24  A    between atoms: C21_40  and  N7_47 
REMARK   25  A    between atoms: O13_49  and  P3_50 
REMARK   26  A    between atoms: P3_50  and  O15_52 
REMARK   27  A    between atoms: P3_50  and  O16_53 
ROOT
HETATM    1  C1  UNL     1       1.404  14.050 -12.345  1.00  0.00     0.104 C 
HETATM    2  C2  UNL     1       0.194  13.305 -11.870  1.00  0.00     0.182 C 
HETATM    3  O1  UNL     1       0.237  12.156 -11.436  1.00  0.00    -0.286 OA
ENDROOT
BRANCH   2   4
HETATM    4  S1  UNL     1      -1.314  14.197 -12.022  1.00  0.00    -0.091 SA
BRANCH   4   5
HETATM    5  C3  UNL     1      -1.036  15.513 -10.793  1.00  0.00     0.102 C 
BRANCH   5   6
HETATM    6  C4  UNL     1      -2.256  15.720  -9.894  1.00  0.00     0.133 C 
BRANCH   6   7
HETATM    7  N1  UNL     1      -2.155  15.001  -8.640  1.00  0.00    -0.360 N 
HETATM    8  C5  UNL     1      -3.014  13.974  -8.323  1.00  0.00     0.219 C 
HETATM    9  O2  UNL     1      -3.959  13.660  -9.037  1.00  0.00    -0.274 OA
HETATM   10  H8  UNL     1      -1.427  15.261  -7.988  1.00  0.00     0.162 HD
BRANCH   8  11
HETATM   11  C6  UNL     1      -2.701  13.322  -6.993  1.00  0.00     0.122 C 
BRANCH  11  12
HETATM   12  C7  UNL     1      -1.733  14.160  -6.159  1.00  0.00     0.132 C 
BRANCH  12  13
HETATM   13  N2  UNL     1      -0.458  13.509  -5.944  1.00  0.00    -0.358 N 
HETATM   14  C8  UNL     1       0.681  13.985  -6.567  1.00  0.00     0.247 C 
HETATM   15  O3  UNL     1       0.642  14.882  -7.400  1.00  0.00    -0.271 OA
HETATM   16  H13 UNL     1      -0.341  13.064  -5.036  1.00  0.00     0.162 HD
BRANCH  14  17
HETATM   17  C9  UNL     1       1.988  13.317  -6.116  1.00  0.00     0.219 C 
BRANCH  17  18
HETATM   18  C10 UNL     1       2.475  12.169  -7.038  1.00  0.00     0.009 C 
HETATM   19  C11 UNL     1       2.562  12.605  -8.508  1.00  0.00     0.020 C 
HETATM   20  C12 UNL     1       3.864  11.652  -6.613  1.00  0.00     0.020 C 
BRANCH  18  21
HETATM   21  C13 UNL     1       1.424  11.031  -6.893  1.00  0.00     0.192 C 
BRANCH  21  22
HETATM   22  O4  UNL     1       0.767  10.745  -8.112  1.00  0.00    -0.296 OA
BRANCH  22  23
HETATM   23  P1  UNL     1       0.776   9.290  -8.785  1.00  0.00     0.401 P 
HETATM   24  O5  UNL     1       2.100   8.596  -8.725  1.00  0.00    -0.631 OA
BRANCH  23  25
HETATM   25  O6  UNL     1       0.201   9.465 -10.279  1.00  0.00    -0.307 OA
HETATM   26  H23 UNL     1       0.793   9.084 -10.940  1.00  0.00     0.222 HD
ENDBRANCH  23  25
BRANCH  23  27
HETATM   27  O7  UNL     1      -0.418   8.506  -8.084  1.00  0.00    -0.195 OA
BRANCH  27  28
HETATM   28  P2  UNL     1      -1.915   8.972  -8.366  1.00  0.00     0.401 P 
HETATM   29  O8  UNL     1      -2.923   8.693  -7.300  1.00  0.00    -0.631 OA
BRANCH  28  30
HETATM   30  O9  UNL     1      -1.756  10.520  -8.723  1.00  0.00    -0.307 OA
HETATM   31  H24 UNL     1      -2.306  11.122  -8.164  1.00  0.00     0.222 HD
ENDBRANCH  28  30
BRANCH  28  32
HETATM   32  O10 UNL     1      -2.242   8.371  -9.809  1.00  0.00    -0.294 OA
BRANCH  32  33
HETATM   33  C14 UNL     1      -3.365   7.548  -9.989  1.00  0.00     0.215 C 
BRANCH  33  34
HETATM   34  C15 UNL     1      -4.254   8.257 -11.009  1.00  0.00     0.180 C 
HETATM   35  C16 UNL     1      -3.500   9.427 -11.626  1.00  0.00     0.197 C 
HETATM   36  C17 UNL     1      -4.301  10.653 -11.232  1.00  0.00     0.199 C 
HETATM   37  C18 UNL     1      -5.701  10.070 -11.022  1.00  0.00     0.262 C 
HETATM   38  O11 UNL     1      -5.462   8.771 -10.435  1.00  0.00    -0.353 OA
BRANCH  35  39
HETATM   39  O13 UNL     1      -3.469   9.236 -13.037  1.00  0.00    -0.286 OA
BRANCH  39  40
HETATM   40  P3  UNL     1      -2.023   9.334 -13.714  1.00  0.00     0.391 P 
HETATM   41  O14 UNL     1      -1.611  10.729 -14.055  1.00  0.00    -0.632 OA
BRANCH  40  42
HETATM   42  O15 UNL     1      -2.186   8.293 -14.918  1.00  0.00    -0.307 OA
HETATM   43  H36 UNL     1      -1.732   7.443 -14.708  1.00  0.00     0.222 HD
ENDBRANCH  40  42
BRANCH  40  44
HETATM   44  O16 UNL     1      -1.131   8.537 -12.666  1.00  0.00    -0.307 OA
HETATM   45  H37 UNL     1      -1.587   8.381 -11.824  1.00  0.00     0.222 HD
ENDBRANCH  40  44
ENDBRANCH  39  40
ENDBRANCH  35  39
BRANCH  36  46
HETATM   46  O12 UNL     1      -4.158  11.677 -12.219  1.00  0.00    -0.388 OA
HETATM   47  H35 UNL     1      -4.476  11.290 -13.069  1.00  0.00     0.210 HD
ENDBRANCH  36  46
BRANCH  37  48
HETATM   48  N3  UNL     1      -6.500  10.857 -10.104  1.00  0.00    -0.297 N 
HETATM   49  C19 UNL     1      -7.738  11.407 -10.341  1.00  0.00     0.188 A 
HETATM   50  N4  UNL     1      -8.254  11.956  -9.263  1.00  0.00    -0.346 N 
HETATM   51  C20 UNL     1      -7.306  11.747  -8.277  1.00  0.00     0.116 A 
HETATM   52  H4  UNL     1      -9.152  12.430  -9.174  1.00  0.00     0.167 HD
HETATM   53  C21 UNL     1      -7.274  12.053  -6.906  1.00  0.00     0.109 A 
HETATM   54  C23 UNL     1      -6.197  11.102  -8.794  1.00  0.00     0.142 A 
HETATM   55  N5  UNL     1      -6.171  11.720  -6.191  1.00  0.00    -0.341 N 
HETATM   56  C22 UNL     1      -5.154  11.113  -6.835  1.00  0.00     0.183 A 
HETATM   57  H5  UNL     1      -6.113  11.923  -5.193  1.00  0.00     0.167 HD
HETATM   58  N6  UNL     1      -5.074  10.764  -8.135  1.00  0.00    -0.336 N 
HETATM   59  H6  UNL     1      -4.270  10.304  -8.562  1.00  0.00     0.168 HD
BRANCH  53  60
HETATM   60  N7  UNL     1      -8.311  12.690  -6.243  1.00  0.00    -0.287 NA
HETATM   61  H33 UNL     1      -8.552  12.275  -5.345  1.00  0.00     0.125 HD
HETATM   62  H34 UNL     1      -9.080  12.932  -6.853  1.00  0.00     0.125 HD
ENDBRANCH  53  60
ENDBRANCH  37  48
ENDBRANCH  33  34
ENDBRANCH  32  33
ENDBRANCH  28  32
ENDBRANCH  27  28
ENDBRANCH  23  27
ENDBRANCH  22  23
ENDBRANCH  21  22
ENDBRANCH  18  21
ENDBRANCH  17  18
BRANCH  17  63
HETATM   63  O17 UNL     1       3.032  14.293  -6.016  1.00  0.00    -0.385 OA
HETATM   64  H38 UNL     1       3.596  14.055  -5.262  1.00  0.00     0.210 HD
ENDBRANCH  17  63
ENDBRANCH  14  17
ENDBRANCH  12  13
ENDBRANCH  11  12
ENDBRANCH   8  11
ENDBRANCH   6   7
ENDBRANCH   5   6
ENDBRANCH   4   5
ENDBRANCH   2   4
TORSDOF 27
ENDMDL
MODEL 9
REMARK VINA RESULT:      -5.9      3.850      6.404
REMARK  27 active torsions:
REMARK  status: ('A' for Active; 'I' for Inactive)
REMARK    1  A    between atoms: C2_2  and  S1_4 
REMARK    2  A    between atoms: S1_4  and  C3_5 
REMARK    3  A    between atoms: C3_5  and  C4_6 
REMARK    4  A    between atoms: C4_6  and  N1_7 
REMARK       I    between atoms: N1_7  and  C5_8 
REMARK    5  A    between atoms: C5_8  and  C6_10 
REMARK    6  A    between atoms: C6_10  and  C7_11 
REMARK    7  A    between atoms: C7_11  and  N2_12 
REMARK       I    between atoms: N2_12  and  C8_13 
REMARK    8  A    between atoms: C8_13  and  C9_15 
REMARK    9  A    between atoms: C9_15  and  C10_16 
REMARK   10  A    between atoms: C9_15  and  O17_54 
REMARK   11  A    between atoms: C10_16  and  C13_19 
REMARK   12  A    between atoms: C13_19  and  O4_20 
REMARK   13  A    between atoms: O4_20  and  P1_21 
REMARK   14  A    between atoms: P1_21  and  O6_23 
REMARK   15  A    between atoms: P1_21  and  O7_24 
REMARK   16  A    between atoms: O7_24  and  P2_25 
REMARK   17  A    between atoms: P2_25  and  O9_27 
REMARK   18  A    between atoms: P2_25  and  O10_28 
REMARK   19  A    between atoms: O10_28  and  C14_29 
REMARK   20  A    between atoms: C14_29  and  C15_30 
REMARK   21  A    between atoms: C16_31  and  O13_49 
REMARK   22  A    between atoms: C17_32  and  O12_48 
REMARK   23  A    between atoms: C18_33  and  N3_35 
REMARK   24  A    between atoms: C21_40  and  N7_47 
REMARK   25  A    between atoms: O13_49  and  P3_50 
REMARK   26  A    between atoms: P3_50  and  O15_52 
REMARK   27  A    between atoms: P3_50  and  O16_53 
ROOT
HETATM    1  C1  UNL     1     -10.334  11.223 -18.990  1.00  0.00     0.104 C 
HETATM    2  C2  UNL     1     -10.613  10.467 -17.727  1.00  0.00     0.182 C 
HETATM    3  O1  UNL     1     -10.437   9.256 -17.613  1.00  0.00    -0.286 OA
ENDROOT
BRANCH   2   4
HETATM    4  S1  UNL     1     -11.257  11.451 -16.420  1.00  0.00    -0.091 SA
BRANCH   4   5
HETATM    5  C3  UNL     1     -10.451  13.043 -16.786  1.00  0.00     0.102 C 
BRANCH   5   6
HETATM    6  C4  UNL     1      -9.899  13.707 -15.523  1.00  0.00     0.133 C 
BRANCH   6   7
HETATM    7  N1  UNL     1     -10.264  12.998 -14.314  1.00  0.00    -0.360 N 
HETATM    8  C5  UNL     1     -10.905  13.628 -13.272  1.00  0.00     0.219 C 
HETATM    9  O2  UNL     1     -11.131  14.832 -13.267  1.00  0.00    -0.274 OA
HETATM   10  H8  UNL     1     -10.047  12.013 -14.243  1.00  0.00     0.162 HD
BRANCH   8  11
HETATM   11  C6  UNL     1     -11.246  12.697 -12.128  1.00  0.00     0.122 C 
BRANCH  11  12
HETATM   12  C7  UNL     1     -11.609  13.463 -10.857  1.00  0.00     0.132 C 
BRANCH  12  13
HETATM   13  N2  UNL     1     -10.514  14.257 -10.340  1.00  0.00    -0.358 N 
HETATM   14  C8  UNL     1      -9.670  13.736  -9.376  1.00  0.00     0.247 C 
HETATM   15  O3  UNL     1      -9.879  12.653  -8.844  1.00  0.00    -0.271 OA
HETATM   16  H13 UNL     1     -10.117  14.932 -10.990  1.00  0.00     0.162 HD
BRANCH  14  17
HETATM   17  C9  UNL     1      -8.451  14.610  -9.047  1.00  0.00     0.219 C 
BRANCH  17  18
HETATM   18  C10 UNL     1      -7.109  14.082  -9.617  1.00  0.00     0.009 C 
HETATM   19  C11 UNL     1      -7.305  13.288 -10.917  1.00  0.00     0.020 C 
HETATM   20  C12 UNL     1      -6.125  15.234  -9.907  1.00  0.00     0.020 C 
BRANCH  18  21
HETATM   21  C13 UNL     1      -6.517  13.151  -8.520  1.00  0.00     0.192 C 
BRANCH  21  22
HETATM   22  O4  UNL     1      -5.259  12.620  -8.886  1.00  0.00    -0.296 OA
BRANCH  22  23
HETATM   23  P1  UNL     1      -4.443  11.596  -7.960  1.00  0.00     0.401 P 
HETATM   24  O5  UNL     1      -5.215  11.087  -6.783  1.00  0.00    -0.631 OA
BRANCH  23  25
HETATM   25  O6  UNL     1      -3.062  12.324  -7.566  1.00  0.00    -0.307 OA
HETATM   26  H23 UNL     1      -2.465  11.732  -7.091  1.00  0.00     0.222 HD
ENDBRANCH  23  25
BRANCH  23  27
HETATM   27  O7  UNL     1      -3.925  10.467  -8.954  1.00  0.00    -0.195 OA
BRANCH  27  28
HETATM   28  P2  UNL     1      -3.708   8.990  -8.396  1.00  0.00     0.401 P 
HETATM   29  O8  UNL     1      -2.771   8.834  -7.243  1.00  0.00    -0.631 OA
BRANCH  28  30
HETATM   30  O9  UNL     1      -5.194   8.488  -8.100  1.00  0.00    -0.307 OA
HETATM   31  H24 UNL     1      -5.492   7.744  -8.679  1.00  0.00     0.222 HD
ENDBRANCH  28  30
BRANCH  28  32
HETATM   32  O10 UNL     1      -3.361   8.133  -9.698  1.00  0.00    -0.294 OA
BRANCH  32  33
HETATM   33  C14 UNL     1      -2.124   7.477  -9.798  1.00  0.00     0.215 C 
BRANCH  33  34
HETATM   34  C15 UNL     1      -1.453   8.024 -11.057  1.00  0.00     0.180 C 
HETATM   35  C16 UNL     1      -0.750   9.336 -10.737  1.00  0.00     0.197 C 
HETATM   36  C17 UNL     1      -1.450  10.368 -11.601  1.00  0.00     0.199 C 
HETATM   37  C18 UNL     1      -1.989   9.514 -12.751  1.00  0.00     0.262 C 
HETATM   38  O11 UNL     1      -2.378   8.273 -12.121  1.00  0.00    -0.353 OA
BRANCH  35  39
HETATM   39  O13 UNL     1       0.625   9.195 -11.079  1.00  0.00    -0.286 OA
BRANCH  39  40
HETATM   40  P3  UNL     1       1.664   9.561  -9.920  1.00  0.00     0.391 P 
HETATM   41  O14 UNL     1       2.213   8.369  -9.204  1.00  0.00    -0.632 OA
BRANCH  40  42
HETATM   42  O15 UNL     1       0.805  10.606  -9.067  1.00  0.00    -0.307 OA
HETATM   43  H36 UNL     1       1.275  11.472  -9.001  1.00  0.00     0.222 HD
ENDBRANCH  40  42
BRANCH  40  44
HETATM   44  O16 UNL     1       2.693  10.489 -10.700  1.00  0.00    -0.307 OA
HETATM   45  H37 UNL     1       3.605  10.160 -10.657  1.00  0.00     0.222 HD
ENDBRANCH  40  44
ENDBRANCH  39  40
ENDBRANCH  35  39
BRANCH  36  46
HETATM   46  O12 UNL     1      -0.550  11.427 -11.937  1.00  0.00    -0.388 OA
HETATM   47  H35 UNL     1       0.235  11.002 -12.358  1.00  0.00     0.210 HD
ENDBRANCH  36  46
BRANCH  37  48
HETATM   48  N3  UNL     1      -3.154  10.101 -13.382  1.00  0.00    -0.297 N 
HETATM   49  C19 UNL     1      -3.217  10.699 -14.619  1.00  0.00     0.188 A 
HETATM   50  N4  UNL     1      -4.447  11.019 -14.957  1.00  0.00    -0.346 N 
HETATM   51  C20 UNL     1      -5.221  10.603 -13.888  1.00  0.00     0.116 A 
HETATM   52  H4  UNL     1      -4.760  11.471 -15.815  1.00  0.00     0.167 HD
HETATM   53  C21 UNL     1      -6.607  10.620 -13.652  1.00  0.00     0.109 A 
HETATM   54  C23 UNL     1      -4.428  10.069 -12.889  1.00  0.00     0.142 A 
HETATM   55  N5  UNL     1      -7.070  10.138 -12.473  1.00  0.00    -0.341 N 
HETATM   56  C22 UNL     1      -6.176   9.669 -11.580  1.00  0.00     0.183 A 
HETATM   57  H5  UNL     1      -8.069  10.131 -12.267  1.00  0.00     0.167 HD
HETATM   58  N6  UNL     1      -4.834   9.594 -11.698  1.00  0.00    -0.336 N 
HETATM   59  H6  UNL     1      -4.210   9.225 -10.980  1.00  0.00     0.168 HD
BRANCH  53  60
HETATM   60  N7  UNL     1      -7.529  11.115 -14.560  1.00  0.00    -0.287 NA
HETATM   61  H33 UNL     1      -7.236  11.968 -15.032  1.00  0.00     0.125 HD
HETATM   62  H34 UNL     1      -8.478  11.090 -14.212  1.00  0.00     0.125 HD
ENDBRANCH  53  60
ENDBRANCH  37  48
ENDBRANCH  33  34
ENDBRANCH  32  33
ENDBRANCH  28  32
ENDBRANCH  27  28
ENDBRANCH  23  27
ENDBRANCH  22  23
ENDBRANCH  21  22
ENDBRANCH  18  21
ENDBRANCH  17  18
BRANCH  17  63
HETATM   63  O17 UNL     1      -8.656  15.943  -9.528  1.00  0.00    -0.385 OA
HETATM   64  H38 UNL     1      -9.406  15.929 -10.146  1.00  0.00     0.210 HD
ENDBRANCH  17  63
ENDBRANCH  14  17
ENDBRANCH  12  13
ENDBRANCH  11  12
ENDBRANCH   8  11
ENDBRANCH   6   7
ENDBRANCH   5   6
ENDBRANCH   4   5
ENDBRANCH   2   4
TORSDOF 27
ENDMDL
