MODEL 1
REMARK VINA RESULT:      -3.8      0.000      0.000
REMARK  2 active torsions:
REMARK  status: ('A' for Active; 'I' for Inactive)
REMARK    1  A    between atoms: C3_3  and  O1_8 
REMARK    2  A    between atoms: C6_6  and  N1_7 
ROOT
HETATM    1  C1  UNL     1      14.938   0.659  -2.858  1.00  0.00     0.026 A 
HETATM    2  C2  UNL     1      13.724   1.349  -2.883  1.00  0.00     0.038 A 
HETATM    3  C3  UNL     1      13.514   2.336  -3.835  1.00  0.00     0.065 A 
HETATM    4  C4  UNL     1      14.495   2.634  -4.774  1.00  0.00     0.038 A 
HETATM    5  C5  UNL     1      15.708   1.940  -4.742  1.00  0.00     0.026 A 
HETATM    6  C6  UNL     1      15.961   0.983  -3.754  1.00  0.00     0.005 A 
ENDROOT
BRANCH   6   7
HETATM    7  N1  UNL     1      17.128   0.212  -3.802  1.00  0.00    -0.303 NA
HETATM    8  H5  UNL     1      17.932   0.662  -3.375  1.00  0.00     0.124 HD
HETATM    9  H6  UNL     1      17.337  -0.159  -4.723  1.00  0.00     0.124 HD
ENDBRANCH   6   7
BRANCH   3  10
HETATM   10  O1  UNL     1      12.315   2.984  -3.829  1.00  0.00    -0.361 OA
HETATM   11  H7  UNL     1      12.355   3.716  -4.465  1.00  0.00     0.217 HD
ENDBRANCH   3  10
TORSDOF 2
ENDMDL
MODEL 2
REMARK VINA RESULT:      -3.7      2.419      3.188
REMARK  2 active torsions:
REMARK  status: ('A' for Active; 'I' for Inactive)
REMARK    1  A    between atoms: C3_3  and  O1_8 
REMARK    2  A    between atoms: C6_6  and  N1_7 
ROOT
HETATM    1  C1  UNL     1      15.724   1.710  -4.546  1.00  0.00     0.026 A 
HETATM    2  C2  UNL     1      16.077   1.002  -3.395  1.00  0.00     0.038 A 
HETATM    3  C3  UNL     1      15.162   0.871  -2.360  1.00  0.00     0.065 A 
HETATM    4  C4  UNL     1      13.890   1.424  -2.465  1.00  0.00     0.038 A 
HETATM    5  C5  UNL     1      13.544   2.133  -3.620  1.00  0.00     0.026 A 
HETATM    6  C6  UNL     1      14.472   2.326  -4.648  1.00  0.00     0.005 A 
ENDROOT
BRANCH   6   7
HETATM    7  N1  UNL     1      14.080   2.932  -5.847  1.00  0.00    -0.303 NA
HETATM    8  H5  UNL     1      14.532   2.542  -6.668  1.00  0.00     0.124 HD
HETATM    9  H6  UNL     1      14.122   3.945  -5.827  1.00  0.00     0.124 HD
ENDBRANCH   6   7
BRANCH   3  10
HETATM   10  O1  UNL     1      15.543   0.170  -1.256  1.00  0.00    -0.361 OA
HETATM   11  H7  UNL     1      16.502   0.271  -1.141  1.00  0.00     0.217 HD
ENDBRANCH   3  10
TORSDOF 2
ENDMDL
MODEL 3
REMARK VINA RESULT:      -3.7      1.474      1.916
REMARK  2 active torsions:
REMARK  status: ('A' for Active; 'I' for Inactive)
REMARK    1  A    between atoms: C3_3  and  O1_8 
REMARK    2  A    between atoms: C6_6  and  N1_7 
ROOT
HETATM    1  C1  UNL     1      13.655   1.423  -2.542  1.00  0.00     0.026 A 
HETATM    2  C2  UNL     1      13.360   2.194  -3.669  1.00  0.00     0.038 A 
HETATM    3  C3  UNL     1      14.319   2.360  -4.658  1.00  0.00     0.065 A 
HETATM    4  C4  UNL     1      15.565   1.752  -4.546  1.00  0.00     0.038 A 
HETATM    5  C5  UNL     1      15.853   0.983  -3.415  1.00  0.00     0.026 A 
HETATM    6  C6  UNL     1      14.921   0.852  -2.380  1.00  0.00     0.005 A 
ENDROOT
BRANCH   6   7
HETATM    7  N1  UNL     1      15.173  -0.015  -1.311  1.00  0.00    -0.303 NA
HETATM    8  H5  UNL     1      15.031  -0.994  -1.538  1.00  0.00     0.124 HD
HETATM    9  H6  UNL     1      14.710   0.253  -0.448  1.00  0.00     0.124 HD
ENDBRANCH   6   7
BRANCH   3  10
HETATM   10  O1  UNL     1      13.992   3.117  -5.743  1.00  0.00    -0.361 OA
HETATM   11  H7  UNL     1      13.311   2.650  -6.253  1.00  0.00     0.217 HD
ENDBRANCH   3  10
TORSDOF 2
ENDMDL
MODEL 4
REMARK VINA RESULT:      -3.6      2.436      2.959
REMARK  2 active torsions:
REMARK  status: ('A' for Active; 'I' for Inactive)
REMARK    1  A    between atoms: C3_3  and  O1_8 
REMARK    2  A    between atoms: C6_6  and  N1_7 
ROOT
HETATM    1  C1  UNL     1      13.608   2.096  -3.581  1.00  0.00     0.026 A 
HETATM    2  C2  UNL     1      14.016   1.453  -2.410  1.00  0.00     0.038 A 
HETATM    3  C3  UNL     1      15.301   0.936  -2.322  1.00  0.00     0.065 A 
HETATM    4  C4  UNL     1      16.191   1.067  -3.381  1.00  0.00     0.038 A 
HETATM    5  C5  UNL     1      15.775   1.711  -4.550  1.00  0.00     0.026 A 
HETATM    6  C6  UNL     1      14.467   2.187  -4.681  1.00  0.00     0.005 A 
ENDROOT
BRANCH   6   7
HETATM    7  N1  UNL     1      14.097   2.934  -5.805  1.00  0.00    -0.303 NA
HETATM    8  H5  UNL     1      14.358   2.501  -6.686  1.00  0.00     0.124 HD
HETATM    9  H6  UNL     1      14.370   3.909  -5.757  1.00  0.00     0.124 HD
ENDBRANCH   6   7
BRANCH   3  10
HETATM   10  O1  UNL     1      15.661   0.318  -1.162  1.00  0.00    -0.361 OA
HETATM   11  H7  UNL     1      14.925  -0.242  -0.867  1.00  0.00     0.217 HD
ENDBRANCH   3  10
TORSDOF 2
ENDMDL
MODEL 5
REMARK VINA RESULT:      -3.6      2.952      3.373
REMARK  2 active torsions:
REMARK  status: ('A' for Active; 'I' for Inactive)
REMARK    1  A    between atoms: C3_3  and  O1_8 
REMARK    2  A    between atoms: C6_6  and  N1_7 
ROOT
HETATM    1  C1  UNL     1      16.064   4.000  -2.935  1.00  0.00     0.026 A 
HETATM    2  C2  UNL     1      15.322   2.929  -3.436  1.00  0.00     0.038 A 
HETATM    3  C3  UNL     1      15.862   2.122  -4.428  1.00  0.00     0.065 A 
HETATM    4  C4  UNL     1      17.142   2.362  -4.916  1.00  0.00     0.038 A 
HETATM    5  C5  UNL     1      17.879   3.437  -4.410  1.00  0.00     0.026 A 
HETATM    6  C6  UNL     1      17.329   4.295  -3.453  1.00  0.00     0.005 A 
ENDROOT
BRANCH   6   7
HETATM    7  N1  UNL     1      18.115   5.294  -2.867  1.00  0.00    -0.303 NA
HETATM    8  H5  UNL     1      19.112   5.102  -2.902  1.00  0.00     0.124 HD
HETATM    9  H6  UNL     1      17.807   5.569  -1.941  1.00  0.00     0.124 HD
ENDBRANCH   6   7
BRANCH   3  10
HETATM   10  O1  UNL     1      15.108   1.086  -4.890  1.00  0.00    -0.361 OA
HETATM   11  H7  UNL     1      14.369   1.446  -5.406  1.00  0.00     0.217 HD
ENDBRANCH   3  10
TORSDOF 2
ENDMDL
MODEL 6
REMARK VINA RESULT:      -3.5      2.993      3.348
REMARK  2 active torsions:
REMARK  status: ('A' for Active; 'I' for Inactive)
REMARK    1  A    between atoms: C3_3  and  O1_8 
REMARK    2  A    between atoms: C6_6  and  N1_7 
ROOT
HETATM    1  C1  UNL     1      15.372   2.736  -3.085  1.00  0.00     0.026 A 
HETATM    2  C2  UNL     1      16.061   3.890  -2.704  1.00  0.00     0.038 A 
HETATM    3  C3  UNL     1      17.177   4.294  -3.421  1.00  0.00     0.065 A 
HETATM    4  C4  UNL     1      17.608   3.570  -4.528  1.00  0.00     0.038 A 
HETATM    5  C5  UNL     1      16.915   2.415  -4.903  1.00  0.00     0.026 A 
HETATM    6  C6  UNL     1      15.823   1.959  -4.157  1.00  0.00     0.005 A 
ENDROOT
BRANCH   6   7
HETATM    7  N1  UNL     1      15.065   0.873  -4.609  1.00  0.00    -0.303 NA
HETATM    8  H5  UNL     1      14.096   0.899  -4.309  1.00  0.00     0.124 HD
HETATM    9  H6  UNL     1      15.498  -0.029  -4.438  1.00  0.00     0.124 HD
ENDBRANCH   6   7
BRANCH   3  10
HETATM   10  O1  UNL     1      17.819   5.426  -3.019  1.00  0.00    -0.361 OA
HETATM   11  H7  UNL     1      17.814   5.458  -2.049  1.00  0.00     0.217 HD
ENDBRANCH   3  10
TORSDOF 2
ENDMDL
MODEL 7
REMARK VINA RESULT:      -3.4      1.734      2.391
REMARK  2 active torsions:
REMARK  status: ('A' for Active; 'I' for Inactive)
REMARK    1  A    between atoms: C3_3  and  O1_8 
REMARK    2  A    between atoms: C6_6  and  N1_7 
ROOT
HETATM    1  C1  UNL     1      14.275   2.821  -4.152  1.00  0.00     0.026 A 
HETATM    2  C2  UNL     1      13.366   2.005  -3.475  1.00  0.00     0.038 A 
HETATM    3  C3  UNL     1      13.788   0.790  -2.953  1.00  0.00     0.065 A 
HETATM    4  C4  UNL     1      15.112   0.385  -3.084  1.00  0.00     0.038 A 
HETATM    5  C5  UNL     1      16.016   1.207  -3.764  1.00  0.00     0.026 A 
HETATM    6  C6  UNL     1      15.596   2.407  -4.347  1.00  0.00     0.005 A 
ENDROOT
BRANCH   6   7
HETATM    7  N1  UNL     1      16.531   3.276  -4.921  1.00  0.00    -0.303 NA
HETATM    8  H5  UNL     1      16.120   4.126  -5.297  1.00  0.00     0.124 HD
HETATM    9  H6  UNL     1      17.160   2.828  -5.578  1.00  0.00     0.124 HD
ENDBRANCH   6   7
BRANCH   3  10
HETATM   10  O1  UNL     1      12.872   0.024  -2.297  1.00  0.00    -0.361 OA
HETATM   11  H7  UNL     1      13.264  -0.283  -1.464  1.00  0.00     0.217 HD
ENDBRANCH   3  10
TORSDOF 2
ENDMDL
MODEL 8
REMARK VINA RESULT:      -3.4      2.248      2.792
REMARK  2 active torsions:
REMARK  status: ('A' for Active; 'I' for Inactive)
REMARK    1  A    between atoms: C3_3  and  O1_8 
REMARK    2  A    between atoms: C6_6  and  N1_7 
ROOT
HETATM    1  C1  UNL     1      15.139   0.422  -3.091  1.00  0.00     0.026 A 
HETATM    2  C2  UNL     1      16.008   1.247  -3.808  1.00  0.00     0.038 A 
HETATM    3  C3  UNL     1      15.539   2.434  -4.352  1.00  0.00     0.065 A 
HETATM    4  C4  UNL     1      14.214   2.819  -4.174  1.00  0.00     0.038 A 
HETATM    5  C5  UNL     1      13.350   1.987  -3.456  1.00  0.00     0.026 A 
HETATM    6  C6  UNL     1      13.789   0.759  -2.952  1.00  0.00     0.005 A 
ENDROOT
BRANCH   6   7
HETATM    7  N1  UNL     1      12.951  -0.008  -2.135  1.00  0.00    -0.303 NA
HETATM    8  H5  UNL     1      12.991  -1.003  -2.330  1.00  0.00     0.124 HD
HETATM    9  H6  UNL     1      11.999   0.338  -2.084  1.00  0.00     0.124 HD
ENDBRANCH   6   7
BRANCH   3  10
HETATM   10  O1  UNL     1      16.419   3.212  -5.042  1.00  0.00    -0.361 OA
HETATM   11  H7  UNL     1      15.957   4.011  -5.342  1.00  0.00     0.217 HD
ENDBRANCH   3  10
TORSDOF 2
ENDMDL
MODEL 9
REMARK VINA RESULT:      -3.4      1.750      2.235
REMARK  2 active torsions:
REMARK  status: ('A' for Active; 'I' for Inactive)
REMARK    1  A    between atoms: C3_3  and  O1_8 
REMARK    2  A    between atoms: C6_6  and  N1_7 
ROOT
HETATM    1  C1  UNL     1      15.995   1.209  -3.728  1.00  0.00     0.026 A 
HETATM    2  C2  UNL     1      15.066   0.378  -3.098  1.00  0.00     0.038 A 
HETATM    3  C3  UNL     1      13.749   0.796  -2.964  1.00  0.00     0.065 A 
HETATM    4  C4  UNL     1      13.343   2.028  -3.465  1.00  0.00     0.038 A 
HETATM    5  C5  UNL     1      14.279   2.855  -4.093  1.00  0.00     0.026 A 
HETATM    6  C6  UNL     1      15.622   2.477  -4.186  1.00  0.00     0.005 A 
ENDROOT
BRANCH   6   7
HETATM    7  N1  UNL     1      16.524   3.255  -4.919  1.00  0.00    -0.303 NA
HETATM    8  H5  UNL     1      16.387   4.255  -4.805  1.00  0.00     0.124 HD
HETATM    9  H6  UNL     1      16.602   2.985  -5.894  1.00  0.00     0.124 HD
ENDBRANCH   6   7
BRANCH   3  10
HETATM   10  O1  UNL     1      12.873  -0.044  -2.346  1.00  0.00    -0.361 OA
HETATM   11  H7  UNL     1      13.172  -0.958  -2.481  1.00  0.00     0.217 HD
ENDBRANCH   3  10
TORSDOF 2
ENDMDL
