MODEL 1
REMARK VINA RESULT:      -4.6      0.000      0.000
REMARK  2 active torsions:
REMARK  status: ('A' for Active; 'I' for Inactive)
REMARK    1  A    between atoms: C3_3  and  O1_10 
REMARK    2  A    between atoms: C6_6  and  N1_7 
ROOT
HETATM    1  C1  PAP L   1      -7.949   5.872  13.871  1.00  0.00     0.026 A 
HETATM    2  C2  PAP L   1      -8.192   7.108  13.267  1.00  0.00     0.038 A 
HETATM    3  C3  PAP L   1      -7.669   7.373  12.009  1.00  0.00     0.065 A 
HETATM    4  C4  PAP L   1      -6.919   6.413  11.337  1.00  0.00     0.038 A 
HETATM    5  C5  PAP L   1      -6.680   5.179  11.948  1.00  0.00     0.026 A 
HETATM    6  C6  PAP L   1      -7.149   4.915  13.240  1.00  0.00     0.005 A 
ENDROOT
BRANCH   6   7
HETATM    7  N1  PAP L   1      -7.007   3.638  13.793  1.00  0.00    -0.303 NA
HETATM    8  H5  PAP L   1      -7.011   2.892  13.105  1.00  0.00     0.124 HD
HETATM    9  H6  PAP L   1      -7.639   3.453  14.566  1.00  0.00     0.124 HD
ENDBRANCH   6   7
BRANCH   3  10
HETATM   10  O1  PAP L   1      -7.929   8.589  11.453  1.00  0.00    -0.361 OA
HETATM   11  H7  PAP L   1      -8.409   9.130  12.100  1.00  0.00     0.217 HD
ENDBRANCH   3  10
TORSDOF 2
ENDMDL
MODEL 2
REMARK VINA RESULT:      -4.6      2.785      3.686
REMARK  2 active torsions:
REMARK  status: ('A' for Active; 'I' for Inactive)
REMARK    1  A    between atoms: C3_3  and  O1_10 
REMARK    2  A    between atoms: C6_6  and  N1_7 
ROOT
HETATM    1  C1  PAP L   1      -6.859   6.257  11.493  1.00  0.00     0.026 A 
HETATM    2  C2  PAP L   1      -6.662   4.998  12.066  1.00  0.00     0.038 A 
HETATM    3  C3  PAP L   1      -7.217   4.712  13.306  1.00  0.00     0.065 A 
HETATM    4  C4  PAP L   1      -7.982   5.661  13.975  1.00  0.00     0.038 A 
HETATM    5  C5  PAP L   1      -8.174   6.919  13.396  1.00  0.00     0.026 A 
HETATM    6  C6  PAP L   1      -7.573   7.246  12.175  1.00  0.00     0.005 A 
ENDROOT
BRANCH   6   7
HETATM    7  N1  PAP L   1      -7.869   8.462  11.548  1.00  0.00    -0.303 NA
HETATM    8  H5  PAP L   1      -8.739   8.880  11.859  1.00  0.00     0.124 HD
HETATM    9  H6  PAP L   1      -7.796   8.430  10.536  1.00  0.00     0.124 HD
ENDBRANCH   6   7
BRANCH   3  10
HETATM   10  O1  PAP L   1      -7.004   3.473  13.830  1.00  0.00    -0.361 OA
HETATM   11  H7  PAP L   1      -6.754   2.871  13.112  1.00  0.00     0.217 HD
ENDBRANCH   3  10
TORSDOF 2
ENDMDL
MODEL 3
REMARK VINA RESULT:      -4.5      0.072      1.705
REMARK  2 active torsions:
REMARK  status: ('A' for Active; 'I' for Inactive)
REMARK    1  A    between atoms: C3_3  and  O1_10 
REMARK    2  A    between atoms: C6_6  and  N1_7 
ROOT
HETATM    1  C1  PAP L   1      -6.675   5.205  11.962  1.00  0.00     0.026 A 
HETATM    2  C2  PAP L   1      -6.919   6.455  11.386  1.00  0.00     0.038 A 
HETATM    3  C3  PAP L   1      -7.697   7.384  12.062  1.00  0.00     0.065 A 
HETATM    4  C4  PAP L   1      -8.224   7.090  13.315  1.00  0.00     0.038 A 
HETATM    5  C5  PAP L   1      -7.977   5.837  13.885  1.00  0.00     0.026 A 
HETATM    6  C6  PAP L   1      -7.244   4.866  13.193  1.00  0.00     0.005 A 
ENDROOT
BRANCH   6   7
HETATM    7  N1  PAP L   1      -6.902   3.662  13.820  1.00  0.00    -0.303 NA
HETATM    8  H5  PAP L   1      -7.392   2.855  13.448  1.00  0.00     0.124 HD
HETATM    9  H6  PAP L   1      -6.939   3.703  14.834  1.00  0.00     0.124 HD
ENDBRANCH   6   7
BRANCH   3  10
HETATM   10  O1  PAP L   1      -7.909   8.592  11.468  1.00  0.00    -0.361 OA
HETATM   11  H7  PAP L   1      -8.859   8.687  11.291  1.00  0.00     0.217 HD
ENDBRANCH   3  10
TORSDOF 2
ENDMDL
MODEL 4
REMARK VINA RESULT:      -4.5      2.620      3.098
REMARK  2 active torsions:
REMARK  status: ('A' for Active; 'I' for Inactive)
REMARK    1  A    between atoms: C3_3  and  O1_10 
REMARK    2  A    between atoms: C6_6  and  N1_7 
ROOT
HETATM    1  C1  PAP L   1      -7.150   7.487  12.263  1.00  0.00     0.026 A 
HETATM    2  C2  PAP L   1      -7.821   6.780  13.265  1.00  0.00     0.038 A 
HETATM    3  C3  PAP L   1      -7.603   5.417  13.407  1.00  0.00     0.065 A 
HETATM    4  C4  PAP L   1      -6.712   4.751  12.573  1.00  0.00     0.038 A 
HETATM    5  C5  PAP L   1      -6.045   5.465  11.573  1.00  0.00     0.026 A 
HETATM    6  C6  PAP L   1      -6.295   6.827  11.376  1.00  0.00     0.005 A 
ENDROOT
BRANCH   6   7
HETATM    7  N1  PAP L   1      -5.536   7.556  10.453  1.00  0.00    -0.303 NA
HETATM    8  H5  PAP L   1      -5.557   8.559  10.610  1.00  0.00     0.124 HD
HETATM    9  H6  PAP L   1      -5.721   7.313   9.486  1.00  0.00     0.124 HD
ENDBRANCH   6   7
BRANCH   3  10
HETATM   10  O1  PAP L   1      -8.274   4.763  14.396  1.00  0.00    -0.361 OA
HETATM   11  H7  PAP L   1      -7.771   4.849  15.221  1.00  0.00     0.217 HD
ENDBRANCH   3  10
TORSDOF 2
ENDMDL
MODEL 5
REMARK VINA RESULT:      -4.4      2.621      3.407
REMARK  2 active torsions:
REMARK  status: ('A' for Active; 'I' for Inactive)
REMARK    1  A    between atoms: C3_3  and  O1_10 
REMARK    2  A    between atoms: C6_6  and  N1_7 
ROOT
HETATM    1  C1  PAP L   1      -6.058   5.449  11.666  1.00  0.00     0.026 A 
HETATM    2  C2  PAP L   1      -6.756   4.744  12.650  1.00  0.00     0.038 A 
HETATM    3  C3  PAP L   1      -7.648   5.415  13.474  1.00  0.00     0.065 A 
HETATM    4  C4  PAP L   1      -7.866   6.780  13.320  1.00  0.00     0.038 A 
HETATM    5  C5  PAP L   1      -7.163   7.479  12.334  1.00  0.00     0.026 A 
HETATM    6  C6  PAP L   1      -6.217   6.832  11.533  1.00  0.00     0.005 A 
ENDROOT
BRANCH   6   7
HETATM    7  N1  PAP L   1      -5.608   7.512  10.472  1.00  0.00    -0.303 NA
HETATM    8  H5  PAP L   1      -6.053   8.396  10.245  1.00  0.00     0.124 HD
HETATM    9  H6  PAP L   1      -5.452   6.937   9.651  1.00  0.00     0.124 HD
ENDBRANCH   6   7
BRANCH   3  10
HETATM   10  O1  PAP L   1      -8.311   4.693  14.420  1.00  0.00    -0.361 OA
HETATM   11  H7  PAP L   1      -8.050   5.016  15.297  1.00  0.00     0.217 HD
ENDBRANCH   3  10
TORSDOF 2
ENDMDL
MODEL 6
REMARK VINA RESULT:      -4.1      1.659      2.364
REMARK  2 active torsions:
REMARK  status: ('A' for Active; 'I' for Inactive)
REMARK    1  A    between atoms: C3_3  and  O1_10 
REMARK    2  A    between atoms: C6_6  and  N1_7 
ROOT
HETATM    1  C1  PAP L   1      -7.073   5.585  13.225  1.00  0.00     0.026 A 
HETATM    2  C2  PAP L   1      -6.173   6.143  12.313  1.00  0.00     0.038 A 
HETATM    3  C3  PAP L   1      -6.285   7.482  11.967  1.00  0.00     0.065 A 
HETATM    4  C4  PAP L   1      -7.275   8.279  12.532  1.00  0.00     0.038 A 
HETATM    5  C5  PAP L   1      -8.173   7.714  13.443  1.00  0.00     0.026 A 
HETATM    6  C6  PAP L   1      -8.113   6.352  13.759  1.00  0.00     0.005 A 
ENDROOT
BRANCH   6   7
HETATM    7  N1  PAP L   1      -8.937   5.824  14.759  1.00  0.00    -0.303 NA
HETATM    8  H5  PAP L   1      -8.973   4.810  14.764  1.00  0.00     0.124 HD
HETATM    9  H6  PAP L   1      -9.860   6.243  14.793  1.00  0.00     0.124 HD
ENDBRANCH   6   7
BRANCH   3  10
HETATM   10  O1  PAP L   1      -5.387   7.989  11.077  1.00  0.00    -0.361 OA
HETATM   11  H7  PAP L   1      -5.291   8.941  11.241  1.00  0.00     0.217 HD
ENDBRANCH   3  10
TORSDOF 2
ENDMDL
MODEL 7
REMARK VINA RESULT:      -4.1      1.797      2.293
REMARK  2 active torsions:
REMARK  status: ('A' for Active; 'I' for Inactive)
REMARK    1  A    between atoms: C3_3  and  O1_10 
REMARK    2  A    between atoms: C6_6  and  N1_7 
ROOT
HETATM    1  C1  PAP L   1      -7.784   7.209  12.672  1.00  0.00     0.026 A 
HETATM    2  C2  PAP L   1      -6.890   7.266  11.599  1.00  0.00     0.038 A 
HETATM    3  C3  PAP L   1      -6.097   6.165  11.305  1.00  0.00     0.065 A 
HETATM    4  C4  PAP L   1      -6.196   5.000  12.057  1.00  0.00     0.038 A 
HETATM    5  C5  PAP L   1      -7.092   4.950  13.129  1.00  0.00     0.026 A 
HETATM    6  C6  PAP L   1      -7.856   6.069  13.478  1.00  0.00     0.005 A 
ENDROOT
BRANCH   6   7
HETATM    7  N1  PAP L   1      -8.834   5.971  14.475  1.00  0.00    -0.303 NA
HETATM    8  H5  PAP L   1      -9.781   6.088  14.130  1.00  0.00     0.124 HD
HETATM    9  H6  PAP L   1      -8.647   6.545  15.291  1.00  0.00     0.124 HD
ENDBRANCH   6   7
BRANCH   3  10
HETATM   10  O1  PAP L   1      -5.240   6.260  10.250  1.00  0.00    -0.361 OA
HETATM   11  H7  PAP L   1      -4.735   5.433  10.186  1.00  0.00     0.217 HD
ENDBRANCH   3  10
TORSDOF 2
ENDMDL
MODEL 8
REMARK VINA RESULT:      -4.1      2.645      3.158
REMARK  2 active torsions:
REMARK  status: ('A' for Active; 'I' for Inactive)
REMARK    1  A    between atoms: C3_3  and  O1_10 
REMARK    2  A    between atoms: C6_6  and  N1_7 
ROOT
HETATM    1  C1  PAP L   1      -7.497   7.035  14.209  1.00  0.00     0.026 A 
HETATM    2  C2  PAP L   1      -7.108   5.896  13.498  1.00  0.00     0.038 A 
HETATM    3  C3  PAP L   1      -7.036   5.941  12.113  1.00  0.00     0.065 A 
HETATM    4  C4  PAP L   1      -7.332   7.113  11.426  1.00  0.00     0.038 A 
HETATM    5  C5  PAP L   1      -7.721   8.249  12.144  1.00  0.00     0.026 A 
HETATM    6  C6  PAP L   1      -7.856   8.206  13.535  1.00  0.00     0.005 A 
ENDROOT
BRANCH   6   7
HETATM    7  N1  PAP L   1      -8.130   9.376  14.253  1.00  0.00    -0.303 NA
HETATM    8  H5  PAP L   1      -8.220  10.201  13.669  1.00  0.00     0.124 HD
HETATM    9  H6  PAP L   1      -7.509   9.528  15.041  1.00  0.00     0.124 HD
ENDBRANCH   6   7
BRANCH   3  10
HETATM   10  O1  PAP L   1      -6.651   4.811  11.457  1.00  0.00    -0.361 OA
HETATM   11  H7  PAP L   1      -5.839   4.475  11.869  1.00  0.00     0.217 HD
ENDBRANCH   3  10
TORSDOF 2
ENDMDL
MODEL 9
REMARK VINA RESULT:      -4.0      1.592      2.344
REMARK  2 active torsions:
REMARK  status: ('A' for Active; 'I' for Inactive)
REMARK    1  A    between atoms: C3_3  and  O1_10 
REMARK    2  A    between atoms: C6_6  and  N1_7 
ROOT
HETATM    1  C1  PAP L   1      -7.272   7.176  11.377  1.00  0.00     0.026 A 
HETATM    2  C2  PAP L   1      -7.809   8.288  12.031  1.00  0.00     0.038 A 
HETATM    3  C3  PAP L   1      -8.039   8.236  13.399  1.00  0.00     0.065 A 
HETATM    4  C4  PAP L   1      -7.726   7.094  14.128  1.00  0.00     0.038 A 
HETATM    5  C5  PAP L   1      -7.190   5.985  13.466  1.00  0.00     0.026 A 
HETATM    6  C6  PAP L   1      -7.006   5.997  12.080  1.00  0.00     0.005 A 
ENDROOT
BRANCH   6   7
HETATM    7  N1  PAP L   1      -6.359   4.929  11.446  1.00  0.00    -0.303 NA
HETATM    8  H5  PAP L   1      -5.391   5.120  11.212  1.00  0.00     0.124 HD
HETATM    9  H6  PAP L   1      -6.876   4.543  10.663  1.00  0.00     0.124 HD
ENDBRANCH   6   7
BRANCH   3  10
HETATM   10  O1  PAP L   1      -8.561   9.342  14.000  1.00  0.00    -0.361 OA
HETATM   11  H7  PAP L   1      -9.474   9.460  13.692  1.00  0.00     0.217 HD
ENDBRANCH   3  10
TORSDOF 2
ENDMDL
MODEL 10
REMARK VINA RESULT:      -3.7      3.142      4.045
REMARK  2 active torsions:
REMARK  status: ('A' for Active; 'I' for Inactive)
REMARK    1  A    between atoms: C3_3  and  O1_10 
REMARK    2  A    between atoms: C6_6  and  N1_7 
ROOT
HETATM    1  C1  PAP L   1      -7.574   6.900  13.158  1.00  0.00     0.026 A 
HETATM    2  C2  PAP L   1      -7.587   6.565  14.514  1.00  0.00     0.038 A 
HETATM    3  C3  PAP L   1      -7.923   7.527  15.457  1.00  0.00     0.065 A 
HETATM    4  C4  PAP L   1      -8.261   8.817  15.063  1.00  0.00     0.038 A 
HETATM    5  C5  PAP L   1      -8.245   9.145  13.704  1.00  0.00     0.026 A 
HETATM    6  C6  PAP L   1      -7.852   8.206  12.744  1.00  0.00     0.005 A 
ENDROOT
BRANCH   6   7
HETATM    7  N1  PAP L   1      -7.954   8.508  11.381  1.00  0.00    -0.303 NA
HETATM    8  H5  PAP L   1      -7.133   8.250  10.844  1.00  0.00     0.124 HD
HETATM    9  H6  PAP L   1      -8.256   9.458  11.192  1.00  0.00     0.124 HD
ENDBRANCH   6   7
BRANCH   3  10
HETATM   10  O1  PAP L   1      -7.926   7.161  16.769  1.00  0.00    -0.361 OA
HETATM   11  H7  PAP L   1      -7.663   6.228  16.832  1.00  0.00     0.217 HD
ENDBRANCH   3  10
TORSDOF 2
ENDMDL
MODEL 11
REMARK VINA RESULT:      -3.6      2.224      2.854
REMARK  2 active torsions:
REMARK  status: ('A' for Active; 'I' for Inactive)
REMARK    1  A    between atoms: C3_3  and  O1_10 
REMARK    2  A    between atoms: C6_6  and  N1_7 
ROOT
HETATM    1  C1  PAP L   1      -8.539   8.766  14.763  1.00  0.00     0.026 A 
HETATM    2  C2  PAP L   1      -8.154   9.018  13.444  1.00  0.00     0.038 A 
HETATM    3  C3  PAP L   1      -7.802   7.961  12.617  1.00  0.00     0.065 A 
HETATM    4  C4  PAP L   1      -7.844   6.651  13.083  1.00  0.00     0.038 A 
HETATM    5  C5  PAP L   1      -8.230   6.407  14.405  1.00  0.00     0.026 A 
HETATM    6  C6  PAP L   1      -8.532   7.463  15.271  1.00  0.00     0.005 A 
ENDROOT
BRANCH   6   7
HETATM    7  N1  PAP L   1      -9.030   7.203  16.552  1.00  0.00    -0.303 NA
HETATM    8  H5  PAP L   1      -8.496   7.641  17.295  1.00  0.00     0.124 HD
HETATM    9  H6  PAP L   1      -9.207   6.220  16.732  1.00  0.00     0.124 HD
ENDBRANCH   6   7
BRANCH   3  10
HETATM   10  O1  PAP L   1      -7.435   8.247  11.336  1.00  0.00    -0.361 OA
HETATM   11  H7  PAP L   1      -7.777   9.125  11.104  1.00  0.00     0.217 HD
ENDBRANCH   3  10
TORSDOF 2
ENDMDL
MODEL 12
REMARK VINA RESULT:      -3.5      3.135      4.060
REMARK  2 active torsions:
REMARK  status: ('A' for Active; 'I' for Inactive)
REMARK    1  A    between atoms: C3_3  and  O1_10 
REMARK    2  A    between atoms: C6_6  and  N1_7 
ROOT
HETATM    1  C1  PAP L   1      -7.012   5.825  13.234  1.00  0.00     0.026 A 
HETATM    2  C2  PAP L   1      -6.795   4.457  13.419  1.00  0.00     0.038 A 
HETATM    3  C3  PAP L   1      -7.634   3.735  14.257  1.00  0.00     0.065 A 
HETATM    4  C4  PAP L   1      -8.698   4.357  14.901  1.00  0.00     0.038 A 
HETATM    5  C5  PAP L   1      -8.908   5.727  14.712  1.00  0.00     0.026 A 
HETATM    6  C6  PAP L   1      -8.038   6.483  13.918  1.00  0.00     0.005 A 
ENDROOT
BRANCH   6   7
HETATM    7  N1  PAP L   1      -8.325   7.824  13.639  1.00  0.00    -0.303 NA
HETATM    8  H5  PAP L   1      -7.696   8.478  14.092  1.00  0.00     0.124 HD
HETATM    9  H6  PAP L   1      -9.300   8.071  13.773  1.00  0.00     0.124 HD
ENDBRANCH   6   7
BRANCH   3  10
HETATM   10  O1  PAP L   1      -7.392   2.404  14.409  1.00  0.00    -0.361 OA
HETATM   11  H7  PAP L   1      -7.163   2.234  15.337  1.00  0.00     0.217 HD
ENDBRANCH   3  10
TORSDOF 2
ENDMDL
MODEL 13
REMARK VINA RESULT:      -3.3     13.357     14.045
REMARK  2 active torsions:
REMARK  status: ('A' for Active; 'I' for Inactive)
REMARK    1  A    between atoms: C3_3  and  O1_10 
REMARK    2  A    between atoms: C6_6  and  N1_7 
ROOT
HETATM    1  C1  PAP L   1       2.090   2.593  23.594  1.00  0.00     0.026 A 
HETATM    2  C2  PAP L   1       0.803   3.040  23.285  1.00  0.00     0.038 A 
HETATM    3  C3  PAP L   1       0.083   2.418  22.274  1.00  0.00     0.065 A 
HETATM    4  C4  PAP L   1       0.624   1.344  21.577  1.00  0.00     0.038 A 
HETATM    5  C5  PAP L   1       1.913   0.902  21.891  1.00  0.00     0.026 A 
HETATM    6  C6  PAP L   1       2.677   1.553  22.865  1.00  0.00     0.005 A 
ENDROOT
BRANCH   6   7
HETATM    7  N1  PAP L   1       3.915   1.031  23.254  1.00  0.00    -0.303 NA
HETATM    8  H5  PAP L   1       3.887   0.044  23.488  1.00  0.00     0.124 HD
HETATM    9  H6  PAP L   1       4.389   1.582  23.963  1.00  0.00     0.124 HD
ENDBRANCH   6   7
BRANCH   3  10
HETATM   10  O1  PAP L   1      -1.169   2.882  22.005  1.00  0.00    -0.361 OA
HETATM   11  H7  PAP L   1      -1.793   2.139  22.054  1.00  0.00     0.217 HD
ENDBRANCH   3  10
TORSDOF 2
ENDMDL
MODEL 14
REMARK VINA RESULT:      -3.2     13.412     14.222
REMARK  2 active torsions:
REMARK  status: ('A' for Active; 'I' for Inactive)
REMARK    1  A    between atoms: C3_3  and  O1_10 
REMARK    2  A    between atoms: C6_6  and  N1_7 
ROOT
HETATM    1  C1  PAP L   1       0.661   1.368  21.498  1.00  0.00     0.026 A 
HETATM    2  C2  PAP L   1       1.993   1.045  21.769  1.00  0.00     0.038 A 
HETATM    3  C3  PAP L   1       2.665   1.702  22.791  1.00  0.00     0.065 A 
HETATM    4  C4  PAP L   1       2.021   2.667  23.557  1.00  0.00     0.038 A 
HETATM    5  C5  PAP L   1       0.688   2.985  23.279  1.00  0.00     0.026 A 
HETATM    6  C6  PAP L   1       0.012   2.377  22.216  1.00  0.00     0.005 A 
ENDROOT
BRANCH   6   7
HETATM    7  N1  PAP L   1      -1.353   2.614  22.022  1.00  0.00    -0.303 NA
HETATM    8  H5  PAP L   1      -1.555   3.515  21.601  1.00  0.00     0.124 HD
HETATM    9  H6  PAP L   1      -1.922   2.435  22.843  1.00  0.00     0.124 HD
ENDBRANCH   6   7
BRANCH   3  10
HETATM   10  O1  PAP L   1       3.962   1.357  23.026  1.00  0.00    -0.361 OA
HETATM   11  H7  PAP L   1       4.073   0.413  22.830  1.00  0.00     0.217 HD
ENDBRANCH   3  10
TORSDOF 2
ENDMDL
MODEL 15
REMARK VINA RESULT:      -3.1      1.950      2.769
REMARK  2 active torsions:
REMARK  status: ('A' for Active; 'I' for Inactive)
REMARK    1  A    between atoms: C3_3  and  O1_10 
REMARK    2  A    between atoms: C6_6  and  N1_7 
ROOT
HETATM    1  C1  PAP L   1      -7.212   6.658  13.261  1.00  0.00     0.026 A 
HETATM    2  C2  PAP L   1      -7.832   7.741  13.891  1.00  0.00     0.038 A 
HETATM    3  C3  PAP L   1      -8.832   7.512  14.825  1.00  0.00     0.065 A 
HETATM    4  C4  PAP L   1      -9.213   6.215  15.153  1.00  0.00     0.038 A 
HETATM    5  C5  PAP L   1      -8.589   5.137  14.518  1.00  0.00     0.026 A 
HETATM    6  C6  PAP L   1      -7.620   5.348  13.531  1.00  0.00     0.005 A 
ENDROOT
BRANCH   6   7
HETATM    7  N1  PAP L   1      -6.918   4.265  12.990  1.00  0.00    -0.303 NA
HETATM    8  H5  PAP L   1      -5.915   4.313  13.140  1.00  0.00     0.124 HD
HETATM    9  H6  PAP L   1      -7.154   4.064  12.024  1.00  0.00     0.124 HD
ENDBRANCH   6   7
BRANCH   3  10
HETATM   10  O1  PAP L   1      -9.411   8.593  15.418  1.00  0.00    -0.361 OA
HETATM   11  H7  PAP L   1      -9.994   8.282  16.129  1.00  0.00     0.217 HD
ENDBRANCH   3  10
TORSDOF 2
ENDMDL
MODEL 16
REMARK VINA RESULT:      -3.1      5.914      6.823
REMARK  2 active torsions:
REMARK  status: ('A' for Active; 'I' for Inactive)
REMARK    1  A    between atoms: C3_3  and  O1_10 
REMARK    2  A    between atoms: C6_6  and  N1_7 
ROOT
HETATM    1  C1  PAP L   1      -5.926   1.343  16.027  1.00  0.00     0.026 A 
HETATM    2  C2  PAP L   1      -7.143   1.590  15.387  1.00  0.00     0.038 A 
HETATM    3  C3  PAP L   1      -8.330   1.465  16.095  1.00  0.00     0.065 A 
HETATM    4  C4  PAP L   1      -8.319   1.112  17.440  1.00  0.00     0.038 A 
HETATM    5  C5  PAP L   1      -7.097   0.866  18.074  1.00  0.00     0.026 A 
HETATM    6  C6  PAP L   1      -5.894   0.929  17.362  1.00  0.00     0.005 A 
ENDROOT
BRANCH   6   7
HETATM    7  N1  PAP L   1      -4.672   0.799  18.032  1.00  0.00    -0.303 NA
HETATM    8  H5  PAP L   1      -4.732   0.259  18.889  1.00  0.00     0.124 HD
HETATM    9  H6  PAP L   1      -4.181   1.677  18.163  1.00  0.00     0.124 HD
ENDBRANCH   6   7
BRANCH   3  10
HETATM   10  O1  PAP L   1      -9.496   1.716  15.436  1.00  0.00    -0.361 OA
HETATM   11  H7  PAP L   1      -9.843   2.571  15.734  1.00  0.00     0.217 HD
ENDBRANCH   3  10
TORSDOF 2
ENDMDL
MODEL 17
REMARK VINA RESULT:      -3.1      2.395      2.797
REMARK  2 active torsions:
REMARK  status: ('A' for Active; 'I' for Inactive)
REMARK    1  A    between atoms: C3_3  and  O1_10 
REMARK    2  A    between atoms: C6_6  and  N1_7 
ROOT
HETATM    1  C1  PAP L   1      -6.197   5.281  15.623  1.00  0.00     0.026 A 
HETATM    2  C2  PAP L   1      -5.627   5.944  14.533  1.00  0.00     0.038 A 
HETATM    3  C3  PAP L   1      -5.977   5.572  13.242  1.00  0.00     0.065 A 
HETATM    4  C4  PAP L   1      -6.901   4.556  13.024  1.00  0.00     0.038 A 
HETATM    5  C5  PAP L   1      -7.466   3.897  14.120  1.00  0.00     0.026 A 
HETATM    6  C6  PAP L   1      -7.082   4.218  15.426  1.00  0.00     0.005 A 
ENDROOT
BRANCH   6   7
HETATM    7  N1  PAP L   1      -7.740   3.637  16.516  1.00  0.00    -0.303 NA
HETATM    8  H5  PAP L   1      -8.074   4.311  17.198  1.00  0.00     0.124 HD
HETATM    9  H6  PAP L   1      -7.226   2.875  16.947  1.00  0.00     0.124 HD
ENDBRANCH   6   7
BRANCH   3  10
HETATM   10  O1  PAP L   1      -5.401   6.243  12.206  1.00  0.00    -0.361 OA
HETATM   11  H7  PAP L   1      -5.345   7.184  12.439  1.00  0.00     0.217 HD
ENDBRANCH   3  10
TORSDOF 2
ENDMDL
MODEL 18
REMARK VINA RESULT:      -3.0      2.178      3.075
REMARK  2 active torsions:
REMARK  status: ('A' for Active; 'I' for Inactive)
REMARK    1  A    between atoms: C3_3  and  O1_10 
REMARK    2  A    between atoms: C6_6  and  N1_7 
ROOT
HETATM    1  C1  PAP L   1      -6.986   3.392  14.384  1.00  0.00     0.026 A 
HETATM    2  C2  PAP L   1      -6.573   4.624  13.870  1.00  0.00     0.038 A 
HETATM    3  C3  PAP L   1      -7.426   5.717  13.933  1.00  0.00     0.065 A 
HETATM    4  C4  PAP L   1      -8.682   5.602  14.519  1.00  0.00     0.038 A 
HETATM    5  C5  PAP L   1      -9.089   4.366  15.031  1.00  0.00     0.026 A 
HETATM    6  C6  PAP L   1      -8.267   3.239  14.923  1.00  0.00     0.005 A 
ENDROOT
BRANCH   6   7
HETATM    7  N1  PAP L   1      -8.632   2.039  15.543  1.00  0.00    -0.303 NA
HETATM    8  H5  PAP L   1      -9.210   1.439  14.963  1.00  0.00     0.124 HD
HETATM    9  H6  PAP L   1      -9.015   2.158  16.475  1.00  0.00     0.124 HD
ENDBRANCH   6   7
BRANCH   3  10
HETATM   10  O1  PAP L   1      -6.986   6.901  13.423  1.00  0.00    -0.361 OA
HETATM   11  H7  PAP L   1      -6.962   6.832  12.455  1.00  0.00     0.217 HD
ENDBRANCH   3  10
TORSDOF 2
ENDMDL
MODEL 19
REMARK VINA RESULT:      -3.0     11.622     12.416
REMARK  2 active torsions:
REMARK  status: ('A' for Active; 'I' for Inactive)
REMARK    1  A    between atoms: C3_3  and  O1_10 
REMARK    2  A    between atoms: C6_6  and  N1_7 
ROOT
HETATM    1  C1  PAP L   1       0.589   0.864  20.439  1.00  0.00     0.026 A 
HETATM    2  C2  PAP L   1      -0.317   1.816  19.964  1.00  0.00     0.038 A 
HETATM    3  C3  PAP L   1      -0.759   2.825  20.808  1.00  0.00     0.065 A 
HETATM    4  C4  PAP L   1      -0.298   2.907  22.118  1.00  0.00     0.038 A 
HETATM    5  C5  PAP L   1       0.608   1.950  22.586  1.00  0.00     0.026 A 
HETATM    6  C6  PAP L   1       1.020   0.892  21.769  1.00  0.00     0.005 A 
ENDROOT
BRANCH   6   7
HETATM    7  N1  PAP L   1       2.015   0.011  22.206  1.00  0.00    -0.303 NA
HETATM    8  H5  PAP L   1       2.904   0.131  21.732  1.00  0.00     0.124 HD
HETATM    9  H6  PAP L   1       1.720  -0.960  22.233  1.00  0.00     0.124 HD
ENDBRANCH   6   7
BRANCH   3  10
HETATM   10  O1  PAP L   1      -1.641   3.736  20.308  1.00  0.00    -0.361 OA
HETATM   11  H7  PAP L   1      -2.355   3.260  19.854  1.00  0.00     0.217 HD
ENDBRANCH   3  10
TORSDOF 2
ENDMDL
MODEL 20
REMARK VINA RESULT:      -3.0      7.772      8.259
REMARK  2 active torsions:
REMARK  status: ('A' for Active; 'I' for Inactive)
REMARK    1  A    between atoms: C3_3  and  O1_10 
REMARK    2  A    between atoms: C6_6  and  N1_7 
ROOT
HETATM    1  C1  PAP L   1      -2.616   4.473  19.797  1.00  0.00     0.026 A 
HETATM    2  C2  PAP L   1      -3.710   4.836  19.007  1.00  0.00     0.038 A 
HETATM    3  C3  PAP L   1      -3.644   5.982  18.227  1.00  0.00     0.065 A 
HETATM    4  C4  PAP L   1      -2.494   6.764  18.212  1.00  0.00     0.038 A 
HETATM    5  C5  PAP L   1      -1.403   6.394  19.006  1.00  0.00     0.026 A 
HETATM    6  C6  PAP L   1      -1.472   5.276  19.843  1.00  0.00     0.005 A 
ENDROOT
BRANCH   6   7
HETATM    7  N1  PAP L   1      -0.337   4.847  20.541  1.00  0.00    -0.303 NA
HETATM    8  H5  PAP L   1      -0.544   4.447  21.450  1.00  0.00     0.124 HD
HETATM    9  H6  PAP L   1       0.404   5.539  20.583  1.00  0.00     0.124 HD
ENDBRANCH   6   7
BRANCH   3  10
HETATM   10  O1  PAP L   1      -4.730   6.301  17.469  1.00  0.00    -0.361 OA
HETATM   11  H7  PAP L   1      -5.513   5.878  17.855  1.00  0.00     0.217 HD
ENDBRANCH   3  10
TORSDOF 2
ENDMDL
