HETATM    1  C1  PAP L   1      -1.544   4.223  19.199  1.00  0.00     0.026 A 
HETATM    2  C2  PAP L   1      -1.787   5.459  18.595  1.00  0.00     0.038 A 
HETATM    3  C3  PAP L   1      -1.264   5.724  17.337  1.00  0.00     0.065 A 
HETATM    4  C4  PAP L   1      -0.514   4.764  16.665  1.00  0.00     0.038 A 
HETATM    5  C5  PAP L   1      -0.275   3.530  17.276  1.00  0.00     0.026 A 
HETATM    6  C6  PAP L   1      -0.744   3.266  18.568  1.00  0.00     0.005 A 
HETATM    7  N1  PAP L   1      -0.602   1.989  19.121  1.00  0.00    -0.303 NA
HETATM    8  H5  PAP L   1      -0.606   1.243  18.433  1.00  0.00     0.124 HD
HETATM    9  H6  PAP L   1      -1.234   1.804  19.894  1.00  0.00     0.124 HD
HETATM   10  O1  PAP L   1      -1.524   6.940  16.781  1.00  0.00    -0.361 OA
HETATM   11  H7  PAP L   1      -2.004   7.481  17.428  1.00  0.00     0.217 HD
HETATM    1  C1  PAP L   1      -0.454   4.608  16.821  1.00  0.00     0.026 A 
HETATM    2  C2  PAP L   1      -0.257   3.349  17.394  1.00  0.00     0.038 A 
HETATM    3  C3  PAP L   1      -0.812   3.063  18.634  1.00  0.00     0.065 A 
HETATM    4  C4  PAP L   1      -1.577   4.012  19.303  1.00  0.00     0.038 A 
HETATM    5  C5  PAP L   1      -1.769   5.270  18.724  1.00  0.00     0.026 A 
HETATM    6  C6  PAP L   1      -1.168   5.597  17.503  1.00  0.00     0.005 A 
HETATM    7  N1  PAP L   1      -1.464   6.813  16.876  1.00  0.00    -0.303 NA
HETATM    8  H5  PAP L   1      -2.334   7.231  17.187  1.00  0.00     0.124 HD
HETATM    9  H6  PAP L   1      -1.391   6.781  15.864  1.00  0.00     0.124 HD
HETATM   10  O1  PAP L   1      -0.599   1.824  19.158  1.00  0.00    -0.361 OA
HETATM   11  H7  PAP L   1      -0.349   1.222  18.440  1.00  0.00     0.217 HD
HETATM    1  C1  PAP L   1      -0.270   3.556  17.290  1.00  0.00     0.026 A 
HETATM    2  C2  PAP L   1      -0.514   4.806  16.714  1.00  0.00     0.038 A 
HETATM    3  C3  PAP L   1      -1.292   5.735  17.390  1.00  0.00     0.065 A 
HETATM    4  C4  PAP L   1      -1.819   5.441  18.643  1.00  0.00     0.038 A 
HETATM    5  C5  PAP L   1      -1.572   4.188  19.213  1.00  0.00     0.026 A 
HETATM    6  C6  PAP L   1      -0.839   3.217  18.521  1.00  0.00     0.005 A 
HETATM    7  N1  PAP L   1      -0.497   2.013  19.148  1.00  0.00    -0.303 NA
HETATM    8  H5  PAP L   1      -0.987   1.206  18.776  1.00  0.00     0.124 HD
HETATM    9  H6  PAP L   1      -0.534   2.054  20.162  1.00  0.00     0.124 HD
HETATM   10  O1  PAP L   1      -1.504   6.943  16.796  1.00  0.00    -0.361 OA
HETATM   11  H7  PAP L   1      -2.454   7.038  16.619  1.00  0.00     0.217 HD
HETATM    1  C1  PAP L   1      -0.745   5.838  17.591  1.00  0.00     0.026 A 
HETATM    2  C2  PAP L   1      -1.416   5.131  18.593  1.00  0.00     0.038 A 
HETATM    3  C3  PAP L   1      -1.198   3.768  18.735  1.00  0.00     0.065 A 
HETATM    4  C4  PAP L   1      -0.307   3.102  17.901  1.00  0.00     0.038 A 
HETATM    5  C5  PAP L   1       0.360   3.816  16.901  1.00  0.00     0.026 A 
HETATM    6  C6  PAP L   1       0.110   5.178  16.704  1.00  0.00     0.005 A 
HETATM    7  N1  PAP L   1       0.869   5.907  15.781  1.00  0.00    -0.303 NA
HETATM    8  H5  PAP L   1       0.848   6.910  15.938  1.00  0.00     0.124 HD
HETATM    9  H6  PAP L   1       0.684   5.664  14.814  1.00  0.00     0.124 HD
HETATM   10  O1  PAP L   1      -1.869   3.114  19.724  1.00  0.00    -0.361 OA
HETATM   11  H7  PAP L   1      -1.366   3.200  20.549  1.00  0.00     0.217 HD
HETATM    1  C1  PAP L   1       0.347   3.800  16.994  1.00  0.00     0.026 A 
HETATM    2  C2  PAP L   1      -0.351   3.095  17.978  1.00  0.00     0.038 A 
HETATM    3  C3  PAP L   1      -1.243   3.766  18.802  1.00  0.00     0.065 A 
HETATM    4  C4  PAP L   1      -1.461   5.131  18.648  1.00  0.00     0.038 A 
HETATM    5  C5  PAP L   1      -0.758   5.830  17.662  1.00  0.00     0.026 A 
HETATM    6  C6  PAP L   1       0.188   5.183  16.861  1.00  0.00     0.005 A 
HETATM    7  N1  PAP L   1       0.797   5.863  15.800  1.00  0.00    -0.303 NA
HETATM    8  H5  PAP L   1       0.352   6.747  15.573  1.00  0.00     0.124 HD
HETATM    9  H6  PAP L   1       0.953   5.288  14.979  1.00  0.00     0.124 HD
HETATM   10  O1  PAP L   1      -1.906   3.044  19.748  1.00  0.00    -0.361 OA
HETATM   11  H7  PAP L   1      -1.645   3.367  20.625  1.00  0.00     0.217 HD
HETATM    1  C1  PAP L   1      -0.668   3.936  18.553  1.00  0.00     0.026 A 
HETATM    2  C2  PAP L   1       0.232   4.494  17.641  1.00  0.00     0.038 A 
HETATM    3  C3  PAP L   1       0.120   5.833  17.295  1.00  0.00     0.065 A 
HETATM    4  C4  PAP L   1      -0.870   6.630  17.860  1.00  0.00     0.038 A 
HETATM    5  C5  PAP L   1      -1.768   6.065  18.771  1.00  0.00     0.026 A 
HETATM    6  C6  PAP L   1      -1.708   4.703  19.087  1.00  0.00     0.005 A 
HETATM    7  N1  PAP L   1      -2.532   4.175  20.087  1.00  0.00    -0.303 NA
HETATM    8  H5  PAP L   1      -2.568   3.161  20.092  1.00  0.00     0.124 HD
HETATM    9  H6  PAP L   1      -3.455   4.594  20.121  1.00  0.00     0.124 HD
HETATM   10  O1  PAP L   1       1.018   6.340  16.405  1.00  0.00    -0.361 OA
HETATM   11  H7  PAP L   1       1.114   7.292  16.569  1.00  0.00     0.217 HD
HETATM    1  C1  PAP L   1      -1.379   5.560  18.000  1.00  0.00     0.026 A 
HETATM    2  C2  PAP L   1      -0.485   5.617  16.927  1.00  0.00     0.038 A 
HETATM    3  C3  PAP L   1       0.308   4.516  16.633  1.00  0.00     0.065 A 
HETATM    4  C4  PAP L   1       0.209   3.351  17.385  1.00  0.00     0.038 A 
HETATM    5  C5  PAP L   1      -0.687   3.301  18.457  1.00  0.00     0.026 A 
HETATM    6  C6  PAP L   1      -1.451   4.420  18.806  1.00  0.00     0.005 A 
HETATM    7  N1  PAP L   1      -2.429   4.322  19.803  1.00  0.00    -0.303 NA
HETATM    8  H5  PAP L   1      -3.376   4.439  19.458  1.00  0.00     0.124 HD
HETATM    9  H6  PAP L   1      -2.242   4.896  20.619  1.00  0.00     0.124 HD
HETATM   10  O1  PAP L   1       1.165   4.611  15.578  1.00  0.00    -0.361 OA
HETATM   11  H7  PAP L   1       1.670   3.784  15.514  1.00  0.00     0.217 HD
HETATM    1  C1  PAP L   1      -1.092   5.386  19.537  1.00  0.00     0.026 A 
HETATM    2  C2  PAP L   1      -0.703   4.247  18.826  1.00  0.00     0.038 A 
HETATM    3  C3  PAP L   1      -0.631   4.292  17.441  1.00  0.00     0.065 A 
HETATM    4  C4  PAP L   1      -0.927   5.464  16.754  1.00  0.00     0.038 A 
HETATM    5  C5  PAP L   1      -1.316   6.600  17.472  1.00  0.00     0.026 A 
HETATM    6  C6  PAP L   1      -1.451   6.557  18.863  1.00  0.00     0.005 A 
HETATM    7  N1  PAP L   1      -1.725   7.727  19.581  1.00  0.00    -0.303 NA
HETATM    8  H5  PAP L   1      -1.815   8.552  18.997  1.00  0.00     0.124 HD
HETATM    9  H6  PAP L   1      -1.104   7.879  20.369  1.00  0.00     0.124 HD
HETATM   10  O1  PAP L   1      -0.246   3.162  16.785  1.00  0.00    -0.361 OA
HETATM   11  H7  PAP L   1       0.566   2.826  17.197  1.00  0.00     0.217 HD
HETATM    1  C1  PAP L   1      -0.867   5.527  16.705  1.00  0.00     0.026 A 
HETATM    2  C2  PAP L   1      -1.404   6.639  17.359  1.00  0.00     0.038 A 
HETATM    3  C3  PAP L   1      -1.634   6.587  18.727  1.00  0.00     0.065 A 
HETATM    4  C4  PAP L   1      -1.321   5.445  19.456  1.00  0.00     0.038 A 
HETATM    5  C5  PAP L   1      -0.785   4.336  18.794  1.00  0.00     0.026 A 
HETATM    6  C6  PAP L   1      -0.601   4.348  17.408  1.00  0.00     0.005 A 
HETATM    7  N1  PAP L   1       0.046   3.280  16.774  1.00  0.00    -0.303 NA
HETATM    8  H5  PAP L   1       1.014   3.471  16.540  1.00  0.00     0.124 HD
HETATM    9  H6  PAP L   1      -0.471   2.894  15.991  1.00  0.00     0.124 HD
HETATM   10  O1  PAP L   1      -2.156   7.693  19.328  1.00  0.00    -0.361 OA
HETATM   11  H7  PAP L   1      -3.069   7.811  19.020  1.00  0.00     0.217 HD
HETATM    1  C1  PAP L   1      -1.169   5.251  18.486  1.00  0.00     0.026 A 
HETATM    2  C2  PAP L   1      -1.182   4.916  19.842  1.00  0.00     0.038 A 
HETATM    3  C3  PAP L   1      -1.518   5.878  20.785  1.00  0.00     0.065 A 
HETATM    4  C4  PAP L   1      -1.856   7.168  20.391  1.00  0.00     0.038 A 
HETATM    5  C5  PAP L   1      -1.840   7.496  19.032  1.00  0.00     0.026 A 
HETATM    6  C6  PAP L   1      -1.447   6.557  18.072  1.00  0.00     0.005 A 
HETATM    7  N1  PAP L   1      -1.549   6.859  16.709  1.00  0.00    -0.303 NA
HETATM    8  H5  PAP L   1      -0.728   6.601  16.172  1.00  0.00     0.124 HD
HETATM    9  H6  PAP L   1      -1.851   7.809  16.520  1.00  0.00     0.124 HD
HETATM   10  O1  PAP L   1      -1.521   5.512  22.097  1.00  0.00    -0.361 OA
HETATM   11  H7  PAP L   1      -1.258   4.579  22.160  1.00  0.00     0.217 HD
HETATM    1  C1  PAP L   1      -2.134   7.117  20.091  1.00  0.00     0.026 A 
HETATM    2  C2  PAP L   1      -1.749   7.369  18.772  1.00  0.00     0.038 A 
HETATM    3  C3  PAP L   1      -1.397   6.312  17.945  1.00  0.00     0.065 A 
HETATM    4  C4  PAP L   1      -1.439   5.002  18.411  1.00  0.00     0.038 A 
HETATM    5  C5  PAP L   1      -1.825   4.758  19.733  1.00  0.00     0.026 A 
HETATM    6  C6  PAP L   1      -2.127   5.814  20.599  1.00  0.00     0.005 A 
HETATM    7  N1  PAP L   1      -2.625   5.554  21.880  1.00  0.00    -0.303 NA
HETATM    8  H5  PAP L   1      -2.091   5.992  22.623  1.00  0.00     0.124 HD
HETATM    9  H6  PAP L   1      -2.802   4.571  22.060  1.00  0.00     0.124 HD
HETATM   10  O1  PAP L   1      -1.030   6.598  16.664  1.00  0.00    -0.361 OA
HETATM   11  H7  PAP L   1      -1.372   7.476  16.432  1.00  0.00     0.217 HD
HETATM    1  C1  PAP L   1      -0.607   4.176  18.562  1.00  0.00     0.026 A 
HETATM    2  C2  PAP L   1      -0.390   2.808  18.747  1.00  0.00     0.038 A 
HETATM    3  C3  PAP L   1      -1.229   2.086  19.585  1.00  0.00     0.065 A 
HETATM    4  C4  PAP L   1      -2.293   2.708  20.229  1.00  0.00     0.038 A 
HETATM    5  C5  PAP L   1      -2.503   4.078  20.040  1.00  0.00     0.026 A 
HETATM    6  C6  PAP L   1      -1.633   4.834  19.246  1.00  0.00     0.005 A 
HETATM    7  N1  PAP L   1      -1.920   6.175  18.967  1.00  0.00    -0.303 NA
HETATM    8  H5  PAP L   1      -1.291   6.829  19.420  1.00  0.00     0.124 HD
HETATM    9  H6  PAP L   1      -2.895   6.422  19.101  1.00  0.00     0.124 HD
HETATM   10  O1  PAP L   1      -0.987   0.755  19.737  1.00  0.00    -0.361 OA
HETATM   11  H7  PAP L   1      -0.758   0.585  20.665  1.00  0.00     0.217 HD
HETATM    1  C1  PAP L   1       8.495   0.944  28.922  1.00  0.00     0.026 A 
HETATM    2  C2  PAP L   1       7.208   1.391  28.613  1.00  0.00     0.038 A 
HETATM    3  C3  PAP L   1       6.488   0.769  27.602  1.00  0.00     0.065 A 
HETATM    4  C4  PAP L   1       7.029  -0.305  26.905  1.00  0.00     0.038 A 
HETATM    5  C5  PAP L   1       8.318  -0.747  27.219  1.00  0.00     0.026 A 
HETATM    6  C6  PAP L   1       9.082  -0.096  28.193  1.00  0.00     0.005 A 
HETATM    7  N1  PAP L   1      10.320  -0.618  28.582  1.00  0.00    -0.303 NA
HETATM    8  H5  PAP L   1      10.292  -1.605  28.816  1.00  0.00     0.124 HD
HETATM    9  H6  PAP L   1      10.794  -0.067  29.291  1.00  0.00     0.124 HD
HETATM   10  O1  PAP L   1       5.236   1.233  27.333  1.00  0.00    -0.361 OA
HETATM   11  H7  PAP L   1       4.612   0.490  27.382  1.00  0.00     0.217 HD
HETATM    1  C1  PAP L   1       7.066  -0.281  26.826  1.00  0.00     0.026 A 
HETATM    2  C2  PAP L   1       8.398  -0.604  27.097  1.00  0.00     0.038 A 
HETATM    3  C3  PAP L   1       9.070   0.053  28.119  1.00  0.00     0.065 A 
HETATM    4  C4  PAP L   1       8.426   1.018  28.885  1.00  0.00     0.038 A 
HETATM    5  C5  PAP L   1       7.093   1.336  28.607  1.00  0.00     0.026 A 
HETATM    6  C6  PAP L   1       6.417   0.728  27.544  1.00  0.00     0.005 A 
HETATM    7  N1  PAP L   1       5.052   0.965  27.350  1.00  0.00    -0.303 NA
HETATM    8  H5  PAP L   1       4.850   1.866  26.929  1.00  0.00     0.124 HD
HETATM    9  H6  PAP L   1       4.483   0.786  28.171  1.00  0.00     0.124 HD
HETATM   10  O1  PAP L   1      10.367  -0.292  28.354  1.00  0.00    -0.361 OA
HETATM   11  H7  PAP L   1      10.478  -1.236  28.158  1.00  0.00     0.217 HD
HETATM    1  C1  PAP L   1      -0.807   5.009  18.589  1.00  0.00     0.026 A 
HETATM    2  C2  PAP L   1      -1.427   6.092  19.219  1.00  0.00     0.038 A 
HETATM    3  C3  PAP L   1      -2.427   5.863  20.153  1.00  0.00     0.065 A 
HETATM    4  C4  PAP L   1      -2.808   4.566  20.481  1.00  0.00     0.038 A 
HETATM    5  C5  PAP L   1      -2.184   3.488  19.846  1.00  0.00     0.026 A 
HETATM    6  C6  PAP L   1      -1.215   3.699  18.859  1.00  0.00     0.005 A 
HETATM    7  N1  PAP L   1      -0.513   2.616  18.318  1.00  0.00    -0.303 NA
HETATM    8  H5  PAP L   1       0.490   2.664  18.468  1.00  0.00     0.124 HD
HETATM    9  H6  PAP L   1      -0.749   2.415  17.352  1.00  0.00     0.124 HD
HETATM   10  O1  PAP L   1      -3.006   6.944  20.746  1.00  0.00    -0.361 OA
HETATM   11  H7  PAP L   1      -3.589   6.633  21.457  1.00  0.00     0.217 HD
HETATM    1  C1  PAP L   1       0.479  -0.306  21.355  1.00  0.00     0.026 A 
HETATM    2  C2  PAP L   1      -0.738  -0.059  20.715  1.00  0.00     0.038 A 
HETATM    3  C3  PAP L   1      -1.925  -0.184  21.423  1.00  0.00     0.065 A 
HETATM    4  C4  PAP L   1      -1.914  -0.537  22.768  1.00  0.00     0.038 A 
HETATM    5  C5  PAP L   1      -0.692  -0.783  23.402  1.00  0.00     0.026 A 
HETATM    6  C6  PAP L   1       0.511  -0.720  22.690  1.00  0.00     0.005 A 
HETATM    7  N1  PAP L   1       1.733  -0.850  23.360  1.00  0.00    -0.303 NA
HETATM    8  H5  PAP L   1       1.673  -1.390  24.217  1.00  0.00     0.124 HD
HETATM    9  H6  PAP L   1       2.224   0.028  23.491  1.00  0.00     0.124 HD
HETATM   10  O1  PAP L   1      -3.091   0.067  20.764  1.00  0.00    -0.361 OA
HETATM   11  H7  PAP L   1      -3.438   0.922  21.062  1.00  0.00     0.217 HD
HETATM    1  C1  PAP L   1       0.208   3.632  20.951  1.00  0.00     0.026 A 
HETATM    2  C2  PAP L   1       0.778   4.295  19.861  1.00  0.00     0.038 A 
HETATM    3  C3  PAP L   1       0.428   3.923  18.570  1.00  0.00     0.065 A 
HETATM    4  C4  PAP L   1      -0.496   2.907  18.352  1.00  0.00     0.038 A 
HETATM    5  C5  PAP L   1      -1.061   2.248  19.448  1.00  0.00     0.026 A 
HETATM    6  C6  PAP L   1      -0.677   2.569  20.754  1.00  0.00     0.005 A 
HETATM    7  N1  PAP L   1      -1.335   1.988  21.844  1.00  0.00    -0.303 NA
HETATM    8  H5  PAP L   1      -1.669   2.662  22.526  1.00  0.00     0.124 HD
HETATM    9  H6  PAP L   1      -0.821   1.226  22.275  1.00  0.00     0.124 HD
HETATM   10  O1  PAP L   1       1.004   4.594  17.534  1.00  0.00    -0.361 OA
HETATM   11  H7  PAP L   1       1.060   5.535  17.767  1.00  0.00     0.217 HD
HETATM    1  C1  PAP L   1      -0.581   1.743  19.712  1.00  0.00     0.026 A 
HETATM    2  C2  PAP L   1      -0.168   2.975  19.198  1.00  0.00     0.038 A 
HETATM    3  C3  PAP L   1      -1.021   4.068  19.261  1.00  0.00     0.065 A 
HETATM    4  C4  PAP L   1      -2.277   3.953  19.847  1.00  0.00     0.038 A 
HETATM    5  C5  PAP L   1      -2.684   2.717  20.359  1.00  0.00     0.026 A 
HETATM    6  C6  PAP L   1      -1.862   1.590  20.251  1.00  0.00     0.005 A 
HETATM    7  N1  PAP L   1      -2.227   0.390  20.871  1.00  0.00    -0.303 NA
HETATM    8  H5  PAP L   1      -2.805  -0.210  20.291  1.00  0.00     0.124 HD
HETATM    9  H6  PAP L   1      -2.610   0.509  21.803  1.00  0.00     0.124 HD
HETATM   10  O1  PAP L   1      -0.581   5.252  18.751  1.00  0.00    -0.361 OA
HETATM   11  H7  PAP L   1      -0.557   5.183  17.783  1.00  0.00     0.217 HD
HETATM    1  C1  PAP L   1       6.994  -0.785  25.767  1.00  0.00     0.026 A 
HETATM    2  C2  PAP L   1       6.088   0.167  25.292  1.00  0.00     0.038 A 
HETATM    3  C3  PAP L   1       5.646   1.176  26.136  1.00  0.00     0.065 A 
HETATM    4  C4  PAP L   1       6.107   1.258  27.446  1.00  0.00     0.038 A 
HETATM    5  C5  PAP L   1       7.013   0.301  27.914  1.00  0.00     0.026 A 
HETATM    6  C6  PAP L   1       7.425  -0.757  27.097  1.00  0.00     0.005 A 
HETATM    7  N1  PAP L   1       8.420  -1.638  27.534  1.00  0.00    -0.303 NA
HETATM    8  H5  PAP L   1       9.309  -1.518  27.060  1.00  0.00     0.124 HD
HETATM    9  H6  PAP L   1       8.125  -2.609  27.561  1.00  0.00     0.124 HD
HETATM   10  O1  PAP L   1       4.764   2.087  25.636  1.00  0.00    -0.361 OA
HETATM   11  H7  PAP L   1       4.050   1.611  25.182  1.00  0.00     0.217 HD
HETATM    1  C1  PAP L   1       3.789   2.824  25.125  1.00  0.00     0.026 A 
HETATM    2  C2  PAP L   1       2.695   3.187  24.335  1.00  0.00     0.038 A 
HETATM    3  C3  PAP L   1       2.761   4.333  23.555  1.00  0.00     0.065 A 
HETATM    4  C4  PAP L   1       3.911   5.115  23.540  1.00  0.00     0.038 A 
HETATM    5  C5  PAP L   1       5.002   4.745  24.334  1.00  0.00     0.026 A 
HETATM    6  C6  PAP L   1       4.933   3.627  25.171  1.00  0.00     0.005 A 
HETATM    7  N1  PAP L   1       6.068   3.198  25.869  1.00  0.00    -0.303 NA
HETATM    8  H5  PAP L   1       5.861   2.798  26.778  1.00  0.00     0.124 HD
HETATM    9  H6  PAP L   1       6.809   3.890  25.911  1.00  0.00     0.124 HD
HETATM   10  O1  PAP L   1       1.675   4.652  22.797  1.00  0.00    -0.361 OA
HETATM   11  H7  PAP L   1       0.892   4.229  23.183  1.00  0.00     0.217 HD
