MODEL 1
REMARK VINA RESULT:      -3.9      0.000      0.000
REMARK  2 active torsions:
REMARK  status: ('A' for Active; 'I' for Inactive)
REMARK    1  A    between atoms: C3_3  and  O1_10 
REMARK    2  A    between atoms: C6_6  and  N1_7 
ROOT
HETATM    1  C1  PAP L   1       6.473   6.775   7.656  1.00  0.00     0.026 A 
HETATM    2  C2  PAP L   1       6.363   5.404   7.410  1.00  0.00     0.038 A 
HETATM    3  C3  PAP L   1       7.274   4.528   7.984  1.00  0.00     0.065 A 
HETATM    4  C4  PAP L   1       8.285   4.999   8.814  1.00  0.00     0.038 A 
HETATM    5  C5  PAP L   1       8.389   6.373   9.054  1.00  0.00     0.026 A 
HETATM    6  C6  PAP L   1       7.517   7.277   8.439  1.00  0.00     0.005 A 
ENDROOT
BRANCH   6   7
HETATM    7  N1  PAP L   1       7.554   8.634   8.779  1.00  0.00    -0.303 NA
HETATM    8  H5  PAP L   1       6.640   9.031   8.973  1.00  0.00     0.124 HD
HETATM    9  H6  PAP L   1       8.093   9.204   8.136  1.00  0.00     0.124 HD
ENDBRANCH   6   7
BRANCH   3  10
HETATM   10  O1  PAP L   1       7.132   3.198   7.722  1.00  0.00    -0.361 OA
HETATM   11  H7  PAP L   1       7.095   3.074   6.760  1.00  0.00     0.217 HD
ENDBRANCH   3  10
TORSDOF 2
ENDMDL
MODEL 2
REMARK VINA RESULT:      -3.9      2.780      3.265
REMARK  2 active torsions:
REMARK  status: ('A' for Active; 'I' for Inactive)
REMARK    1  A    between atoms: C3_3  and  O1_10 
REMARK    2  A    between atoms: C6_6  and  N1_7 
ROOT
HETATM    1  C1  PAP L   1       6.432   5.542   7.468  1.00  0.00     0.026 A 
HETATM    2  C2  PAP L   1       6.596   6.902   7.744  1.00  0.00     0.038 A 
HETATM    3  C3  PAP L   1       7.617   7.315   8.588  1.00  0.00     0.065 A 
HETATM    4  C4  PAP L   1       8.489   6.389   9.150  1.00  0.00     0.038 A 
HETATM    5  C5  PAP L   1       8.319   5.030   8.871  1.00  0.00     0.026 A 
HETATM    6  C6  PAP L   1       7.260   4.589   8.070  1.00  0.00     0.005 A 
ENDROOT
BRANCH   6   7
HETATM    7  N1  PAP L   1       7.169   3.243   7.700  1.00  0.00    -0.303 NA
HETATM    8  H5  PAP L   1       7.349   2.597   8.462  1.00  0.00     0.124 HD
HETATM    9  H6  PAP L   1       7.697   3.010   6.865  1.00  0.00     0.124 HD
ENDBRANCH   6   7
BRANCH   3  10
HETATM   10  O1  PAP L   1       7.745   8.649   8.830  1.00  0.00    -0.361 OA
HETATM   11  H7  PAP L   1       7.341   8.849   9.690  1.00  0.00     0.217 HD
ENDBRANCH   3  10
TORSDOF 2
ENDMDL
MODEL 3
REMARK VINA RESULT:      -3.9      0.182      1.711
REMARK  2 active torsions:
REMARK  status: ('A' for Active; 'I' for Inactive)
REMARK    1  A    between atoms: C3_3  and  O1_10 
REMARK    2  A    between atoms: C6_6  and  N1_7 
ROOT
HETATM    1  C1  PAP L   1       8.523   6.285   9.089  1.00  0.00     0.026 A 
HETATM    2  C2  PAP L   1       8.326   4.936   8.781  1.00  0.00     0.038 A 
HETATM    3  C3  PAP L   1       7.255   4.562   7.981  1.00  0.00     0.065 A 
HETATM    4  C4  PAP L   1       6.384   5.519   7.471  1.00  0.00     0.038 A 
HETATM    5  C5  PAP L   1       6.587   6.867   7.785  1.00  0.00     0.026 A 
HETATM    6  C6  PAP L   1       7.625   7.257   8.636  1.00  0.00     0.005 A 
ENDROOT
BRANCH   6   7
HETATM    7  N1  PAP L   1       7.891   8.614   8.847  1.00  0.00    -0.303 NA
HETATM    8  H5  PAP L   1       7.172   9.232   8.486  1.00  0.00     0.124 HD
HETATM    9  H6  PAP L   1       8.823   8.899   8.563  1.00  0.00     0.124 HD
ENDBRANCH   6   7
BRANCH   3  10
HETATM   10  O1  PAP L   1       7.099   3.238   7.701  1.00  0.00    -0.361 OA
HETATM   11  H7  PAP L   1       6.423   2.873   8.295  1.00  0.00     0.217 HD
ENDBRANCH   3  10
TORSDOF 2
ENDMDL
MODEL 4
REMARK VINA RESULT:      -3.9      2.788      3.684
REMARK  2 active torsions:
REMARK  status: ('A' for Active; 'I' for Inactive)
REMARK    1  A    between atoms: C3_3  and  O1_10 
REMARK    2  A    between atoms: C6_6  and  N1_7 
ROOT
HETATM    1  C1  PAP L   1       8.335   5.066   8.880  1.00  0.00     0.026 A 
HETATM    2  C2  PAP L   1       8.571   6.401   9.219  1.00  0.00     0.038 A 
HETATM    3  C3  PAP L   1       7.761   7.397   8.691  1.00  0.00     0.065 A 
HETATM    4  C4  PAP L   1       6.708   7.079   7.841  1.00  0.00     0.038 A 
HETATM    5  C5  PAP L   1       6.479   5.740   7.506  1.00  0.00     0.026 A 
HETATM    6  C6  PAP L   1       7.319   4.728   7.980  1.00  0.00     0.005 A 
ENDROOT
BRANCH   6   7
HETATM    7  N1  PAP L   1       7.011   3.385   7.737  1.00  0.00    -0.303 NA
HETATM    8  H5  PAP L   1       6.018   3.207   7.630  1.00  0.00     0.124 HD
HETATM    9  H6  PAP L   1       7.451   2.739   8.385  1.00  0.00     0.124 HD
ENDBRANCH   6   7
BRANCH   3  10
HETATM   10  O1  PAP L   1       8.021   8.686   9.047  1.00  0.00    -0.361 OA
HETATM   11  H7  PAP L   1       8.522   8.683   9.879  1.00  0.00     0.217 HD
ENDBRANCH   3  10
TORSDOF 2
ENDMDL
MODEL 5
REMARK VINA RESULT:      -3.8      1.359      1.392
REMARK  2 active torsions:
REMARK  status: ('A' for Active; 'I' for Inactive)
REMARK    1  A    between atoms: C3_3  and  O1_10 
REMARK    2  A    between atoms: C6_6  and  N1_7 
ROOT
HETATM    1  C1  PAP L   1       6.707   7.149   6.711  1.00  0.00     0.026 A 
HETATM    2  C2  PAP L   1       5.946   6.007   6.974  1.00  0.00     0.038 A 
HETATM    3  C3  PAP L   1       6.540   4.910   7.583  1.00  0.00     0.065 A 
HETATM    4  C4  PAP L   1       7.881   4.943   7.949  1.00  0.00     0.038 A 
HETATM    5  C5  PAP L   1       8.636   6.089   7.682  1.00  0.00     0.026 A 
HETATM    6  C6  PAP L   1       8.071   7.182   7.016  1.00  0.00     0.005 A 
ENDROOT
BRANCH   6   7
HETATM    7  N1  PAP L   1       8.800   8.366   6.861  1.00  0.00    -0.303 NA
HETATM    8  H5  PAP L   1       9.488   8.327   6.116  1.00  0.00     0.124 HD
HETATM    9  H6  PAP L   1       9.188   8.725   7.727  1.00  0.00     0.124 HD
ENDBRANCH   6   7
BRANCH   3  10
HETATM   10  O1  PAP L   1       5.764   3.816   7.825  1.00  0.00    -0.361 OA
HETATM   11  H7  PAP L   1       5.331   3.928   8.686  1.00  0.00     0.217 HD
ENDBRANCH   3  10
TORSDOF 2
ENDMDL
MODEL 6
REMARK VINA RESULT:      -3.5      2.137      2.765
REMARK  2 active torsions:
REMARK  status: ('A' for Active; 'I' for Inactive)
REMARK    1  A    between atoms: C3_3  and  O1_10 
REMARK    2  A    between atoms: C6_6  and  N1_7 
ROOT
HETATM    1  C1  PAP L   1       8.084   6.661   8.427  1.00  0.00     0.026 A 
HETATM    2  C2  PAP L   1       7.069   7.049   7.549  1.00  0.00     0.038 A 
HETATM    3  C3  PAP L   1       6.186   6.098   7.056  1.00  0.00     0.065 A 
HETATM    4  C4  PAP L   1       6.292   4.766   7.440  1.00  0.00     0.038 A 
HETATM    5  C5  PAP L   1       7.311   4.385   8.319  1.00  0.00     0.026 A 
HETATM    6  C6  PAP L   1       8.246   5.318   8.780  1.00  0.00     0.005 A 
ENDROOT
BRANCH   6   7
HETATM    7  N1  PAP L   1       9.187   4.952   9.750  1.00  0.00    -0.303 NA
HETATM    8  H5  PAP L   1       9.434   5.705  10.383  1.00  0.00     0.124 HD
HETATM    9  H6  PAP L   1      10.003   4.482   9.373  1.00  0.00     0.124 HD
ENDBRANCH   6   7
BRANCH   3  10
HETATM   10  O1  PAP L   1       5.209   6.516   6.204  1.00  0.00    -0.361 OA
HETATM   11  H7  PAP L   1       5.323   6.063   5.353  1.00  0.00     0.217 HD
ENDBRANCH   3  10
TORSDOF 2
ENDMDL
MODEL 7
REMARK VINA RESULT:      -3.4      2.508      3.264
REMARK  2 active torsions:
REMARK  status: ('A' for Active; 'I' for Inactive)
REMARK    1  A    between atoms: C3_3  and  O1_10 
REMARK    2  A    between atoms: C6_6  and  N1_7 
ROOT
HETATM    1  C1  PAP L   1       7.821   4.842   8.306  1.00  0.00     0.026 A 
HETATM    2  C2  PAP L   1       8.960   5.351   8.936  1.00  0.00     0.038 A 
HETATM    3  C3  PAP L   1       9.084   6.720   9.127  1.00  0.00     0.065 A 
HETATM    4  C4  PAP L   1       8.080   7.588   8.714  1.00  0.00     0.038 A 
HETATM    5  C5  PAP L   1       6.944   7.071   8.084  1.00  0.00     0.026 A 
HETATM    6  C6  PAP L   1       6.826   5.701   7.829  1.00  0.00     0.005 A 
ENDROOT
BRANCH   6   7
HETATM    7  N1  PAP L   1       5.636   5.180   7.308  1.00  0.00    -0.303 NA
HETATM    8  H5  PAP L   1       5.274   4.389   7.829  1.00  0.00     0.124 HD
HETATM    9  H6  PAP L   1       5.668   5.003   6.309  1.00  0.00     0.124 HD
ENDBRANCH   6   7
BRANCH   3  10
HETATM   10  O1  PAP L   1      10.208   7.178   9.746  1.00  0.00    -0.361 OA
HETATM   11  H7  PAP L   1      10.720   7.705   9.111  1.00  0.00     0.217 HD
ENDBRANCH   3  10
TORSDOF 2
ENDMDL
MODEL 8
REMARK VINA RESULT:      -3.4      1.592      2.148
REMARK  2 active torsions:
REMARK  status: ('A' for Active; 'I' for Inactive)
REMARK    1  A    between atoms: C3_3  and  O1_10 
REMARK    2  A    between atoms: C6_6  and  N1_7 
ROOT
HETATM    1  C1  PAP L   1       8.163   7.114   6.848  1.00  0.00     0.026 A 
HETATM    2  C2  PAP L   1       8.790   5.929   7.244  1.00  0.00     0.038 A 
HETATM    3  C3  PAP L   1       8.022   4.849   7.656  1.00  0.00     0.065 A 
HETATM    4  C4  PAP L   1       6.634   4.928   7.664  1.00  0.00     0.038 A 
HETATM    5  C5  PAP L   1       6.013   6.116   7.267  1.00  0.00     0.026 A 
HETATM    6  C6  PAP L   1       6.771   7.235   6.905  1.00  0.00     0.005 A 
ENDROOT
BRANCH   6   7
HETATM    7  N1  PAP L   1       6.142   8.377   6.397  1.00  0.00    -0.303 NA
HETATM    8  H5  PAP L   1       6.742   9.195   6.368  1.00  0.00     0.124 HD
HETATM    9  H6  PAP L   1       5.242   8.574   6.823  1.00  0.00     0.124 HD
ENDBRANCH   6   7
BRANCH   3  10
HETATM   10  O1  PAP L   1       8.671   3.711   8.032  1.00  0.00    -0.361 OA
HETATM   11  H7  PAP L   1       8.083   2.954   7.881  1.00  0.00     0.217 HD
ENDBRANCH   3  10
TORSDOF 2
ENDMDL
MODEL 9
REMARK VINA RESULT:      -3.4      1.305      2.266
REMARK  2 active torsions:
REMARK  status: ('A' for Active; 'I' for Inactive)
REMARK    1  A    between atoms: C3_3  and  O1_10 
REMARK    2  A    between atoms: C6_6  and  N1_7 
ROOT
HETATM    1  C1  PAP L   1       9.566   6.672   9.475  1.00  0.00     0.026 A 
HETATM    2  C2  PAP L   1       9.900   5.386   9.043  1.00  0.00     0.038 A 
HETATM    3  C3  PAP L   1       9.032   4.693   8.209  1.00  0.00     0.065 A 
HETATM    4  C4  PAP L   1       7.841   5.273   7.788  1.00  0.00     0.038 A 
HETATM    5  C5  PAP L   1       7.513   6.560   8.225  1.00  0.00     0.026 A 
HETATM    6  C6  PAP L   1       8.346   7.251   9.112  1.00  0.00     0.005 A 
ENDROOT
BRANCH   6   7
HETATM    7  N1  PAP L   1       8.069   8.581   9.447  1.00  0.00    -0.303 NA
HETATM    8  H5  PAP L   1       7.301   8.983   8.920  1.00  0.00     0.124 HD
HETATM    9  H6  PAP L   1       8.887   9.181   9.456  1.00  0.00     0.124 HD
ENDBRANCH   6   7
BRANCH   3  10
HETATM   10  O1  PAP L   1       9.395   3.443   7.808  1.00  0.00    -0.361 OA
HETATM   11  H7  PAP L   1       9.057   2.800   8.452  1.00  0.00     0.217 HD
ENDBRANCH   3  10
TORSDOF 2
ENDMDL
MODEL 10
REMARK VINA RESULT:      -3.2      3.184      3.663
REMARK  2 active torsions:
REMARK  status: ('A' for Active; 'I' for Inactive)
REMARK    1  A    between atoms: C3_3  and  O1_10 
REMARK    2  A    between atoms: C6_6  and  N1_7 
ROOT
HETATM    1  C1  PAP L   1       7.640   5.890   7.701  1.00  0.00     0.026 A 
HETATM    2  C2  PAP L   1       6.667   6.870   7.486  1.00  0.00     0.038 A 
HETATM    3  C3  PAP L   1       6.884   7.857   6.535  1.00  0.00     0.065 A 
HETATM    4  C4  PAP L   1       8.053   7.871   5.782  1.00  0.00     0.038 A 
HETATM    5  C5  PAP L   1       9.022   6.887   6.003  1.00  0.00     0.026 A 
HETATM    6  C6  PAP L   1       8.848   5.919   6.997  1.00  0.00     0.005 A 
ENDROOT
BRANCH   6   7
HETATM    7  N1  PAP L   1       9.766   4.871   7.129  1.00  0.00    -0.303 NA
HETATM    8  H5  PAP L   1      10.532   4.915   6.465  1.00  0.00     0.124 HD
HETATM    9  H6  PAP L   1       9.337   3.952   7.164  1.00  0.00     0.124 HD
ENDBRANCH   6   7
BRANCH   3  10
HETATM   10  O1  PAP L   1       5.911   8.794   6.354  1.00  0.00    -0.361 OA
HETATM   11  H7  PAP L   1       6.331   9.665   6.270  1.00  0.00     0.217 HD
ENDBRANCH   3  10
TORSDOF 2
ENDMDL
MODEL 11
REMARK VINA RESULT:      -3.1      3.089      3.718
REMARK  2 active torsions:
REMARK  status: ('A' for Active; 'I' for Inactive)
REMARK    1  A    between atoms: C3_3  and  O1_10 
REMARK    2  A    between atoms: C6_6  and  N1_7 
ROOT
HETATM    1  C1  PAP L   1       9.105   5.588   7.235  1.00  0.00     0.026 A 
HETATM    2  C2  PAP L   1       9.305   6.633   6.329  1.00  0.00     0.038 A 
HETATM    3  C3  PAP L   1       8.226   7.406   5.923  1.00  0.00     0.065 A 
HETATM    4  C4  PAP L   1       6.951   7.160   6.422  1.00  0.00     0.038 A 
HETATM    5  C5  PAP L   1       6.759   6.112   7.327  1.00  0.00     0.026 A 
HETATM    6  C6  PAP L   1       7.823   5.285   7.703  1.00  0.00     0.005 A 
ENDROOT
BRANCH   6   7
HETATM    7  N1  PAP L   1       7.645   4.318   8.698  1.00  0.00    -0.303 NA
HETATM    8  H5  PAP L   1       7.335   4.698   9.586  1.00  0.00     0.124 HD
HETATM    9  H6  PAP L   1       8.433   3.687   8.803  1.00  0.00     0.124 HD
ENDBRANCH   6   7
BRANCH   3  10
HETATM   10  O1  PAP L   1       8.461   8.416   5.041  1.00  0.00    -0.361 OA
HETATM   11  H7  PAP L   1       8.631   8.032   4.166  1.00  0.00     0.217 HD
ENDBRANCH   3  10
TORSDOF 2
ENDMDL
MODEL 12
REMARK VINA RESULT:      -3.0      2.914      3.598
REMARK  2 active torsions:
REMARK  status: ('A' for Active; 'I' for Inactive)
REMARK    1  A    between atoms: C3_3  and  O1_10 
REMARK    2  A    between atoms: C6_6  and  N1_7 
ROOT
HETATM    1  C1  PAP L   1       9.350   5.958   8.763  1.00  0.00     0.026 A 
HETATM    2  C2  PAP L   1       8.414   6.807   9.360  1.00  0.00     0.038 A 
HETATM    3  C3  PAP L   1       7.458   7.437   8.575  1.00  0.00     0.065 A 
HETATM    4  C4  PAP L   1       7.413   7.219   7.203  1.00  0.00     0.038 A 
HETATM    5  C5  PAP L   1       8.353   6.369   6.612  1.00  0.00     0.026 A 
HETATM    6  C6  PAP L   1       9.360   5.772   7.378  1.00  0.00     0.005 A 
ENDROOT
BRANCH   6   7
HETATM    7  N1  PAP L   1      10.221   4.831   6.800  1.00  0.00    -0.303 NA
HETATM    8  H5  PAP L   1      10.751   5.193   6.014  1.00  0.00     0.124 HD
HETATM    9  H6  PAP L   1       9.776   3.943   6.590  1.00  0.00     0.124 HD
ENDBRANCH   6   7
BRANCH   3  10
HETATM   10  O1  PAP L   1       6.562   8.255   9.194  1.00  0.00    -0.361 OA
HETATM   11  H7  PAP L   1       6.327   7.866  10.052  1.00  0.00     0.217 HD
ENDBRANCH   3  10
TORSDOF 2
ENDMDL
MODEL 13
REMARK VINA RESULT:      -3.0      3.153      3.658
REMARK  2 active torsions:
REMARK  status: ('A' for Active; 'I' for Inactive)
REMARK    1  A    between atoms: C3_3  and  O1_10 
REMARK    2  A    between atoms: C6_6  and  N1_7 
ROOT
HETATM    1  C1  PAP L   1       7.799   7.134   6.288  1.00  0.00     0.026 A 
HETATM    2  C2  PAP L   1       7.050   8.299   6.474  1.00  0.00     0.038 A 
HETATM    3  C3  PAP L   1       6.793   8.752   7.761  1.00  0.00     0.065 A 
HETATM    4  C4  PAP L   1       7.288   8.067   8.865  1.00  0.00     0.038 A 
HETATM    5  C5  PAP L   1       8.036   6.902   8.671  1.00  0.00     0.026 A 
HETATM    6  C6  PAP L   1       8.255   6.397   7.385  1.00  0.00     0.005 A 
ENDROOT
BRANCH   6   7
HETATM    7  N1  PAP L   1       9.103   5.300   7.194  1.00  0.00    -0.303 NA
HETATM    8  H5  PAP L   1       9.736   5.406   6.408  1.00  0.00     0.124 HD
HETATM    9  H6  PAP L   1       8.623   4.406   7.185  1.00  0.00     0.124 HD
ENDBRANCH   6   7
BRANCH   3  10
HETATM   10  O1  PAP L   1       6.061   9.892   7.901  1.00  0.00    -0.361 OA
HETATM   11  H7  PAP L   1       5.420   9.941   7.174  1.00  0.00     0.217 HD
ENDBRANCH   3  10
TORSDOF 2
ENDMDL
MODEL 14
REMARK VINA RESULT:      -3.0      3.072      3.705
REMARK  2 active torsions:
REMARK  status: ('A' for Active; 'I' for Inactive)
REMARK    1  A    between atoms: C3_3  and  O1_10 
REMARK    2  A    between atoms: C6_6  and  N1_7 
ROOT
HETATM    1  C1  PAP L   1       8.005   8.888   6.333  1.00  0.00     0.026 A 
HETATM    2  C2  PAP L   1       7.395   9.262   7.534  1.00  0.00     0.038 A 
HETATM    3  C3  PAP L   1       6.931   8.285   8.403  1.00  0.00     0.065 A 
HETATM    4  C4  PAP L   1       7.082   6.936   8.099  1.00  0.00     0.038 A 
HETATM    5  C5  PAP L   1       7.692   6.569   6.895  1.00  0.00     0.026 A 
HETATM    6  C6  PAP L   1       8.113   7.539   5.979  1.00  0.00     0.005 A 
ENDROOT
BRANCH   6   7
HETATM    7  N1  PAP L   1       8.828   7.166   4.836  1.00  0.00    -0.303 NA
HETATM    8  H5  PAP L   1       8.561   6.260   4.466  1.00  0.00     0.124 HD
HETATM    9  H6  PAP L   1       9.834   7.262   4.932  1.00  0.00     0.124 HD
ENDBRANCH   6   7
BRANCH   3  10
HETATM   10  O1  PAP L   1       6.345   8.690   9.564  1.00  0.00    -0.361 OA
HETATM   11  H7  PAP L   1       6.645   8.110  10.282  1.00  0.00     0.217 HD
ENDBRANCH   3  10
TORSDOF 2
ENDMDL
MODEL 15
REMARK VINA RESULT:      -3.0      2.795      3.338
REMARK  2 active torsions:
REMARK  status: ('A' for Active; 'I' for Inactive)
REMARK    1  A    between atoms: C3_3  and  O1_10 
REMARK    2  A    between atoms: C6_6  and  N1_7 
ROOT
HETATM    1  C1  PAP L   1       7.935   6.729   7.768  1.00  0.00     0.026 A 
HETATM    2  C2  PAP L   1       8.712   6.303   6.688  1.00  0.00     0.038 A 
HETATM    3  C3  PAP L   1       8.852   7.122   5.576  1.00  0.00     0.065 A 
HETATM    4  C4  PAP L   1       8.240   8.370   5.535  1.00  0.00     0.038 A 
HETATM    5  C5  PAP L   1       7.463   8.789   6.619  1.00  0.00     0.026 A 
HETATM    6  C6  PAP L   1       7.262   7.953   7.723  1.00  0.00     0.005 A 
ENDROOT
BRANCH   6   7
HETATM    7  N1  PAP L   1       6.584   8.428   8.852  1.00  0.00    -0.303 NA
HETATM    8  H5  PAP L   1       6.981   8.109   9.729  1.00  0.00     0.124 HD
HETATM    9  H6  PAP L   1       5.579   8.296   8.812  1.00  0.00     0.124 HD
ENDBRANCH   6   7
BRANCH   3  10
HETATM   10  O1  PAP L   1       9.619   6.673   4.544  1.00  0.00    -0.361 OA
HETATM   11  H7  PAP L   1      10.518   7.023   4.650  1.00  0.00     0.217 HD
ENDBRANCH   3  10
TORSDOF 2
ENDMDL
MODEL 16
REMARK VINA RESULT:      -2.9      3.459      4.269
REMARK  2 active torsions:
REMARK  status: ('A' for Active; 'I' for Inactive)
REMARK    1  A    between atoms: C3_3  and  O1_10 
REMARK    2  A    between atoms: C6_6  and  N1_7 
ROOT
HETATM    1  C1  PAP L   1       7.133   7.728   7.260  1.00  0.00     0.026 A 
HETATM    2  C2  PAP L   1       6.306   8.658   6.624  1.00  0.00     0.038 A 
HETATM    3  C3  PAP L   1       5.875   9.781   7.316  1.00  0.00     0.065 A 
HETATM    4  C4  PAP L   1       6.270   9.998   8.631  1.00  0.00     0.038 A 
HETATM    5  C5  PAP L   1       7.097   9.063   9.261  1.00  0.00     0.026 A 
HETATM    6  C6  PAP L   1       7.494   7.896   8.600  1.00  0.00     0.005 A 
ENDROOT
BRANCH   6   7
HETATM    7  N1  PAP L   1       8.417   7.028   9.195  1.00  0.00    -0.303 NA
HETATM    8  H5  PAP L   1       8.417   7.067  10.209  1.00  0.00     0.124 HD
HETATM    9  H6  PAP L   1       9.351   7.092   8.806  1.00  0.00     0.124 HD
ENDBRANCH   6   7
BRANCH   3  10
HETATM   10  O1  PAP L   1       5.071  10.665   6.661  1.00  0.00    -0.361 OA
HETATM   11  H7  PAP L   1       5.591  11.456   6.447  1.00  0.00     0.217 HD
ENDBRANCH   3  10
TORSDOF 2
ENDMDL
MODEL 17
REMARK VINA RESULT:      -2.8      3.889      4.699
REMARK  2 active torsions:
REMARK  status: ('A' for Active; 'I' for Inactive)
REMARK    1  A    between atoms: C3_3  and  O1_10 
REMARK    2  A    between atoms: C6_6  and  N1_7 
ROOT
HETATM    1  C1  PAP L   1       6.130   9.227   6.662  1.00  0.00     0.026 A 
HETATM    2  C2  PAP L   1       5.807  10.332   7.454  1.00  0.00     0.038 A 
HETATM    3  C3  PAP L   1       6.120  10.323   8.807  1.00  0.00     0.065 A 
HETATM    4  C4  PAP L   1       6.765   9.232   9.378  1.00  0.00     0.038 A 
HETATM    5  C5  PAP L   1       7.085   8.130   8.580  1.00  0.00     0.026 A 
HETATM    6  C6  PAP L   1       6.726   8.095   7.228  1.00  0.00     0.005 A 
ENDROOT
BRANCH   6   7
HETATM    7  N1  PAP L   1       7.154   7.042   6.412  1.00  0.00    -0.303 NA
HETATM    8  H5  PAP L   1       6.448   6.330   6.260  1.00  0.00     0.124 HD
HETATM    9  H6  PAP L   1       8.048   6.647   6.688  1.00  0.00     0.124 HD
ENDBRANCH   6   7
BRANCH   3  10
HETATM   10  O1  PAP L   1       5.790  11.420   9.545  1.00  0.00    -0.361 OA
HETATM   11  H7  PAP L   1       5.186  11.147  10.254  1.00  0.00     0.217 HD
ENDBRANCH   3  10
TORSDOF 2
ENDMDL
MODEL 18
REMARK VINA RESULT:      -2.8      3.072      3.657
REMARK  2 active torsions:
REMARK  status: ('A' for Active; 'I' for Inactive)
REMARK    1  A    between atoms: C3_3  and  O1_10 
REMARK    2  A    between atoms: C6_6  and  N1_7 
ROOT
HETATM    1  C1  PAP L   1       8.874   8.408   5.535  1.00  0.00     0.026 A 
HETATM    2  C2  PAP L   1       7.917   7.394   5.636  1.00  0.00     0.038 A 
HETATM    3  C3  PAP L   1       6.861   7.532   6.526  1.00  0.00     0.065 A 
HETATM    4  C4  PAP L   1       6.737   8.676   7.306  1.00  0.00     0.038 A 
HETATM    5  C5  PAP L   1       7.699   9.686   7.201  1.00  0.00     0.026 A 
HETATM    6  C6  PAP L   1       8.802   9.539   6.353  1.00  0.00     0.005 A 
ENDROOT
BRANCH   6   7
HETATM    7  N1  PAP L   1       9.692  10.603   6.165  1.00  0.00    -0.303 NA
HETATM    8  H5  PAP L   1      10.014  11.023   7.030  1.00  0.00     0.124 HD
HETATM    9  H6  PAP L   1       9.369  11.295   5.497  1.00  0.00     0.124 HD
ENDBRANCH   6   7
BRANCH   3  10
HETATM   10  O1  PAP L   1       5.948   6.524   6.594  1.00  0.00    -0.361 OA
HETATM   11  H7  PAP L   1       6.324   5.799   7.119  1.00  0.00     0.217 HD
ENDBRANCH   3  10
TORSDOF 2
ENDMDL
MODEL 19
REMARK VINA RESULT:      -2.6      4.003      4.570
REMARK  2 active torsions:
REMARK  status: ('A' for Active; 'I' for Inactive)
REMARK    1  A    between atoms: C3_3  and  O1_10 
REMARK    2  A    between atoms: C6_6  and  N1_7 
ROOT
HETATM    1  C1  PAP L   1       7.818   7.588   5.874  1.00  0.00     0.026 A 
HETATM    2  C2  PAP L   1       8.874   7.596   4.959  1.00  0.00     0.038 A 
HETATM    3  C3  PAP L   1       9.771   8.655   4.953  1.00  0.00     0.065 A 
HETATM    4  C4  PAP L   1       9.638   9.701   5.860  1.00  0.00     0.038 A 
HETATM    5  C5  PAP L   1       8.579   9.686   6.773  1.00  0.00     0.026 A 
HETATM    6  C6  PAP L   1       7.631   8.658   6.755  1.00  0.00     0.005 A 
ENDROOT
BRANCH   6   7
HETATM    7  N1  PAP L   1       6.646   8.590   7.746  1.00  0.00    -0.303 NA
HETATM    8  H5  PAP L   1       6.774   7.823   8.398  1.00  0.00     0.124 HD
HETATM    9  H6  PAP L   1       5.698   8.636   7.387  1.00  0.00     0.124 HD
ENDBRANCH   6   7
BRANCH   3  10
HETATM   10  O1  PAP L   1      10.788   8.625   4.048  1.00  0.00    -0.361 OA
HETATM   11  H7  PAP L   1      11.522   8.113   4.423  1.00  0.00     0.217 HD
ENDBRANCH   3  10
TORSDOF 2
ENDMDL
MODEL 20
REMARK VINA RESULT:      -2.6      2.409      2.781
REMARK  2 active torsions:
REMARK  status: ('A' for Active; 'I' for Inactive)
REMARK    1  A    between atoms: C3_3  and  O1_10 
REMARK    2  A    between atoms: C6_6  and  N1_7 
ROOT
HETATM    1  C1  PAP L   1       9.326   6.818   7.311  1.00  0.00     0.026 A 
HETATM    2  C2  PAP L   1       8.172   6.679   6.535  1.00  0.00     0.038 A 
HETATM    3  C3  PAP L   1       6.940   7.033   7.066  1.00  0.00     0.065 A 
HETATM    4  C4  PAP L   1       6.844   7.541   8.357  1.00  0.00     0.038 A 
HETATM    5  C5  PAP L   1       8.003   7.677   9.128  1.00  0.00     0.026 A 
HETATM    6  C6  PAP L   1       9.246   7.270   8.631  1.00  0.00     0.005 A 
ENDROOT
BRANCH   6   7
HETATM    7  N1  PAP L   1      10.413   7.521   9.362  1.00  0.00    -0.303 NA
HETATM    8  H5  PAP L   1      10.565   8.503   9.564  1.00  0.00     0.124 HD
HETATM    9  H6  PAP L   1      11.240   7.072   8.982  1.00  0.00     0.124 HD
ENDBRANCH   6   7
BRANCH   3  10
HETATM   10  O1  PAP L   1       5.839   6.885   6.278  1.00  0.00    -0.361 OA
HETATM   11  H7  PAP L   1       6.119   6.886   5.349  1.00  0.00     0.217 HD
ENDBRANCH   3  10
TORSDOF 2
ENDMDL
