MODEL 1
REMARK VINA RESULT:      -4.5      0.000      0.000
REMARK  2 active torsions:
REMARK  status: ('A' for Active; 'I' for Inactive)
REMARK    1  A    between atoms: C3_3  and  O1_8 
REMARK    2  A    between atoms: C6_6  and  N1_7 
ROOT
HETATM    1  C1  UNL     1      10.233   5.171  -3.400  1.00  0.00     0.026 A 
HETATM    2  C2  UNL     1       9.925   4.423  -2.261  1.00  0.00     0.038 A 
HETATM    3  C3  UNL     1       8.622   4.402  -1.783  1.00  0.00     0.065 A 
HETATM    4  C4  UNL     1       7.617   5.106  -2.436  1.00  0.00     0.038 A 
HETATM    5  C5  UNL     1       7.933   5.854  -3.575  1.00  0.00     0.026 A 
HETATM    6  C6  UNL     1       9.250   5.934  -4.037  1.00  0.00     0.005 A 
ENDROOT
BRANCH   6   7
HETATM    7  N1  UNL     1       9.535   6.586  -5.243  1.00  0.00    -0.303 NA
HETATM    8  H5  UNL     1       8.792   7.201  -5.560  1.00  0.00     0.124 HD
HETATM    9  H6  UNL     1       9.864   5.967  -5.976  1.00  0.00     0.124 HD
ENDBRANCH   6   7
BRANCH   3  10
HETATM   10  O1  UNL     1       8.362   3.658  -0.671  1.00  0.00    -0.361 OA
HETATM   11  H7  UNL     1       7.723   2.966  -0.904  1.00  0.00     0.217 HD
ENDBRANCH   3  10
TORSDOF 2
ENDMDL
MODEL 2
REMARK VINA RESULT:      -4.5      2.817      3.296
REMARK  2 active torsions:
REMARK  status: ('A' for Active; 'I' for Inactive)
REMARK    1  A    between atoms: C3_3  and  O1_8 
REMARK    2  A    between atoms: C6_6  and  N1_7 
ROOT
HETATM    1  C1  UNL     1      10.104   4.996  -2.272  1.00  0.00     0.026 A 
HETATM    2  C2  UNL     1      10.473   5.674  -3.436  1.00  0.00     0.038 A 
HETATM    3  C3  UNL     1       9.498   6.060  -4.345  1.00  0.00     0.065 A 
HETATM    4  C4  UNL     1       8.156   5.792  -4.100  1.00  0.00     0.038 A 
HETATM    5  C5  UNL     1       7.794   5.112  -2.933  1.00  0.00     0.026 A 
HETATM    6  C6  UNL     1       8.767   4.663  -2.034  1.00  0.00     0.005 A 
ENDROOT
BRANCH   6   7
HETATM    7  N1  UNL     1       8.389   4.090  -0.814  1.00  0.00    -0.303 NA
HETATM    8  H5  UNL     1       7.484   3.631  -0.843  1.00  0.00     0.124 HD
HETATM    9  H6  UNL     1       8.479   4.716  -0.021  1.00  0.00     0.124 HD
ENDBRANCH   6   7
BRANCH   3  10
HETATM   10  O1  UNL     1       9.898   6.722  -5.467  1.00  0.00    -0.361 OA
HETATM   11  H7  UNL     1       9.671   6.183  -6.242  1.00  0.00     0.217 HD
ENDBRANCH   3  10
TORSDOF 2
ENDMDL
MODEL 3
REMARK VINA RESULT:      -4.3     10.923     11.248
REMARK  2 active torsions:
REMARK  status: ('A' for Active; 'I' for Inactive)
REMARK    1  A    between atoms: C3_3  and  O1_8 
REMARK    2  A    between atoms: C6_6  and  N1_7 
ROOT
HETATM    1  C1  UNL     1      10.182  10.212   5.464  1.00  0.00     0.026 A 
HETATM    2  C2  UNL     1      10.988  11.220   4.930  1.00  0.00     0.038 A 
HETATM    3  C3  UNL     1      10.677  12.550   5.174  1.00  0.00     0.065 A 
HETATM    4  C4  UNL     1       9.580  12.889   5.957  1.00  0.00     0.038 A 
HETATM    5  C5  UNL     1       8.776  11.875   6.486  1.00  0.00     0.026 A 
HETATM    6  C6  UNL     1       9.039  10.531   6.204  1.00  0.00     0.005 A 
ENDROOT
BRANCH   6   7
HETATM    7  N1  UNL     1       8.303   9.521   6.834  1.00  0.00    -0.303 NA
HETATM    8  H5  UNL     1       7.457   9.262   6.336  1.00  0.00     0.124 HD
HETATM    9  H6  UNL     1       8.134   9.691   7.820  1.00  0.00     0.124 HD
ENDBRANCH   6   7
BRANCH   3  10
HETATM   10  O1  UNL     1      11.490  13.504   4.638  1.00  0.00    -0.361 OA
HETATM   11  H7  UNL     1      12.405  13.314   4.900  1.00  0.00     0.217 HD
ENDBRANCH   3  10
TORSDOF 2
ENDMDL
MODEL 4
REMARK VINA RESULT:      -4.2      3.091      3.800
REMARK  2 active torsions:
REMARK  status: ('A' for Active; 'I' for Inactive)
REMARK    1  A    between atoms: C3_3  and  O1_8 
REMARK    2  A    between atoms: C6_6  and  N1_7 
ROOT
HETATM    1  C1  UNL     1       9.071   6.216  -1.582  1.00  0.00     0.026 A 
HETATM    2  C2  UNL     1       8.928   7.476  -2.167  1.00  0.00     0.038 A 
HETATM    3  C3  UNL     1       9.601   7.769  -3.344  1.00  0.00     0.065 A 
HETATM    4  C4  UNL     1      10.405   6.814  -3.956  1.00  0.00     0.038 A 
HETATM    5  C5  UNL     1      10.545   5.555  -3.365  1.00  0.00     0.026 A 
HETATM    6  C6  UNL     1       9.921   5.261  -2.148  1.00  0.00     0.005 A 
ENDROOT
BRANCH   6   7
HETATM    7  N1  UNL     1       9.971   3.963  -1.626  1.00  0.00    -0.303 NA
HETATM    8  H5  UNL     1      10.838   3.750  -1.144  1.00  0.00     0.124 HD
HETATM    9  H6  UNL     1       9.712   3.243  -2.292  1.00  0.00     0.124 HD
ENDBRANCH   6   7
BRANCH   3  10
HETATM   10  O1  UNL     1       9.433   9.009  -3.885  1.00  0.00    -0.361 OA
HETATM   11  H7  UNL     1       9.977   9.640  -3.387  1.00  0.00     0.217 HD
ENDBRANCH   3  10
TORSDOF 2
ENDMDL
MODEL 5
REMARK VINA RESULT:      -4.2      3.006      3.531
REMARK  2 active torsions:
REMARK  status: ('A' for Active; 'I' for Inactive)
REMARK    1  A    between atoms: C3_3  and  O1_8 
REMARK    2  A    between atoms: C6_6  and  N1_7 
ROOT
HETATM    1  C1  UNL     1       9.346   6.208  -4.512  1.00  0.00     0.026 A 
HETATM    2  C2  UNL     1      10.176   7.318  -4.334  1.00  0.00     0.038 A 
HETATM    3  C3  UNL     1       9.943   8.188  -3.278  1.00  0.00     0.065 A 
HETATM    4  C4  UNL     1       8.901   7.956  -2.386  1.00  0.00     0.038 A 
HETATM    5  C5  UNL     1       8.074   6.844  -2.572  1.00  0.00     0.026 A 
HETATM    6  C6  UNL     1       8.257   5.989  -3.664  1.00  0.00     0.005 A 
ENDROOT
BRANCH   6   7
HETATM    7  N1  UNL     1       7.501   4.816  -3.774  1.00  0.00    -0.303 NA
HETATM    8  H5  UNL     1       6.625   4.845  -3.262  1.00  0.00     0.124 HD
HETATM    9  H6  UNL     1       8.029   3.970  -3.589  1.00  0.00     0.124 HD
ENDBRANCH   6   7
BRANCH   3  10
HETATM   10  O1  UNL     1      10.776   9.257  -3.136  1.00  0.00    -0.361 OA
HETATM   11  H7  UNL     1      11.613   8.949  -2.753  1.00  0.00     0.217 HD
ENDBRANCH   3  10
TORSDOF 2
ENDMDL
MODEL 6
REMARK VINA RESULT:      -4.2     26.748     27.514
REMARK  2 active torsions:
REMARK  status: ('A' for Active; 'I' for Inactive)
REMARK    1  A    between atoms: C3_3  and  O1_8 
REMARK    2  A    between atoms: C6_6  and  N1_7 
ROOT
HETATM    1  C1  UNL     1       2.025  -6.126  22.136  1.00  0.00     0.026 A 
HETATM    2  C2  UNL     1       2.807  -6.720  21.143  1.00  0.00     0.038 A 
HETATM    3  C3  UNL     1       3.872  -6.019  20.596  1.00  0.00     0.065 A 
HETATM    4  C4  UNL     1       4.179  -4.737  21.039  1.00  0.00     0.038 A 
HETATM    5  C5  UNL     1       3.392  -4.149  22.033  1.00  0.00     0.026 A 
HETATM    6  C6  UNL     1       2.278  -4.816  22.555  1.00  0.00     0.005 A 
ENDROOT
BRANCH   6   7
HETATM    7  N1  UNL     1       1.569  -4.270  23.630  1.00  0.00    -0.303 NA
HETATM    8  H5  UNL     1       0.634  -4.649  23.737  1.00  0.00     0.124 HD
HETATM    9  H6  UNL     1       1.580  -3.256  23.656  1.00  0.00     0.124 HD
ENDBRANCH   6   7
BRANCH   3  10
HETATM   10  O1  UNL     1       4.613  -6.634  19.631  1.00  0.00    -0.361 OA
HETATM   11  H7  UNL     1       4.243  -7.517  19.473  1.00  0.00     0.217 HD
ENDBRANCH   3  10
TORSDOF 2
ENDMDL
MODEL 7
REMARK VINA RESULT:      -4.1     10.413     10.739
REMARK  2 active torsions:
REMARK  status: ('A' for Active; 'I' for Inactive)
REMARK    1  A    between atoms: C3_3  and  O1_8 
REMARK    2  A    between atoms: C6_6  and  N1_7 
ROOT
HETATM    1  C1  UNL     1      10.167  12.562   5.916  1.00  0.00     0.026 A 
HETATM    2  C2  UNL     1       9.127  11.788   6.437  1.00  0.00     0.038 A 
HETATM    3  C3  UNL     1       9.078  10.428   6.163  1.00  0.00     0.065 A 
HETATM    4  C4  UNL     1      10.064   9.826   5.388  1.00  0.00     0.038 A 
HETATM    5  C5  UNL     1      11.100  10.607   4.869  1.00  0.00     0.026 A 
HETATM    6  C6  UNL     1      11.135  11.989   5.085  1.00  0.00     0.005 A 
ENDROOT
BRANCH   6   7
HETATM    7  N1  UNL     1      12.237  12.741   4.663  1.00  0.00    -0.303 NA
HETATM    8  H5  UNL     1      12.269  12.889   3.660  1.00  0.00     0.124 HD
HETATM    9  H6  UNL     1      13.123  12.414   5.034  1.00  0.00     0.124 HD
ENDBRANCH   6   7
BRANCH   3  10
HETATM   10  O1  UNL     1       8.050   9.707   6.692  1.00  0.00    -0.361 OA
HETATM   11  H7  UNL     1       8.077   9.792   7.658  1.00  0.00     0.217 HD
ENDBRANCH   3  10
TORSDOF 2
ENDMDL
MODEL 8
REMARK VINA RESULT:      -4.0     33.559     34.463
REMARK  2 active torsions:
REMARK  status: ('A' for Active; 'I' for Inactive)
REMARK    1  A    between atoms: C3_3  and  O1_8 
REMARK    2  A    between atoms: C6_6  and  N1_7 
ROOT
HETATM    1  C1  UNL     1     -18.428  -5.368  12.601  1.00  0.00     0.026 A 
HETATM    2  C2  UNL     1     -19.222  -4.221  12.535  1.00  0.00     0.038 A 
HETATM    3  C3  UNL     1     -20.180  -3.990  13.512  1.00  0.00     0.065 A 
HETATM    4  C4  UNL     1     -20.346  -4.883  14.565  1.00  0.00     0.038 A 
HETATM    5  C5  UNL     1     -19.548  -6.030  14.624  1.00  0.00     0.026 A 
HETATM    6  C6  UNL     1     -18.618  -6.309  13.617  1.00  0.00     0.005 A 
ENDROOT
BRANCH   6   7
HETATM    7  N1  UNL     1     -17.744  -7.394  13.747  1.00  0.00    -0.303 NA
HETATM    8  H5  UNL     1     -17.643  -7.939  12.896  1.00  0.00     0.124 HD
HETATM    9  H6  UNL     1     -17.927  -7.974  14.558  1.00  0.00     0.124 HD
ENDBRANCH   6   7
BRANCH   3  10
HETATM   10  O1  UNL     1     -20.933  -2.859  13.414  1.00  0.00    -0.361 OA
HETATM   11  H7  UNL     1     -20.610  -2.215  14.065  1.00  0.00     0.217 HD
ENDBRANCH   3  10
TORSDOF 2
ENDMDL
MODEL 9
REMARK VINA RESULT:      -3.9     28.311     28.770
REMARK  2 active torsions:
REMARK  status: ('A' for Active; 'I' for Inactive)
REMARK    1  A    between atoms: C3_3  and  O1_8 
REMARK    2  A    between atoms: C6_6  and  N1_7 
ROOT
HETATM    1  C1  UNL     1     -13.294 -12.903  -8.418  1.00  0.00     0.026 A 
HETATM    2  C2  UNL     1     -12.029 -13.479  -8.279  1.00  0.00     0.038 A 
HETATM    3  C3  UNL     1     -11.132 -13.431  -9.336  1.00  0.00     0.065 A 
HETATM    4  C4  UNL     1     -11.474 -12.800 -10.527  1.00  0.00     0.038 A 
HETATM    5  C5  UNL     1     -12.742 -12.227 -10.659  1.00  0.00     0.026 A 
HETATM    6  C6  UNL     1     -13.681 -12.316  -9.627  1.00  0.00     0.005 A 
ENDROOT
BRANCH   6   7
HETATM    7  N1  UNL     1     -14.901 -11.638  -9.723  1.00  0.00    -0.303 NA
HETATM    8  H5  UNL     1     -15.647 -12.062  -9.180  1.00  0.00     0.124 HD
HETATM    9  H6  UNL     1     -15.184 -11.436 -10.676  1.00  0.00     0.124 HD
ENDBRANCH   6   7
BRANCH   3  10
HETATM   10  O1  UNL     1      -9.907 -14.002  -9.160  1.00  0.00    -0.361 OA
HETATM   11  H7  UNL     1      -9.653 -14.450  -9.982  1.00  0.00     0.217 HD
ENDBRANCH   3  10
TORSDOF 2
ENDMDL
