MODEL 1
REMARK VINA RESULT:      -5.3      0.000      0.000
REMARK  27 active torsions:
REMARK  status: ('A' for Active; 'I' for Inactive)
REMARK    1  A    between atoms: C2_2  and  S1_4 
REMARK    2  A    between atoms: S1_4  and  C3_5 
REMARK    3  A    between atoms: C3_5  and  C4_6 
REMARK    4  A    between atoms: C4_6  and  N1_7 
REMARK       I    between atoms: N1_7  and  C5_8 
REMARK    5  A    between atoms: C5_8  and  C6_10 
REMARK    6  A    between atoms: C6_10  and  C7_11 
REMARK    7  A    between atoms: C7_11  and  N2_12 
REMARK       I    between atoms: N2_12  and  C8_13 
REMARK    8  A    between atoms: C8_13  and  C9_15 
REMARK    9  A    between atoms: C9_15  and  C10_16 
REMARK   10  A    between atoms: C9_15  and  O17_54 
REMARK   11  A    between atoms: C10_16  and  C13_19 
REMARK   12  A    between atoms: C13_19  and  O4_20 
REMARK   13  A    between atoms: O4_20  and  P1_21 
REMARK   14  A    between atoms: P1_21  and  O6_23 
REMARK   15  A    between atoms: P1_21  and  O7_24 
REMARK   16  A    between atoms: O7_24  and  P2_25 
REMARK   17  A    between atoms: P2_25  and  O9_27 
REMARK   18  A    between atoms: P2_25  and  O10_28 
REMARK   19  A    between atoms: O10_28  and  C14_29 
REMARK   20  A    between atoms: C14_29  and  C15_30 
REMARK   21  A    between atoms: C16_31  and  O13_49 
REMARK   22  A    between atoms: C17_32  and  O12_48 
REMARK   23  A    between atoms: C18_33  and  N3_35 
REMARK   24  A    between atoms: C21_40  and  N7_47 
REMARK   25  A    between atoms: O13_49  and  P3_50 
REMARK   26  A    between atoms: P3_50  and  O15_52 
REMARK   27  A    between atoms: P3_50  and  O16_53 
ROOT
HETATM    1  C1  UNL     1      -8.556  10.313  -7.749  1.00  0.00     0.104 C 
HETATM    2  C2  UNL     1      -7.500   9.523  -7.038  1.00  0.00     0.182 C 
HETATM    3  O1  UNL     1      -6.711  10.018  -6.237  1.00  0.00    -0.286 OA
ENDROOT
BRANCH   2   4
HETATM    4  S1  UNL     1      -7.451   7.820  -7.475  1.00  0.00    -0.091 SA
BRANCH   4   5
HETATM    5  C3  UNL     1      -8.737   7.164  -6.364  1.00  0.00     0.102 C 
BRANCH   5   6
HETATM    6  C4  UNL     1     -10.120   7.183  -7.018  1.00  0.00     0.133 C 
BRANCH   6   7
HETATM    7  N1  UNL     1     -11.194   7.282  -6.052  1.00  0.00    -0.360 N 
HETATM    8  C5  UNL     1     -12.514   7.171  -6.424  1.00  0.00     0.219 C 
HETATM    9  O2  UNL     1     -12.864   7.065  -7.593  1.00  0.00    -0.274 OA
HETATM   10  H8  UNL     1     -10.961   7.428  -5.079  1.00  0.00     0.162 HD
BRANCH   8  11
HETATM   11  C6  UNL     1     -13.473   7.247  -5.256  1.00  0.00     0.122 C 
BRANCH  11  12
HETATM   12  C7  UNL     1     -14.092   8.638  -5.114  1.00  0.00     0.132 C 
BRANCH  12  13
HETATM   13  N2  UNL     1     -14.474   9.221  -6.383  1.00  0.00    -0.358 N 
HETATM   14  C8  UNL     1     -14.315  10.576  -6.603  1.00  0.00     0.247 C 
HETATM   15  O3  UNL     1     -13.966  11.344  -5.716  1.00  0.00    -0.271 OA
HETATM   16  H13 UNL     1     -14.393   8.605  -7.190  1.00  0.00     0.162 HD
BRANCH  14  17
HETATM   17  C9  UNL     1     -14.592  11.032  -8.044  1.00  0.00     0.219 C 
BRANCH  17  18
HETATM   18  C10 UNL     1     -13.326  11.437  -8.844  1.00  0.00     0.009 C 
HETATM   19  C11 UNL     1     -12.725  12.759  -8.344  1.00  0.00     0.020 C 
HETATM   20  C12 UNL     1     -12.232  10.355  -8.757  1.00  0.00     0.020 C 
BRANCH  18  21
HETATM   21  C13 UNL     1     -13.788  11.599 -10.320  1.00  0.00     0.192 C 
BRANCH  21  22
HETATM   22  O4  UNL     1     -13.298  10.569 -11.154  1.00  0.00    -0.296 OA
BRANCH  22  23
HETATM   23  P1  UNL     1     -14.181   9.886 -12.305  1.00  0.00     0.401 P 
HETATM   24  O5  UNL     1     -14.068  10.554 -13.640  1.00  0.00    -0.631 OA
BRANCH  23  25
HETATM   25  O6  UNL     1     -15.688   9.801 -11.747  1.00  0.00    -0.307 OA
HETATM   26  H23 UNL     1     -15.753   9.238 -10.965  1.00  0.00     0.222 HD
ENDBRANCH  23  25
BRANCH  23  27
HETATM   27  O7  UNL     1     -13.759   8.353 -12.292  1.00  0.00    -0.195 OA
BRANCH  27  28
HETATM   28  P2  UNL     1     -14.862   7.253 -11.955  1.00  0.00     0.401 P 
HETATM   29  O8  UNL     1     -16.049   7.188 -12.858  1.00  0.00    -0.631 OA
BRANCH  28  30
HETATM   30  O9  UNL     1     -14.020   5.898 -11.887  1.00  0.00    -0.307 OA
HETATM   31  H24 UNL     1     -14.451   5.182 -11.360  1.00  0.00     0.222 HD
ENDBRANCH  28  30
BRANCH  28  32
HETATM   32  O10 UNL     1     -15.175   7.483 -10.406  1.00  0.00    -0.294 OA
BRANCH  32  33
HETATM   33  C14 UNL     1     -16.412   7.087  -9.874  1.00  0.00     0.215 C 
BRANCH  33  34
HETATM   34  C15 UNL     1     -16.116   6.508  -8.491  1.00  0.00     0.180 C 
HETATM   35  C16 UNL     1     -16.920   5.231  -8.284  1.00  0.00     0.197 C 
HETATM   36  C17 UNL     1     -17.829   5.535  -7.108  1.00  0.00     0.199 C 
HETATM   37  C18 UNL     1     -17.049   6.627  -6.371  1.00  0.00     0.262 C 
HETATM   38  O11 UNL     1     -16.445   7.408  -7.426  1.00  0.00    -0.353 OA
BRANCH  35  39
HETATM   39  O13 UNL     1     -16.007   4.177  -7.999  1.00  0.00    -0.286 OA
BRANCH  39  40
HETATM   40  P3  UNL     1     -15.122   3.678  -9.234  1.00  0.00     0.391 P 
HETATM   41  O14 UNL     1     -15.815   3.784 -10.553  1.00  0.00    -0.632 OA
BRANCH  40  42
HETATM   42  O15 UNL     1     -14.705   2.217  -8.732  1.00  0.00    -0.307 OA
HETATM   43  H36 UNL     1     -13.906   2.262  -8.154  1.00  0.00     0.222 HD
ENDBRANCH  40  42
BRANCH  40  44
HETATM   44  O16 UNL     1     -13.792   4.524  -9.030  1.00  0.00    -0.307 OA
HETATM   45  H37 UNL     1     -13.067   4.230  -9.604  1.00  0.00     0.222 HD
ENDBRANCH  40  44
ENDBRANCH  39  40
ENDBRANCH  35  39
BRANCH  36  46
HETATM   46  O12 UNL     1     -18.123   4.336  -6.386  1.00  0.00    -0.388 OA
HETATM   47  H35 UNL     1     -17.680   3.602  -6.874  1.00  0.00     0.210 HD
ENDBRANCH  36  46
BRANCH  37  48
HETATM   48  N3  UNL     1     -17.908   7.490  -5.585  1.00  0.00    -0.297 N 
HETATM   49  C19 UNL     1     -19.070   8.101  -5.994  1.00  0.00     0.188 A 
HETATM   50  N4  UNL     1     -19.684   8.716  -5.007  1.00  0.00    -0.346 N 
HETATM   51  C20 UNL     1     -18.882   8.488  -3.902  1.00  0.00     0.116 A 
HETATM   52  H4  UNL     1     -20.556   9.243  -5.046  1.00  0.00     0.167 HD
HETATM   53  C21 UNL     1     -19.004   8.841  -2.547  1.00  0.00     0.109 A 
HETATM   54  C23 UNL     1     -17.758   7.763  -4.254  1.00  0.00     0.142 A 
HETATM   55  N5  UNL     1     -18.022   8.471  -1.689  1.00  0.00    -0.341 N 
HETATM   56  C22 UNL     1     -16.971   7.785  -2.179  1.00  0.00     0.183 A 
HETATM   57  H5  UNL     1     -18.078   8.705  -0.697  1.00  0.00     0.167 HD
HETATM   58  N6  UNL     1     -16.750   7.386  -3.448  1.00  0.00    -0.336 N 
HETATM   59  H6  UNL     1     -15.928   6.866  -3.756  1.00  0.00     0.168 HD
BRANCH  53  60
HETATM   60  N7  UNL     1     -20.076   9.558  -2.040  1.00  0.00    -0.287 NA
HETATM   61  H33 UNL     1     -20.479  10.227  -2.692  1.00  0.00     0.125 HD
HETATM   62  H34 UNL     1     -19.923   9.881  -1.094  1.00  0.00     0.125 HD
ENDBRANCH  53  60
ENDBRANCH  37  48
ENDBRANCH  33  34
ENDBRANCH  32  33
ENDBRANCH  28  32
ENDBRANCH  27  28
ENDBRANCH  23  27
ENDBRANCH  22  23
ENDBRANCH  21  22
ENDBRANCH  18  21
ENDBRANCH  17  18
BRANCH  17  63
HETATM   63  O17 UNL     1     -15.274  10.000  -8.765  1.00  0.00    -0.385 OA
HETATM   64  H38 UNL     1     -14.644   9.600  -9.388  1.00  0.00     0.210 HD
ENDBRANCH  17  63
ENDBRANCH  14  17
ENDBRANCH  12  13
ENDBRANCH  11  12
ENDBRANCH   8  11
ENDBRANCH   6   7
ENDBRANCH   5   6
ENDBRANCH   4   5
ENDBRANCH   2   4
TORSDOF 27
ENDMDL
MODEL 2
REMARK VINA RESULT:      -4.9      6.144      9.906
REMARK  27 active torsions:
REMARK  status: ('A' for Active; 'I' for Inactive)
REMARK    1  A    between atoms: C2_2  and  S1_4 
REMARK    2  A    between atoms: S1_4  and  C3_5 
REMARK    3  A    between atoms: C3_5  and  C4_6 
REMARK    4  A    between atoms: C4_6  and  N1_7 
REMARK       I    between atoms: N1_7  and  C5_8 
REMARK    5  A    between atoms: C5_8  and  C6_10 
REMARK    6  A    between atoms: C6_10  and  C7_11 
REMARK    7  A    between atoms: C7_11  and  N2_12 
REMARK       I    between atoms: N2_12  and  C8_13 
REMARK    8  A    between atoms: C8_13  and  C9_15 
REMARK    9  A    between atoms: C9_15  and  C10_16 
REMARK   10  A    between atoms: C9_15  and  O17_54 
REMARK   11  A    between atoms: C10_16  and  C13_19 
REMARK   12  A    between atoms: C13_19  and  O4_20 
REMARK   13  A    between atoms: O4_20  and  P1_21 
REMARK   14  A    between atoms: P1_21  and  O6_23 
REMARK   15  A    between atoms: P1_21  and  O7_24 
REMARK   16  A    between atoms: O7_24  and  P2_25 
REMARK   17  A    between atoms: P2_25  and  O9_27 
REMARK   18  A    between atoms: P2_25  and  O10_28 
REMARK   19  A    between atoms: O10_28  and  C14_29 
REMARK   20  A    between atoms: C14_29  and  C15_30 
REMARK   21  A    between atoms: C16_31  and  O13_49 
REMARK   22  A    between atoms: C17_32  and  O12_48 
REMARK   23  A    between atoms: C18_33  and  N3_35 
REMARK   24  A    between atoms: C21_40  and  N7_47 
REMARK   25  A    between atoms: O13_49  and  P3_50 
REMARK   26  A    between atoms: P3_50  and  O15_52 
REMARK   27  A    between atoms: P3_50  and  O16_53 
ROOT
HETATM    1  C1  UNL     1     -17.594   8.272  -1.704  1.00  0.00     0.104 C 
HETATM    2  C2  UNL     1     -18.602   8.403  -0.604  1.00  0.00     0.182 C 
HETATM    3  O1  UNL     1     -18.342   8.884   0.496  1.00  0.00    -0.286 OA
ENDROOT
BRANCH   2   4
HETATM    4  S1  UNL     1     -20.195   7.771  -1.001  1.00  0.00    -0.091 SA
BRANCH   4   5
HETATM    5  C3  UNL     1     -19.752   6.080  -1.517  1.00  0.00     0.102 C 
BRANCH   5   6
HETATM    6  C4  UNL     1     -20.382   5.711  -2.861  1.00  0.00     0.133 C 
BRANCH   6   7
HETATM    7  N1  UNL     1     -19.447   5.809  -3.963  1.00  0.00    -0.360 N 
HETATM    8  C5  UNL     1     -19.396   6.920  -4.772  1.00  0.00     0.219 C 
HETATM    9  O2  UNL     1     -20.185   7.852  -4.664  1.00  0.00    -0.274 OA
HETATM   10  H8  UNL     1     -18.812   5.041  -4.132  1.00  0.00     0.162 HD
BRANCH   8  11
HETATM   11  C6  UNL     1     -18.313   6.845  -5.827  1.00  0.00     0.122 C 
BRANCH  11  12
HETATM   12  C7  UNL     1     -18.035   8.209  -6.458  1.00  0.00     0.132 C 
BRANCH  12  13
HETATM   13  N2  UNL     1     -16.783   8.792  -6.021  1.00  0.00    -0.358 N 
HETATM   14  C8  UNL     1     -16.148   9.741  -6.800  1.00  0.00     0.247 C 
HETATM   15  O3  UNL     1     -16.542  10.035  -7.921  1.00  0.00    -0.271 OA
HETATM   16  H13 UNL     1     -16.659   8.857  -5.013  1.00  0.00     0.162 HD
BRANCH  14  17
HETATM   17  C9  UNL     1     -14.929  10.404  -6.141  1.00  0.00     0.219 C 
BRANCH  17  18
HETATM   18  C10 UNL     1     -13.604   9.611  -6.294  1.00  0.00     0.009 C 
HETATM   19  C11 UNL     1     -12.375  10.532  -6.286  1.00  0.00     0.020 C 
HETATM   20  C12 UNL     1     -13.430   8.576  -5.164  1.00  0.00     0.020 C 
BRANCH  18  21
HETATM   21  C13 UNL     1     -13.701   8.881  -7.665  1.00  0.00     0.192 C 
BRANCH  21  22
HETATM   22  O4  UNL     1     -13.451   7.494  -7.554  1.00  0.00    -0.296 OA
BRANCH  22  23
HETATM   23  P1  UNL     1     -14.441   6.381  -8.146  1.00  0.00     0.401 P 
HETATM   24  O5  UNL     1     -15.596   6.937  -8.918  1.00  0.00    -0.631 OA
BRANCH  23  25
HETATM   25  O6  UNL     1     -14.875   5.441  -6.913  1.00  0.00    -0.307 OA
HETATM   26  H23 UNL     1     -14.419   4.590  -6.929  1.00  0.00     0.222 HD
ENDBRANCH  23  25
BRANCH  23  27
HETATM   27  O7  UNL     1     -13.504   5.394  -8.971  1.00  0.00    -0.195 OA
BRANCH  27  28
HETATM   28  P2  UNL     1     -14.153   4.113  -9.661  1.00  0.00     0.401 P 
HETATM   29  O8  UNL     1     -14.666   3.043  -8.753  1.00  0.00    -0.631 OA
BRANCH  28  30
HETATM   30  O9  UNL     1     -15.262   4.737 -10.624  1.00  0.00    -0.307 OA
HETATM   31  H24 UNL     1     -16.190   4.503 -10.377  1.00  0.00     0.222 HD
ENDBRANCH  28  30
BRANCH  28  32
HETATM   32  O10 UNL     1     -13.059   3.655 -10.730  1.00  0.00    -0.294 OA
BRANCH  32  33
HETATM   33  C14 UNL     1     -13.404   3.552 -12.087  1.00  0.00     0.215 C 
BRANCH  33  34
HETATM   34  C15 UNL     1     -12.299   4.267 -12.863  1.00  0.00     0.180 C 
HETATM   35  C16 UNL     1     -12.891   4.957 -14.085  1.00  0.00     0.197 C 
HETATM   36  C17 UNL     1     -12.219   4.287 -15.268  1.00  0.00     0.199 C 
HETATM   37  C18 UNL     1     -10.907   3.789 -14.656  1.00  0.00     0.262 C 
HETATM   38  O11 UNL     1     -11.271   3.379 -13.319  1.00  0.00    -0.353 OA
BRANCH  35  39
HETATM   39  O13 UNL     1     -12.576   6.344 -14.004  1.00  0.00    -0.286 OA
BRANCH  39  40
HETATM   40  P3  UNL     1     -13.759   7.290 -13.493  1.00  0.00     0.391 P 
HETATM   41  O14 UNL     1     -14.069   7.135 -12.039  1.00  0.00    -0.632 OA
BRANCH  40  42
HETATM   42  O15 UNL     1     -14.912   6.920 -14.539  1.00  0.00    -0.307 OA
HETATM   43  H36 UNL     1     -15.660   6.464 -14.086  1.00  0.00     0.222 HD
ENDBRANCH  40  42
BRANCH  40  44
HETATM   44  O16 UNL     1     -13.261   8.715 -13.992  1.00  0.00    -0.307 OA
HETATM   45  H37 UNL     1     -13.246   9.378 -13.284  1.00  0.00     0.222 HD
ENDBRANCH  40  44
ENDBRANCH  39  40
ENDBRANCH  35  39
BRANCH  36  46
HETATM   46  O12 UNL     1     -12.126   5.197 -16.367  1.00  0.00    -0.388 OA
HETATM   47  H35 UNL     1     -12.912   5.791 -16.303  1.00  0.00     0.210 HD
ENDBRANCH  36  46
BRANCH  37  48
HETATM   48  N3  UNL     1     -10.362   2.646 -15.361  1.00  0.00    -0.297 N 
HETATM   49  C19 UNL     1      -9.316   2.643 -16.254  1.00  0.00     0.188 A 
HETATM   50  N4  UNL     1      -8.981   1.426 -16.624  1.00  0.00    -0.346 N 
HETATM   51  C20 UNL     1      -9.849   0.599 -15.933  1.00  0.00     0.116 A 
HETATM   52  H4  UNL     1      -8.245   1.152 -17.275  1.00  0.00     0.167 HD
HETATM   53  C21 UNL     1      -9.979  -0.798 -15.860  1.00  0.00     0.109 A 
HETATM   54  C23 UNL     1     -10.736   1.344 -15.177  1.00  0.00     0.142 A 
HETATM   55  N5  UNL     1     -10.960  -1.319 -15.083  1.00  0.00    -0.341 N 
HETATM   56  C22 UNL     1     -11.768  -0.469 -14.419  1.00  0.00     0.183 A 
HETATM   57  H5  UNL     1     -11.083  -2.329 -15.003  1.00  0.00     0.167 HD
HETATM   58  N6  UNL     1     -11.734   0.880 -14.405  1.00  0.00    -0.336 N 
HETATM   59  H6  UNL     1     -12.379   1.469 -13.878  1.00  0.00     0.168 HD
BRANCH  53  60
HETATM   60  N7  UNL     1      -9.161  -1.677 -16.552  1.00  0.00    -0.287 NA
HETATM   61  H33 UNL     1      -8.412  -1.228 -17.076  1.00  0.00     0.125 HD
HETATM   62  H34 UNL     1      -9.676  -2.405 -17.028  1.00  0.00     0.125 HD
ENDBRANCH  53  60
ENDBRANCH  37  48
ENDBRANCH  33  34
ENDBRANCH  32  33
ENDBRANCH  28  32
ENDBRANCH  27  28
ENDBRANCH  23  27
ENDBRANCH  22  23
ENDBRANCH  21  22
ENDBRANCH  18  21
ENDBRANCH  17  18
BRANCH  17  63
HETATM   63  O17 UNL     1     -14.736  11.719  -6.672  1.00  0.00    -0.385 OA
HETATM   64  H38 UNL     1     -15.509  11.941  -7.218  1.00  0.00     0.210 HD
ENDBRANCH  17  63
ENDBRANCH  14  17
ENDBRANCH  12  13
ENDBRANCH  11  12
ENDBRANCH   8  11
ENDBRANCH   6   7
ENDBRANCH   5   6
ENDBRANCH   4   5
ENDBRANCH   2   4
TORSDOF 27
ENDMDL
MODEL 3
REMARK VINA RESULT:      -4.9      3.806      7.865
REMARK  27 active torsions:
REMARK  status: ('A' for Active; 'I' for Inactive)
REMARK    1  A    between atoms: C2_2  and  S1_4 
REMARK    2  A    between atoms: S1_4  and  C3_5 
REMARK    3  A    between atoms: C3_5  and  C4_6 
REMARK    4  A    between atoms: C4_6  and  N1_7 
REMARK       I    between atoms: N1_7  and  C5_8 
REMARK    5  A    between atoms: C5_8  and  C6_10 
REMARK    6  A    between atoms: C6_10  and  C7_11 
REMARK    7  A    between atoms: C7_11  and  N2_12 
REMARK       I    between atoms: N2_12  and  C8_13 
REMARK    8  A    between atoms: C8_13  and  C9_15 
REMARK    9  A    between atoms: C9_15  and  C10_16 
REMARK   10  A    between atoms: C9_15  and  O17_54 
REMARK   11  A    between atoms: C10_16  and  C13_19 
REMARK   12  A    between atoms: C13_19  and  O4_20 
REMARK   13  A    between atoms: O4_20  and  P1_21 
REMARK   14  A    between atoms: P1_21  and  O6_23 
REMARK   15  A    between atoms: P1_21  and  O7_24 
REMARK   16  A    between atoms: O7_24  and  P2_25 
REMARK   17  A    between atoms: P2_25  and  O9_27 
REMARK   18  A    between atoms: P2_25  and  O10_28 
REMARK   19  A    between atoms: O10_28  and  C14_29 
REMARK   20  A    between atoms: C14_29  and  C15_30 
REMARK   21  A    between atoms: C16_31  and  O13_49 
REMARK   22  A    between atoms: C17_32  and  O12_48 
REMARK   23  A    between atoms: C18_33  and  N3_35 
REMARK   24  A    between atoms: C21_40  and  N7_47 
REMARK   25  A    between atoms: O13_49  and  P3_50 
REMARK   26  A    between atoms: P3_50  and  O15_52 
REMARK   27  A    between atoms: P3_50  and  O16_53 
ROOT
HETATM    1  C1  UNL     1     -19.192   2.370  -7.551  1.00  0.00     0.104 C 
HETATM    2  C2  UNL     1     -17.756   2.090  -7.229  1.00  0.00     0.182 C 
HETATM    3  O1  UNL     1     -16.863   2.925  -7.349  1.00  0.00    -0.286 OA
ENDROOT
BRANCH   2   4
HETATM    4  S1  UNL     1     -17.440   0.444  -6.696  1.00  0.00    -0.091 SA
BRANCH   4   5
HETATM    5  C3  UNL     1     -18.797  -0.434  -7.537  1.00  0.00     0.102 C 
BRANCH   5   6
HETATM    6  C4  UNL     1     -18.356  -1.006  -8.887  1.00  0.00     0.133 C 
BRANCH   6   7
HETATM    7  N1  UNL     1     -16.934  -0.859  -9.118  1.00  0.00    -0.360 N 
HETATM    8  C5  UNL     1     -16.438   0.042 -10.032  1.00  0.00     0.219 C 
HETATM    9  O2  UNL     1     -17.163   0.712 -10.758  1.00  0.00    -0.274 OA
HETATM   10  H8  UNL     1     -16.292  -1.432  -8.586  1.00  0.00     0.162 HD
BRANCH   8  11
HETATM   11  C6  UNL     1     -14.926   0.076 -10.080  1.00  0.00     0.122 C 
BRANCH  11  12
HETATM   12  C7  UNL     1     -14.354   1.222  -9.246  1.00  0.00     0.132 C 
BRANCH  12  13
HETATM   13  N2  UNL     1     -15.013   2.488  -9.493  1.00  0.00    -0.358 N 
HETATM   14  C8  UNL     1     -14.268   3.642  -9.652  1.00  0.00     0.247 C 
HETATM   15  O3  UNL     1     -13.057   3.665  -9.476  1.00  0.00    -0.271 OA
HETATM   16  H13 UNL     1     -15.897   2.431  -9.995  1.00  0.00     0.162 HD
BRANCH  14  17
HETATM   17  C9  UNL     1     -15.076   4.875 -10.084  1.00  0.00     0.219 C 
BRANCH  17  18
HETATM   18  C10 UNL     1     -15.083   5.136 -11.613  1.00  0.00     0.009 C 
HETATM   19  C11 UNL     1     -13.694   4.946 -12.239  1.00  0.00     0.020 C 
HETATM   20  C12 UNL     1     -16.065   4.196 -12.341  1.00  0.00     0.020 C 
BRANCH  18  21
HETATM   21  C13 UNL     1     -15.539   6.612 -11.792  1.00  0.00     0.192 C 
BRANCH  21  22
HETATM   22  O4  UNL     1     -14.503   7.533 -11.517  1.00  0.00    -0.296 OA
BRANCH  22  23
HETATM   23  P1  UNL     1     -14.586   9.083 -11.918  1.00  0.00     0.401 P 
HETATM   24  O5  UNL     1     -15.981   9.610 -12.038  1.00  0.00    -0.631 OA
BRANCH  23  25
HETATM   25  O6  UNL     1     -13.705   9.266 -13.253  1.00  0.00    -0.307 OA
HETATM   26  H23 UNL     1     -13.755   8.492 -13.828  1.00  0.00     0.222 HD
ENDBRANCH  23  25
BRANCH  23  27
HETATM   27  O7  UNL     1     -13.682   9.834 -10.846  1.00  0.00    -0.195 OA
BRANCH  27  28
HETATM   28  P2  UNL     1     -13.785  11.420 -10.727  1.00  0.00     0.401 P 
HETATM   29  O8  UNL     1     -13.708  12.200 -11.998  1.00  0.00    -0.631 OA
BRANCH  28  30
HETATM   30  O9  UNL     1     -15.139  11.639  -9.909  1.00  0.00    -0.307 OA
HETATM   31  H24 UNL     1     -15.405  10.865  -9.355  1.00  0.00     0.222 HD
ENDBRANCH  28  30
BRANCH  28  32
HETATM   32  O10 UNL     1     -12.704  11.794  -9.612  1.00  0.00    -0.294 OA
BRANCH  32  33
HETATM   33  C14 UNL     1     -13.112  12.409  -8.418  1.00  0.00     0.215 C 
BRANCH  33  34
HETATM   34  C15 UNL     1     -12.426  11.643  -7.288  1.00  0.00     0.180 C 
HETATM   35  C16 UNL     1     -11.239  10.865  -7.839  1.00  0.00     0.197 C 
HETATM   36  C17 UNL     1     -11.578   9.410  -7.576  1.00  0.00     0.199 C 
HETATM   37  C18 UNL     1     -12.531   9.511  -6.382  1.00  0.00     0.262 C 
HETATM   38  O11 UNL     1     -13.297  10.709  -6.639  1.00  0.00    -0.353 OA
BRANCH  35  39
HETATM   39  O13 UNL     1     -10.074  11.281  -7.135  1.00  0.00    -0.286 OA
BRANCH  39  40
HETATM   40  P3  UNL     1      -8.825  11.687  -8.047  1.00  0.00     0.391 P 
HETATM   41  O14 UNL     1      -7.885  12.645  -7.390  1.00  0.00    -0.632 OA
BRANCH  40  42
HETATM   42  O15 UNL     1      -9.571  12.174  -9.375  1.00  0.00    -0.307 OA
HETATM   43  H36 UNL     1      -8.926  12.555 -10.018  1.00  0.00     0.222 HD
ENDBRANCH  40  42
BRANCH  40  44
HETATM   44  O16 UNL     1      -8.256  10.259  -8.455  1.00  0.00    -0.307 OA
HETATM   45  H37 UNL     1      -7.829   9.799  -7.715  1.00  0.00     0.222 HD
ENDBRANCH  40  44
ENDBRANCH  39  40
ENDBRANCH  35  39
BRANCH  36  46
HETATM   46  O12 UNL     1     -10.381   8.647  -7.397  1.00  0.00    -0.388 OA
HETATM   47  H35 UNL     1      -9.630   9.262  -7.575  1.00  0.00     0.210 HD
ENDBRANCH  36  46
BRANCH  37  48
HETATM   48  N3  UNL     1     -13.440   8.385  -6.300  1.00  0.00    -0.297 N 
HETATM   49  C19 UNL     1     -13.392   7.342  -5.406  1.00  0.00     0.188 A 
HETATM   50  N4  UNL     1     -14.434   6.547  -5.510  1.00  0.00    -0.346 N 
HETATM   51  C20 UNL     1     -15.200   7.106  -6.518  1.00  0.00     0.116 A 
HETATM   52  H4  UNL     1     -14.635   5.706  -4.968  1.00  0.00     0.167 HD
HETATM   53  C21 UNL     1     -16.444   6.760  -7.073  1.00  0.00     0.109 A 
HETATM   54  C23 UNL     1     -14.576   8.223  -7.043  1.00  0.00     0.142 A 
HETATM   55  N5  UNL     1     -16.938   7.518  -8.082  1.00  0.00    -0.341 N 
HETATM   56  C22 UNL     1     -16.207   8.567  -8.509  1.00  0.00     0.183 A 
HETATM   57  H5  UNL     1     -17.839   7.300  -8.508  1.00  0.00     0.167 HD
HETATM   58  N6  UNL     1     -15.013   8.998  -8.051  1.00  0.00    -0.336 N 
HETATM   59  H6  UNL     1     -14.509   9.804  -8.421  1.00  0.00     0.168 HD
BRANCH  53  60
HETATM   60  N7  UNL     1     -17.193   5.674  -6.648  1.00  0.00    -0.287 NA
HETATM   61  H33 UNL     1     -17.693   5.193  -7.393  1.00  0.00     0.125 HD
HETATM   62  H34 UNL     1     -17.707   5.858  -5.798  1.00  0.00     0.125 HD
ENDBRANCH  53  60
ENDBRANCH  37  48
ENDBRANCH  33  34
ENDBRANCH  32  33
ENDBRANCH  28  32
ENDBRANCH  27  28
ENDBRANCH  23  27
ENDBRANCH  22  23
ENDBRANCH  21  22
ENDBRANCH  18  21
ENDBRANCH  17  18
BRANCH  17  63
HETATM   63  O17 UNL     1     -16.430   4.759  -9.636  1.00  0.00    -0.385 OA
HETATM   64  H38 UNL     1     -16.715   5.628  -9.306  1.00  0.00     0.210 HD
ENDBRANCH  17  63
ENDBRANCH  14  17
ENDBRANCH  12  13
ENDBRANCH  11  12
ENDBRANCH   8  11
ENDBRANCH   6   7
ENDBRANCH   5   6
ENDBRANCH   4   5
ENDBRANCH   2   4
TORSDOF 27
ENDMDL
MODEL 4
REMARK VINA RESULT:      -4.9      3.735      5.774
REMARK  27 active torsions:
REMARK  status: ('A' for Active; 'I' for Inactive)
REMARK    1  A    between atoms: C2_2  and  S1_4 
REMARK    2  A    between atoms: S1_4  and  C3_5 
REMARK    3  A    between atoms: C3_5  and  C4_6 
REMARK    4  A    between atoms: C4_6  and  N1_7 
REMARK       I    between atoms: N1_7  and  C5_8 
REMARK    5  A    between atoms: C5_8  and  C6_10 
REMARK    6  A    between atoms: C6_10  and  C7_11 
REMARK    7  A    between atoms: C7_11  and  N2_12 
REMARK       I    between atoms: N2_12  and  C8_13 
REMARK    8  A    between atoms: C8_13  and  C9_15 
REMARK    9  A    between atoms: C9_15  and  C10_16 
REMARK   10  A    between atoms: C9_15  and  O17_54 
REMARK   11  A    between atoms: C10_16  and  C13_19 
REMARK   12  A    between atoms: C13_19  and  O4_20 
REMARK   13  A    between atoms: O4_20  and  P1_21 
REMARK   14  A    between atoms: P1_21  and  O6_23 
REMARK   15  A    between atoms: P1_21  and  O7_24 
REMARK   16  A    between atoms: O7_24  and  P2_25 
REMARK   17  A    between atoms: P2_25  and  O9_27 
REMARK   18  A    between atoms: P2_25  and  O10_28 
REMARK   19  A    between atoms: O10_28  and  C14_29 
REMARK   20  A    between atoms: C14_29  and  C15_30 
REMARK   21  A    between atoms: C16_31  and  O13_49 
REMARK   22  A    between atoms: C17_32  and  O12_48 
REMARK   23  A    between atoms: C18_33  and  N3_35 
REMARK   24  A    between atoms: C21_40  and  N7_47 
REMARK   25  A    between atoms: O13_49  and  P3_50 
REMARK   26  A    between atoms: P3_50  and  O15_52 
REMARK   27  A    between atoms: P3_50  and  O16_53 
ROOT
HETATM    1  C1  UNL     1      -6.641   6.387  -6.100  1.00  0.00     0.104 C 
HETATM    2  C2  UNL     1      -6.772   7.879  -6.117  1.00  0.00     0.182 C 
HETATM    3  O1  UNL     1      -6.205   8.615  -5.314  1.00  0.00    -0.286 OA
ENDROOT
BRANCH   2   4
HETATM    4  S1  UNL     1      -7.845   8.498  -7.365  1.00  0.00    -0.091 SA
BRANCH   4   5
HETATM    5  C3  UNL     1      -9.379   7.609  -6.944  1.00  0.00     0.102 C 
BRANCH   5   6
HETATM    6  C4  UNL     1     -10.624   8.447  -7.242  1.00  0.00     0.133 C 
BRANCH   6   7
HETATM    7  N1  UNL     1     -10.302   9.775  -7.723  1.00  0.00    -0.360 N 
HETATM    8  C5  UNL     1     -11.203  10.519  -8.449  1.00  0.00     0.219 C 
HETATM    9  O2  UNL     1     -12.291  10.080  -8.800  1.00  0.00    -0.274 OA
HETATM   10  H8  UNL     1      -9.393  10.162  -7.510  1.00  0.00     0.162 HD
BRANCH   8  11
HETATM   11  C6  UNL     1     -10.690  11.898  -8.806  1.00  0.00     0.122 C 
BRANCH  11  12
HETATM   12  C7  UNL     1     -11.487  13.001  -8.110  1.00  0.00     0.132 C 
BRANCH  12  13
HETATM   13  N2  UNL     1     -12.910  12.736  -8.072  1.00  0.00    -0.358 N 
HETATM   14  C8  UNL     1     -13.815  13.757  -8.297  1.00  0.00     0.247 C 
HETATM   15  O3  UNL     1     -13.464  14.924  -8.414  1.00  0.00    -0.271 OA
HETATM   16  H13 UNL     1     -13.188  11.797  -8.352  1.00  0.00     0.162 HD
BRANCH  14  17
HETATM   17  C9  UNL     1     -15.280  13.307  -8.405  1.00  0.00     0.219 C 
BRANCH  17  18
HETATM   18  C10 UNL     1     -15.728  12.916  -9.837  1.00  0.00     0.009 C 
HETATM   19  C11 UNL     1     -15.071  13.798 -10.910  1.00  0.00     0.020 C 
HETATM   20  C12 UNL     1     -15.385  11.447 -10.155  1.00  0.00     0.020 C 
BRANCH  18  21
HETATM   21  C13 UNL     1     -17.271  13.114  -9.871  1.00  0.00     0.192 C 
BRANCH  21  22
HETATM   22  O4  UNL     1     -17.969  11.984  -9.388  1.00  0.00    -0.296 OA
BRANCH  22  23
HETATM   23  P1  UNL     1     -19.080  12.074  -8.235  1.00  0.00     0.401 P 
HETATM   24  O5  UNL     1     -20.058  13.193  -8.414  1.00  0.00    -0.631 OA
BRANCH  23  25
HETATM   25  O6  UNL     1     -18.292  12.118  -6.832  1.00  0.00    -0.307 OA
HETATM   26  H23 UNL     1     -17.750  12.912  -6.747  1.00  0.00     0.222 HD
ENDBRANCH  23  25
BRANCH  23  27
HETATM   27  O7  UNL     1     -19.732  10.624  -8.179  1.00  0.00    -0.195 OA
BRANCH  27  28
HETATM   28  P2  UNL     1     -19.272   9.617  -7.033  1.00  0.00     0.401 P 
HETATM   29  O8  UNL     1     -19.616   9.990  -5.628  1.00  0.00    -0.631 OA
BRANCH  28  30
HETATM   30  O9  UNL     1     -19.885   8.220  -7.505  1.00  0.00    -0.307 OA
HETATM   31  H24 UNL     1     -20.573   8.299  -8.209  1.00  0.00     0.222 HD
ENDBRANCH  28  30
BRANCH  28  32
HETATM   32  O10 UNL     1     -17.722   9.374  -7.331  1.00  0.00    -0.294 OA
BRANCH  32  33
HETATM   33  C14 UNL     1     -16.841   9.090  -6.277  1.00  0.00     0.215 C 
BRANCH  33  34
HETATM   34  C15 UNL     1     -16.470   7.614  -6.417  1.00  0.00     0.180 C 
HETATM   35  C16 UNL     1     -14.966   7.477  -6.615  1.00  0.00     0.197 C 
HETATM   36  C17 UNL     1     -14.815   6.845  -7.985  1.00  0.00     0.199 C 
HETATM   37  C18 UNL     1     -16.146   6.107  -8.150  1.00  0.00     0.262 C 
HETATM   38  O11 UNL     1     -17.116   6.979  -7.526  1.00  0.00    -0.353 OA
BRANCH  35  39
HETATM   39  O13 UNL     1     -14.460   6.641  -5.579  1.00  0.00    -0.286 OA
BRANCH  39  40
HETATM   40  P3  UNL     1     -13.811   7.405  -4.333  1.00  0.00     0.391 P 
HETATM   41  O14 UNL     1     -14.707   7.478  -3.139  1.00  0.00    -0.632 OA
BRANCH  40  42
HETATM   42  O15 UNL     1     -13.377   8.783  -5.019  1.00  0.00    -0.307 OA
HETATM   43  H36 UNL     1     -13.976   9.516  -4.739  1.00  0.00     0.222 HD
ENDBRANCH  40  42
BRANCH  40  44
HETATM   44  O16 UNL     1     -12.431   6.631  -4.173  1.00  0.00    -0.307 OA
HETATM   45  H37 UNL     1     -11.693   7.082  -4.612  1.00  0.00     0.222 HD
ENDBRANCH  40  44
ENDBRANCH  39  40
ENDBRANCH  35  39
BRANCH  36  46
HETATM   46  O12 UNL     1     -13.620   6.062  -8.041  1.00  0.00    -0.388 OA
HETATM   47  H35 UNL     1     -13.359   5.886  -7.106  1.00  0.00     0.210 HD
ENDBRANCH  36  46
BRANCH  37  48
HETATM   48  N3  UNL     1     -16.512   5.922  -9.540  1.00  0.00    -0.297 N 
HETATM   49  C19 UNL     1     -16.457   4.754 -10.265  1.00  0.00     0.188 A 
HETATM   50  N4  UNL     1     -16.978   4.888 -11.465  1.00  0.00    -0.346 N 
HETATM   51  C20 UNL     1     -17.396   6.206 -11.519  1.00  0.00     0.116 A 
HETATM   52  H4  UNL     1     -17.057   4.178 -12.193  1.00  0.00     0.167 HD
HETATM   53  C21 UNL     1     -18.062   6.954 -12.505  1.00  0.00     0.109 A 
HETATM   54  C23 UNL     1     -17.078   6.868 -10.347  1.00  0.00     0.142 A 
HETATM   55  N5  UNL     1     -18.330   8.260 -12.258  1.00  0.00    -0.341 N 
HETATM   56  C22 UNL     1     -17.938   8.779 -11.077  1.00  0.00     0.183 A 
HETATM   57  H5  UNL     1     -18.815   8.834 -12.947  1.00  0.00     0.167 HD
HETATM   58  N6  UNL     1     -17.305   8.162 -10.059  1.00  0.00    -0.336 N 
HETATM   59  H6  UNL     1     -17.035   8.615  -9.186  1.00  0.00     0.168 HD
BRANCH  53  60
HETATM   60  N7  UNL     1     -18.453   6.429 -13.726  1.00  0.00    -0.287 NA
HETATM   61  H33 UNL     1     -17.867   5.669 -14.062  1.00  0.00     0.125 HD
HETATM   62  H34 UNL     1     -18.707   7.141 -14.398  1.00  0.00     0.125 HD
ENDBRANCH  53  60
ENDBRANCH  37  48
ENDBRANCH  33  34
ENDBRANCH  32  33
ENDBRANCH  28  32
ENDBRANCH  27  28
ENDBRANCH  23  27
ENDBRANCH  22  23
ENDBRANCH  21  22
ENDBRANCH  18  21
ENDBRANCH  17  18
BRANCH  17  63
HETATM   63  O17 UNL     1     -15.520  12.196  -7.534  1.00  0.00    -0.385 OA
HETATM   64  H38 UNL     1     -15.245  12.451  -6.637  1.00  0.00     0.210 HD
ENDBRANCH  17  63
ENDBRANCH  14  17
ENDBRANCH  12  13
ENDBRANCH  11  12
ENDBRANCH   8  11
ENDBRANCH   6   7
ENDBRANCH   5   6
ENDBRANCH   4   5
ENDBRANCH   2   4
TORSDOF 27
ENDMDL
MODEL 5
REMARK VINA RESULT:      -4.8      4.170      7.576
REMARK  27 active torsions:
REMARK  status: ('A' for Active; 'I' for Inactive)
REMARK    1  A    between atoms: C2_2  and  S1_4 
REMARK    2  A    between atoms: S1_4  and  C3_5 
REMARK    3  A    between atoms: C3_5  and  C4_6 
REMARK    4  A    between atoms: C4_6  and  N1_7 
REMARK       I    between atoms: N1_7  and  C5_8 
REMARK    5  A    between atoms: C5_8  and  C6_10 
REMARK    6  A    between atoms: C6_10  and  C7_11 
REMARK    7  A    between atoms: C7_11  and  N2_12 
REMARK       I    between atoms: N2_12  and  C8_13 
REMARK    8  A    between atoms: C8_13  and  C9_15 
REMARK    9  A    between atoms: C9_15  and  C10_16 
REMARK   10  A    between atoms: C9_15  and  O17_54 
REMARK   11  A    between atoms: C10_16  and  C13_19 
REMARK   12  A    between atoms: C13_19  and  O4_20 
REMARK   13  A    between atoms: O4_20  and  P1_21 
REMARK   14  A    between atoms: P1_21  and  O6_23 
REMARK   15  A    between atoms: P1_21  and  O7_24 
REMARK   16  A    between atoms: O7_24  and  P2_25 
REMARK   17  A    between atoms: P2_25  and  O9_27 
REMARK   18  A    between atoms: P2_25  and  O10_28 
REMARK   19  A    between atoms: O10_28  and  C14_29 
REMARK   20  A    between atoms: C14_29  and  C15_30 
REMARK   21  A    between atoms: C16_31  and  O13_49 
REMARK   22  A    between atoms: C17_32  and  O12_48 
REMARK   23  A    between atoms: C18_33  and  N3_35 
REMARK   24  A    between atoms: C21_40  and  N7_47 
REMARK   25  A    between atoms: O13_49  and  P3_50 
REMARK   26  A    between atoms: P3_50  and  O15_52 
REMARK   27  A    between atoms: P3_50  and  O16_53 
ROOT
HETATM    1  C1  UNL     1     -11.636   3.798 -15.904  1.00  0.00     0.104 C 
HETATM    2  C2  UNL     1     -11.663   3.328 -14.482  1.00  0.00     0.182 C 
HETATM    3  O1  UNL     1     -10.677   3.340 -13.749  1.00  0.00    -0.286 OA
ENDROOT
BRANCH   2   4
HETATM    4  S1  UNL     1     -13.222   2.713 -13.950  1.00  0.00    -0.091 SA
BRANCH   4   5
HETATM    5  C3  UNL     1     -12.933   0.921 -14.103  1.00  0.00     0.102 C 
BRANCH   5   6
HETATM    6  C4  UNL     1     -14.227   0.119 -13.947  1.00  0.00     0.133 C 
BRANCH   6   7
HETATM    7  N1  UNL     1     -14.424  -0.366 -12.596  1.00  0.00    -0.360 N 
HETATM    8  C5  UNL     1     -15.307   0.237 -11.732  1.00  0.00     0.219 C 
HETATM    9  O2  UNL     1     -15.916   1.262 -12.019  1.00  0.00    -0.274 OA
HETATM   10  H8  UNL     1     -13.901  -1.176 -12.289  1.00  0.00     0.162 HD
BRANCH   8  11
HETATM   11  C6  UNL     1     -15.404  -0.459 -10.391  1.00  0.00     0.122 C 
BRANCH  11  12
HETATM   12  C7  UNL     1     -14.577   0.250  -9.319  1.00  0.00     0.132 C 
BRANCH  12  13
HETATM   13  N2  UNL     1     -14.426   1.669  -9.564  1.00  0.00    -0.358 N 
HETATM   14  C8  UNL     1     -14.965   2.589  -8.683  1.00  0.00     0.247 C 
HETATM   15  O3  UNL     1     -15.678   2.254  -7.746  1.00  0.00    -0.271 OA
HETATM   16  H13 UNL     1     -13.581   1.940 -10.062  1.00  0.00     0.162 HD
BRANCH  14  17
HETATM   17  C9  UNL     1     -14.582   4.050  -8.964  1.00  0.00     0.219 C 
BRANCH  17  18
HETATM   18  C10 UNL     1     -15.494   4.767  -9.993  1.00  0.00     0.009 C 
HETATM   19  C11 UNL     1     -14.900   4.743 -11.409  1.00  0.00     0.020 C 
HETATM   20  C12 UNL     1     -16.894   4.122 -10.054  1.00  0.00     0.020 C 
BRANCH  18  21
HETATM   21  C13 UNL     1     -15.616   6.238  -9.503  1.00  0.00     0.192 C 
BRANCH  21  22
HETATM   22  O4  UNL     1     -14.592   7.064 -10.019  1.00  0.00    -0.296 OA
BRANCH  22  23
HETATM   23  P1  UNL     1     -14.874   8.517 -10.637  1.00  0.00     0.401 P 
HETATM   24  O5  UNL     1     -16.324   8.825 -10.840  1.00  0.00    -0.631 OA
BRANCH  23  25
HETATM   25  O6  UNL     1     -13.992   8.630 -11.979  1.00  0.00    -0.307 OA
HETATM   26  H23 UNL     1     -14.208   7.936 -12.614  1.00  0.00     0.222 HD
ENDBRANCH  23  25
BRANCH  23  27
HETATM   27  O7  UNL     1     -14.107   9.528  -9.677  1.00  0.00    -0.195 OA
BRANCH  27  28
HETATM   28  P2  UNL     1     -13.876  11.027 -10.164  1.00  0.00     0.401 P 
HETATM   29  O8  UNL     1     -12.701  11.277 -11.052  1.00  0.00    -0.631 OA
BRANCH  28  30
HETATM   30  O9  UNL     1     -15.280  11.421 -10.815  1.00  0.00    -0.307 OA
HETATM   31  H24 UNL     1     -15.772  12.121 -10.320  1.00  0.00     0.222 HD
ENDBRANCH  28  30
BRANCH  28  32
HETATM   32  O10 UNL     1     -13.927  11.882  -8.816  1.00  0.00    -0.294 OA
BRANCH  32  33
HETATM   33  C14 UNL     1     -12.796  12.601  -8.398  1.00  0.00     0.215 C 
BRANCH  33  34
HETATM   34  C15 UNL     1     -12.206  11.822  -7.224  1.00  0.00     0.180 C 
HETATM   35  C16 UNL     1     -11.077  10.926  -7.716  1.00  0.00     0.197 C 
HETATM   36  C17 UNL     1     -11.545   9.515  -7.411  1.00  0.00     0.199 C 
HETATM   37  C18 UNL     1     -12.513   9.741  -6.247  1.00  0.00     0.262 C 
HETATM   38  O11 UNL     1     -13.167  10.990  -6.565  1.00  0.00    -0.353 OA
BRANCH  35  39
HETATM   39  O13 UNL     1      -9.897  11.267  -6.996  1.00  0.00    -0.286 OA
BRANCH  39  40
HETATM   40  P3  UNL     1      -8.605  11.563  -7.891  1.00  0.00     0.391 P 
HETATM   41  O14 UNL     1      -7.564  12.379  -7.195  1.00  0.00    -0.632 OA
BRANCH  40  42
HETATM   42  O15 UNL     1      -9.284  12.187  -9.198  1.00  0.00    -0.307 OA
HETATM   43  H36 UNL     1      -9.145  13.163  -9.231  1.00  0.00     0.222 HD
ENDBRANCH  40  42
BRANCH  40  44
HETATM   44  O16 UNL     1      -8.202  10.097  -8.357  1.00  0.00    -0.307 OA
HETATM   45  H37 UNL     1      -7.331   9.824  -8.029  1.00  0.00     0.222 HD
ENDBRANCH  40  44
ENDBRANCH  39  40
ENDBRANCH  35  39
BRANCH  36  46
HETATM   46  O12 UNL     1     -10.423   8.661  -7.174  1.00  0.00    -0.388 OA
HETATM   47  H35 UNL     1     -10.488   8.370  -6.234  1.00  0.00     0.210 HD
ENDBRANCH  36  46
BRANCH  37  48
HETATM   48  N3  UNL     1     -13.517   8.701  -6.149  1.00  0.00    -0.297 N 
HETATM   49  C19 UNL     1     -13.358   7.439  -5.625  1.00  0.00     0.188 A 
HETATM   50  N4  UNL     1     -14.493   6.777  -5.565  1.00  0.00    -0.346 N 
HETATM   51  C20 UNL     1     -15.436   7.655  -6.071  1.00  0.00     0.116 A 
HETATM   52  H4  UNL     1     -14.645   5.829  -5.223  1.00  0.00     0.167 HD
HETATM   53  C21 UNL     1     -16.829   7.567  -6.234  1.00  0.00     0.109 A 
HETATM   54  C23 UNL     1     -14.839   8.836  -6.472  1.00  0.00     0.142 A 
HETATM   55  N5  UNL     1     -17.486   8.618  -6.782  1.00  0.00    -0.341 N 
HETATM   56  C22 UNL     1     -16.769   9.698  -7.150  1.00  0.00     0.183 A 
HETATM   57  H5  UNL     1     -18.498   8.592  -6.913  1.00  0.00     0.167 HD
HETATM   58  N6  UNL     1     -15.440   9.899  -7.035  1.00  0.00    -0.336 N 
HETATM   59  H6  UNL     1     -14.955  10.746  -7.335  1.00  0.00     0.168 HD
BRANCH  53  60
HETATM   60  N7  UNL     1     -17.570   6.453  -5.872  1.00  0.00    -0.287 NA
HETATM   61  H33 UNL     1     -18.080   6.022  -6.639  1.00  0.00     0.125 HD
HETATM   62  H34 UNL     1     -18.074   6.580  -5.004  1.00  0.00     0.125 HD
ENDBRANCH  53  60
ENDBRANCH  37  48
ENDBRANCH  33  34
ENDBRANCH  32  33
ENDBRANCH  28  32
ENDBRANCH  27  28
ENDBRANCH  23  27
ENDBRANCH  22  23
ENDBRANCH  21  22
ENDBRANCH  18  21
ENDBRANCH  17  18
BRANCH  17  63
HETATM   63  O17 UNL     1     -14.589   4.804  -7.747  1.00  0.00    -0.385 OA
HETATM   64  H38 UNL     1     -14.968   5.679  -7.936  1.00  0.00     0.210 HD
ENDBRANCH  17  63
ENDBRANCH  14  17
ENDBRANCH  12  13
ENDBRANCH  11  12
ENDBRANCH   8  11
ENDBRANCH   6   7
ENDBRANCH   5   6
ENDBRANCH   4   5
ENDBRANCH   2   4
TORSDOF 27
ENDMDL
MODEL 6
REMARK VINA RESULT:      -4.8      5.268      9.180
REMARK  27 active torsions:
REMARK  status: ('A' for Active; 'I' for Inactive)
REMARK    1  A    between atoms: C2_2  and  S1_4 
REMARK    2  A    between atoms: S1_4  and  C3_5 
REMARK    3  A    between atoms: C3_5  and  C4_6 
REMARK    4  A    between atoms: C4_6  and  N1_7 
REMARK       I    between atoms: N1_7  and  C5_8 
REMARK    5  A    between atoms: C5_8  and  C6_10 
REMARK    6  A    between atoms: C6_10  and  C7_11 
REMARK    7  A    between atoms: C7_11  and  N2_12 
REMARK       I    between atoms: N2_12  and  C8_13 
REMARK    8  A    between atoms: C8_13  and  C9_15 
REMARK    9  A    between atoms: C9_15  and  C10_16 
REMARK   10  A    between atoms: C9_15  and  O17_54 
REMARK   11  A    between atoms: C10_16  and  C13_19 
REMARK   12  A    between atoms: C13_19  and  O4_20 
REMARK   13  A    between atoms: O4_20  and  P1_21 
REMARK   14  A    between atoms: P1_21  and  O6_23 
REMARK   15  A    between atoms: P1_21  and  O7_24 
REMARK   16  A    between atoms: O7_24  and  P2_25 
REMARK   17  A    between atoms: P2_25  and  O9_27 
REMARK   18  A    between atoms: P2_25  and  O10_28 
REMARK   19  A    between atoms: O10_28  and  C14_29 
REMARK   20  A    between atoms: C14_29  and  C15_30 
REMARK   21  A    between atoms: C16_31  and  O13_49 
REMARK   22  A    between atoms: C17_32  and  O12_48 
REMARK   23  A    between atoms: C18_33  and  N3_35 
REMARK   24  A    between atoms: C21_40  and  N7_47 
REMARK   25  A    between atoms: O13_49  and  P3_50 
REMARK   26  A    between atoms: P3_50  and  O15_52 
REMARK   27  A    between atoms: P3_50  and  O16_53 
ROOT
HETATM    1  C1  UNL     1      -8.827   0.541 -17.499  1.00  0.00     0.104 C 
HETATM    2  C2  UNL     1      -9.437   0.933 -16.187  1.00  0.00     0.182 C 
HETATM    3  O1  UNL     1      -9.743   0.121 -15.317  1.00  0.00    -0.286 OA
ENDROOT
BRANCH   2   4
HETATM    4  S1  UNL     1      -9.720   2.658 -16.005  1.00  0.00    -0.091 SA
BRANCH   4   5
HETATM    5  C3  UNL     1      -9.839   3.153 -17.754  1.00  0.00     0.102 C 
BRANCH   5   6
HETATM    6  C4  UNL     1     -10.449   4.548 -17.912  1.00  0.00     0.133 C 
BRANCH   6   7
HETATM    7  N1  UNL     1     -10.323   5.352 -16.714  1.00  0.00    -0.360 N 
HETATM    8  C5  UNL     1     -10.290   6.726 -16.765  1.00  0.00     0.219 C 
HETATM    9  O2  UNL     1     -10.283   7.348 -17.822  1.00  0.00    -0.274 OA
HETATM   10  H8  UNL     1     -10.265   4.886 -15.819  1.00  0.00     0.162 HD
BRANCH   8  11
HETATM   11  C6  UNL     1     -10.210   7.375 -15.400  1.00  0.00     0.122 C 
BRANCH  11  12
HETATM   12  C7  UNL     1     -10.495   6.378 -14.277  1.00  0.00     0.132 C 
BRANCH  12  13
HETATM   13  N2  UNL     1     -11.804   6.551 -13.684  1.00  0.00    -0.358 N 
HETATM   14  C8  UNL     1     -12.810   5.636 -13.939  1.00  0.00     0.247 C 
HETATM   15  O3  UNL     1     -12.677   4.730 -14.752  1.00  0.00    -0.271 OA
HETATM   16  H13 UNL     1     -11.818   7.018 -12.780  1.00  0.00     0.162 HD
BRANCH  14  17
HETATM   17  C9  UNL     1     -14.088   5.838 -13.111  1.00  0.00     0.219 C 
BRANCH  17  18
HETATM   18  C10 UNL     1     -14.371   4.712 -12.082  1.00  0.00     0.009 C 
HETATM   19  C11 UNL     1     -15.219   3.580 -12.681  1.00  0.00     0.020 C 
HETATM   20  C12 UNL     1     -13.064   4.094 -11.546  1.00  0.00     0.020 C 
BRANCH  18  21
HETATM   21  C13 UNL     1     -15.149   5.386 -10.915  1.00  0.00     0.192 C 
BRANCH  21  22
HETATM   22  O4  UNL     1     -14.332   5.615  -9.784  1.00  0.00    -0.296 OA
BRANCH  22  23
HETATM   23  P1  UNL     1     -14.905   5.638  -8.287  1.00  0.00     0.401 P 
HETATM   24  O5  UNL     1     -15.439   4.322  -7.815  1.00  0.00    -0.631 OA
BRANCH  23  25
HETATM   25  O6  UNL     1     -15.978   6.836  -8.218  1.00  0.00    -0.307 OA
HETATM   26  H23 UNL     1     -16.044   7.311  -9.057  1.00  0.00     0.222 HD
ENDBRANCH  23  25
BRANCH  23  27
HETATM   27  O7  UNL     1     -13.723   6.231  -7.404  1.00  0.00    -0.195 OA
BRANCH  27  28
HETATM   28  P2  UNL     1     -14.083   7.099  -6.117  1.00  0.00     0.401 P 
HETATM   29  O8  UNL     1     -15.402   6.833  -5.470  1.00  0.00    -0.631 OA
BRANCH  28  30
HETATM   30  O9  UNL     1     -12.828   6.870  -5.157  1.00  0.00    -0.307 OA
HETATM   31  H24 UNL     1     -12.061   7.463  -5.347  1.00  0.00     0.222 HD
ENDBRANCH  28  30
BRANCH  28  32
HETATM   32  O10 UNL     1     -13.825   8.605  -6.583  1.00  0.00    -0.294 OA
BRANCH  32  33
HETATM   33  C14 UNL     1     -14.611   9.645  -6.063  1.00  0.00     0.215 C 
BRANCH  33  34
HETATM   34  C15 UNL     1     -13.893  10.944  -6.424  1.00  0.00     0.180 C 
HETATM   35  C16 UNL     1     -14.184  11.307  -7.874  1.00  0.00     0.197 C 
HETATM   36  C17 UNL     1     -12.829  11.278  -8.557  1.00  0.00     0.199 C 
HETATM   37  C18 UNL     1     -11.875  11.550  -7.392  1.00  0.00     0.262 C 
HETATM   38  O11 UNL     1     -12.472  10.858  -6.273  1.00  0.00    -0.353 OA
BRANCH  35  39
HETATM   39  O13 UNL     1     -14.767  12.606  -7.895  1.00  0.00    -0.286 OA
BRANCH  39  40
HETATM   40  P3  UNL     1     -16.157  12.724  -8.678  1.00  0.00     0.391 P 
HETATM   41  O14 UNL     1     -16.045  12.470 -10.146  1.00  0.00    -0.632 OA
BRANCH  40  42
HETATM   42  O15 UNL     1     -16.639  14.177  -8.213  1.00  0.00    -0.307 OA
HETATM   43  H36 UNL     1     -16.215  14.428  -7.358  1.00  0.00     0.222 HD
ENDBRANCH  40  42
BRANCH  40  44
HETATM   44  O16 UNL     1     -17.081  11.747  -7.829  1.00  0.00    -0.307 OA
HETATM   45  H37 UNL     1     -17.866  11.454  -8.318  1.00  0.00     0.222 HD
ENDBRANCH  40  44
ENDBRANCH  39  40
ENDBRANCH  35  39
BRANCH  36  46
HETATM   46  O12 UNL     1     -12.806  12.196  -9.653  1.00  0.00    -0.388 OA
HETATM   47  H35 UNL     1     -13.740  12.286  -9.960  1.00  0.00     0.210 HD
ENDBRANCH  36  46
BRANCH  37  48
HETATM   48  N3  UNL     1     -10.549  11.010  -7.620  1.00  0.00    -0.297 N 
HETATM   49  C19 UNL     1      -9.411  11.711  -7.943  1.00  0.00     0.188 A 
HETATM   50  N4  UNL     1      -8.342  10.946  -7.959  1.00  0.00    -0.346 N 
HETATM   51  C20 UNL     1      -8.809   9.687  -7.625  1.00  0.00     0.116 A 
HETATM   52  H4  UNL     1      -7.382  11.219  -8.170  1.00  0.00     0.167 HD
HETATM   53  C21 UNL     1      -8.166   8.452  -7.433  1.00  0.00     0.109 A 
HETATM   54  C23 UNL     1     -10.181   9.705  -7.451  1.00  0.00     0.142 A 
HETATM   55  N5  UNL     1      -8.919   7.371  -7.113  1.00  0.00    -0.341 N 
HETATM   56  C22 UNL     1     -10.252   7.533  -7.000  1.00  0.00     0.183 A 
HETATM   57  H5  UNL     1      -8.488   6.459  -6.962  1.00  0.00     0.167 HD
HETATM   58  N6  UNL     1     -10.975   8.662  -7.151  1.00  0.00    -0.336 N 
HETATM   59  H6  UNL     1     -11.989   8.717  -7.051  1.00  0.00     0.168 HD
BRANCH  53  60
HETATM   60  N7  UNL     1      -6.798   8.276  -7.563  1.00  0.00    -0.287 NA
HETATM   61  H33 UNL     1      -6.282   9.133  -7.753  1.00  0.00     0.125 HD
HETATM   62  H34 UNL     1      -6.555   7.466  -8.116  1.00  0.00     0.125 HD
ENDBRANCH  53  60
ENDBRANCH  37  48
ENDBRANCH  33  34
ENDBRANCH  32  33
ENDBRANCH  28  32
ENDBRANCH  27  28
ENDBRANCH  23  27
ENDBRANCH  22  23
ENDBRANCH  21  22
ENDBRANCH  18  21
ENDBRANCH  17  18
BRANCH  17  63
HETATM   63  O17 UNL     1     -14.033   7.087 -12.414  1.00  0.00    -0.385 OA
HETATM   64  H38 UNL     1     -14.581   7.012 -11.615  1.00  0.00     0.210 HD
ENDBRANCH  17  63
ENDBRANCH  14  17
ENDBRANCH  12  13
ENDBRANCH  11  12
ENDBRANCH   8  11
ENDBRANCH   6   7
ENDBRANCH   5   6
ENDBRANCH   4   5
ENDBRANCH   2   4
TORSDOF 27
ENDMDL
MODEL 7
REMARK VINA RESULT:      -4.8      3.502      5.566
REMARK  27 active torsions:
REMARK  status: ('A' for Active; 'I' for Inactive)
REMARK    1  A    between atoms: C2_2  and  S1_4 
REMARK    2  A    between atoms: S1_4  and  C3_5 
REMARK    3  A    between atoms: C3_5  and  C4_6 
REMARK    4  A    between atoms: C4_6  and  N1_7 
REMARK       I    between atoms: N1_7  and  C5_8 
REMARK    5  A    between atoms: C5_8  and  C6_10 
REMARK    6  A    between atoms: C6_10  and  C7_11 
REMARK    7  A    between atoms: C7_11  and  N2_12 
REMARK       I    between atoms: N2_12  and  C8_13 
REMARK    8  A    between atoms: C8_13  and  C9_15 
REMARK    9  A    between atoms: C9_15  and  C10_16 
REMARK   10  A    between atoms: C9_15  and  O17_54 
REMARK   11  A    between atoms: C10_16  and  C13_19 
REMARK   12  A    between atoms: C13_19  and  O4_20 
REMARK   13  A    between atoms: O4_20  and  P1_21 
REMARK   14  A    between atoms: P1_21  and  O6_23 
REMARK   15  A    between atoms: P1_21  and  O7_24 
REMARK   16  A    between atoms: O7_24  and  P2_25 
REMARK   17  A    between atoms: P2_25  and  O9_27 
REMARK   18  A    between atoms: P2_25  and  O10_28 
REMARK   19  A    between atoms: O10_28  and  C14_29 
REMARK   20  A    between atoms: C14_29  and  C15_30 
REMARK   21  A    between atoms: C16_31  and  O13_49 
REMARK   22  A    between atoms: C17_32  and  O12_48 
REMARK   23  A    between atoms: C18_33  and  N3_35 
REMARK   24  A    between atoms: C21_40  and  N7_47 
REMARK   25  A    between atoms: O13_49  and  P3_50 
REMARK   26  A    between atoms: P3_50  and  O15_52 
REMARK   27  A    between atoms: P3_50  and  O16_53 
ROOT
HETATM    1  C1  UNL     1      -6.790   7.033  -8.703  1.00  0.00     0.104 C 
HETATM    2  C2  UNL     1      -6.808   6.338  -7.376  1.00  0.00     0.182 C 
HETATM    3  O1  UNL     1      -6.224   5.278  -7.162  1.00  0.00    -0.286 OA
ENDROOT
BRANCH   2   4
HETATM    4  S1  UNL     1      -7.772   7.145  -6.147  1.00  0.00    -0.091 SA
BRANCH   4   5
HETATM    5  C3  UNL     1      -8.966   8.029  -7.202  1.00  0.00     0.102 C 
BRANCH   5   6
HETATM    6  C4  UNL     1     -10.392   7.509  -7.008  1.00  0.00     0.133 C 
BRANCH   6   7
HETATM    7  N1  UNL     1     -11.359   8.575  -6.847  1.00  0.00    -0.360 N 
HETATM    8  C5  UNL     1     -12.344   8.520  -5.889  1.00  0.00     0.219 C 
HETATM    9  O2  UNL     1     -12.514   7.540  -5.172  1.00  0.00    -0.274 OA
HETATM   10  H8  UNL     1     -11.299   9.382  -7.453  1.00  0.00     0.162 HD
BRANCH   8  11
HETATM   11  C6  UNL     1     -13.214   9.758  -5.851  1.00  0.00     0.122 C 
BRANCH  11  12
HETATM   12  C7  UNL     1     -13.659  10.185  -7.249  1.00  0.00     0.132 C 
BRANCH  12  13
HETATM   13  N2  UNL     1     -13.061  11.432  -7.679  1.00  0.00    -0.358 N 
HETATM   14  C8  UNL     1     -12.215  11.458  -8.772  1.00  0.00     0.247 C 
HETATM   15  O3  UNL     1     -11.848  10.435  -9.337  1.00  0.00    -0.271 OA
HETATM   16  H13 UNL     1     -13.612  12.268  -7.497  1.00  0.00     0.162 HD
BRANCH  14  17
HETATM   17  C9  UNL     1     -11.793  12.863  -9.227  1.00  0.00     0.219 C 
BRANCH  17  18
HETATM   18  C10 UNL     1     -12.955  13.742  -9.761  1.00  0.00     0.009 C 
HETATM   19  C11 UNL     1     -13.572  14.615  -8.658  1.00  0.00     0.020 C 
HETATM   20  C12 UNL     1     -12.484  14.673 -10.896  1.00  0.00     0.020 C 
BRANCH  18  21
HETATM   21  C13 UNL     1     -14.024  12.751 -10.303  1.00  0.00     0.192 C 
BRANCH  21  22
HETATM   22  O4  UNL     1     -13.784  12.382 -11.646  1.00  0.00    -0.296 OA
BRANCH  22  23
HETATM   23  P1  UNL     1     -14.446  11.089 -12.326  1.00  0.00     0.401 P 
HETATM   24  O5  UNL     1     -13.479  10.229 -13.076  1.00  0.00    -0.631 OA
BRANCH  23  25
HETATM   25  O6  UNL     1     -15.678  11.613 -13.219  1.00  0.00    -0.307 OA
HETATM   26  H23 UNL     1     -15.398  12.264 -13.875  1.00  0.00     0.222 HD
ENDBRANCH  23  25
BRANCH  23  27
HETATM   27  O7  UNL     1     -15.213  10.351 -11.143  1.00  0.00    -0.195 OA
BRANCH  27  28
HETATM   28  P2  UNL     1     -16.637   9.699 -11.438  1.00  0.00     0.401 P 
HETATM   29  O8  UNL     1     -17.815  10.618 -11.436  1.00  0.00    -0.631 OA
BRANCH  28  30
HETATM   30  O9  UNL     1     -16.410   8.933 -12.820  1.00  0.00    -0.307 OA
HETATM   31  H24 UNL     1     -16.143   7.987 -12.719  1.00  0.00     0.222 HD
ENDBRANCH  28  30
BRANCH  28  32
HETATM   32  O10 UNL     1     -16.713   8.465 -10.427  1.00  0.00    -0.294 OA
BRANCH  32  33
HETATM   33  C14 UNL     1     -16.947   8.689  -9.062  1.00  0.00     0.215 C 
BRANCH  33  34
HETATM   34  C15 UNL     1     -16.906   7.317  -8.391  1.00  0.00     0.180 C 
HETATM   35  C16 UNL     1     -15.964   7.356  -7.195  1.00  0.00     0.197 C 
HETATM   36  C17 UNL     1     -14.869   6.362  -7.535  1.00  0.00     0.199 C 
HETATM   37  C18 UNL     1     -15.582   5.416  -8.505  1.00  0.00     0.262 C 
HETATM   38  O11 UNL     1     -16.453   6.279  -9.269  1.00  0.00    -0.353 OA
BRANCH  35  39
HETATM   39  O13 UNL     1     -16.701   6.968  -6.040  1.00  0.00    -0.286 OA
BRANCH  39  40
HETATM   40  P3  UNL     1     -16.609   7.969  -4.797  1.00  0.00     0.391 P 
HETATM   41  O14 UNL     1     -16.699   9.411  -5.176  1.00  0.00    -0.632 OA
BRANCH  40  42
HETATM   42  O15 UNL     1     -15.256   7.467  -4.108  1.00  0.00    -0.307 OA
HETATM   43  H36 UNL     1     -15.166   6.488  -4.188  1.00  0.00     0.222 HD
ENDBRANCH  40  42
BRANCH  40  44
HETATM   44  O16 UNL     1     -17.739   7.387  -3.840  1.00  0.00    -0.307 OA
HETATM   45  H37 UNL     1     -18.613   7.362  -4.262  1.00  0.00     0.222 HD
ENDBRANCH  40  44
ENDBRANCH  39  40
ENDBRANCH  35  39
BRANCH  36  46
HETATM   46  O12 UNL     1     -14.328   5.792  -6.340  1.00  0.00    -0.388 OA
HETATM   47  H35 UNL     1     -13.562   6.358  -6.085  1.00  0.00     0.210 HD
ENDBRANCH  36  46
BRANCH  37  48
HETATM   48  N3  UNL     1     -14.665   4.757  -9.414  1.00  0.00    -0.297 N 
HETATM   49  C19 UNL     1     -14.182   3.473  -9.320  1.00  0.00     0.188 A 
HETATM   50  N4  UNL     1     -13.469   3.131 -10.371  1.00  0.00    -0.346 N 
HETATM   51  C20 UNL     1     -13.494   4.247 -11.188  1.00  0.00     0.116 A 
HETATM   52  H4  UNL     1     -13.001   2.241 -10.545  1.00  0.00     0.167 HD
HETATM   53  C21 UNL     1     -12.962   4.507 -12.463  1.00  0.00     0.109 A 
HETATM   54  C23 UNL     1     -14.199   5.275 -10.590  1.00  0.00     0.142 A 
HETATM   55  N5  UNL     1     -13.154   5.733 -13.009  1.00  0.00    -0.341 N 
HETATM   56  C22 UNL     1     -13.843   6.647 -12.297  1.00  0.00     0.183 A 
HETATM   57  H5  UNL     1     -12.785   5.957 -13.933  1.00  0.00     0.167 HD
HETATM   58  N6  UNL     1     -14.404   6.511 -11.079  1.00  0.00    -0.336 N 
HETATM   59  H6  UNL     1     -14.915   7.248 -10.592  1.00  0.00     0.168 HD
BRANCH  53  60
HETATM   60  N7  UNL     1     -12.241   3.575 -13.192  1.00  0.00    -0.287 NA
HETATM   61  H33 UNL     1     -12.648   2.643 -13.200  1.00  0.00     0.125 HD
HETATM   62  H34 UNL     1     -11.244   3.635 -13.032  1.00  0.00     0.125 HD
ENDBRANCH  53  60
ENDBRANCH  37  48
ENDBRANCH  33  34
ENDBRANCH  32  33
ENDBRANCH  28  32
ENDBRANCH  27  28
ENDBRANCH  23  27
ENDBRANCH  22  23
ENDBRANCH  21  22
ENDBRANCH  18  21
ENDBRANCH  17  18
BRANCH  17  63
HETATM   63  O17 UNL     1     -11.154  13.558  -8.151  1.00  0.00    -0.385 OA
HETATM   64  H38 UNL     1     -11.533  14.452  -8.102  1.00  0.00     0.210 HD
ENDBRANCH  17  63
ENDBRANCH  14  17
ENDBRANCH  12  13
ENDBRANCH  11  12
ENDBRANCH   8  11
ENDBRANCH   6   7
ENDBRANCH   5   6
ENDBRANCH   4   5
ENDBRANCH   2   4
TORSDOF 27
ENDMDL
MODEL 8
REMARK VINA RESULT:      -4.8      3.455      7.457
REMARK  27 active torsions:
REMARK  status: ('A' for Active; 'I' for Inactive)
REMARK    1  A    between atoms: C2_2  and  S1_4 
REMARK    2  A    between atoms: S1_4  and  C3_5 
REMARK    3  A    between atoms: C3_5  and  C4_6 
REMARK    4  A    between atoms: C4_6  and  N1_7 
REMARK       I    between atoms: N1_7  and  C5_8 
REMARK    5  A    between atoms: C5_8  and  C6_10 
REMARK    6  A    between atoms: C6_10  and  C7_11 
REMARK    7  A    between atoms: C7_11  and  N2_12 
REMARK       I    between atoms: N2_12  and  C8_13 
REMARK    8  A    between atoms: C8_13  and  C9_15 
REMARK    9  A    between atoms: C9_15  and  C10_16 
REMARK   10  A    between atoms: C9_15  and  O17_54 
REMARK   11  A    between atoms: C10_16  and  C13_19 
REMARK   12  A    between atoms: C13_19  and  O4_20 
REMARK   13  A    between atoms: O4_20  and  P1_21 
REMARK   14  A    between atoms: P1_21  and  O6_23 
REMARK   15  A    between atoms: P1_21  and  O7_24 
REMARK   16  A    between atoms: O7_24  and  P2_25 
REMARK   17  A    between atoms: P2_25  and  O9_27 
REMARK   18  A    between atoms: P2_25  and  O10_28 
REMARK   19  A    between atoms: O10_28  and  C14_29 
REMARK   20  A    between atoms: C14_29  and  C15_30 
REMARK   21  A    between atoms: C16_31  and  O13_49 
REMARK   22  A    between atoms: C17_32  and  O12_48 
REMARK   23  A    between atoms: C18_33  and  N3_35 
REMARK   24  A    between atoms: C21_40  and  N7_47 
REMARK   25  A    between atoms: O13_49  and  P3_50 
REMARK   26  A    between atoms: P3_50  and  O15_52 
REMARK   27  A    between atoms: P3_50  and  O16_53 
ROOT
HETATM    1  C1  UNL     1     -17.691  -0.037  -4.359  1.00  0.00     0.104 C 
HETATM    2  C2  UNL     1     -16.467   0.118  -5.210  1.00  0.00     0.182 C 
HETATM    3  O1  UNL     1     -15.372   0.447  -4.761  1.00  0.00    -0.286 OA
ENDROOT
BRANCH   2   4
HETATM    4  S1  UNL     1     -16.734  -0.171  -6.923  1.00  0.00    -0.091 SA
BRANCH   4   5
HETATM    5  C3  UNL     1     -18.046   1.050  -7.257  1.00  0.00     0.102 C 
BRANCH   5   6
HETATM    6  C4  UNL     1     -17.475   2.373  -7.770  1.00  0.00     0.133 C 
BRANCH   6   7
HETATM    7  N1  UNL     1     -16.068   2.285  -8.102  1.00  0.00    -0.360 N 
HETATM    8  C5  UNL     1     -15.622   2.392  -9.399  1.00  0.00     0.219 C 
HETATM    9  O2  UNL     1     -16.385   2.485 -10.353  1.00  0.00    -0.274 OA
HETATM   10  H8  UNL     1     -15.400   2.149  -7.355  1.00  0.00     0.162 HD
BRANCH   8  11
HETATM   11  C6  UNL     1     -14.115   2.328  -9.521  1.00  0.00     0.122 C 
BRANCH  11  12
HETATM   12  C7  UNL     1     -13.546   3.566 -10.214  1.00  0.00     0.132 C 
BRANCH  12  13
HETATM   13  N2  UNL     1     -13.973   4.806  -9.601  1.00  0.00    -0.358 N 
HETATM   14  C8  UNL     1     -14.662   5.748 -10.342  1.00  0.00     0.247 C 
HETATM   15  O3  UNL     1     -14.832   5.631 -11.549  1.00  0.00    -0.271 OA
HETATM   16  H13 UNL     1     -14.179   4.754  -8.606  1.00  0.00     0.162 HD
BRANCH  14  17
HETATM   17  C9  UNL     1     -15.208   6.932  -9.530  1.00  0.00     0.219 C 
BRANCH  17  18
HETATM   18  C10 UNL     1     -16.580   6.670  -8.855  1.00  0.00     0.009 C 
HETATM   19  C11 UNL     1     -17.455   5.710  -9.675  1.00  0.00     0.020 C 
HETATM   20  C12 UNL     1     -16.411   6.070  -7.445  1.00  0.00     0.020 C 
BRANCH  18  21
HETATM   21  C13 UNL     1     -17.278   8.057  -8.755  1.00  0.00     0.192 C 
BRANCH  21  22
HETATM   22  O4  UNL     1     -16.469   9.104  -9.251  1.00  0.00    -0.296 OA
BRANCH  22  23
HETATM   23  P1  UNL     1     -17.069  10.385 -10.005  1.00  0.00     0.401 P 
HETATM   24  O5  UNL     1     -18.393  10.146 -10.660  1.00  0.00    -0.631 OA
BRANCH  23  25
HETATM   25  O6  UNL     1     -15.929  10.906 -11.016  1.00  0.00    -0.307 OA
HETATM   26  H23 UNL     1     -16.168  10.753 -11.939  1.00  0.00     0.222 HD
ENDBRANCH  23  25
BRANCH  23  27
HETATM   27  O7  UNL     1     -17.067  11.543  -8.914  1.00  0.00    -0.195 OA
BRANCH  27  28
HETATM   28  P2  UNL     1     -16.776  13.039  -9.379  1.00  0.00     0.401 P 
HETATM   29  O8  UNL     1     -17.434  13.496 -10.639  1.00  0.00    -0.631 OA
BRANCH  28  30
HETATM   30  O9  UNL     1     -17.160  13.904  -8.093  1.00  0.00    -0.307 OA
HETATM   31  H24 UNL     1     -16.435  13.976  -7.424  1.00  0.00     0.222 HD
ENDBRANCH  28  30
BRANCH  28  32
HETATM   32  O10 UNL     1     -15.183  13.151  -9.344  1.00  0.00    -0.294 OA
BRANCH  32  33
HETATM   33  C14 UNL     1     -14.541  13.674  -8.211  1.00  0.00     0.215 C 
BRANCH  33  34
HETATM   34  C15 UNL     1     -13.324  12.784  -7.961  1.00  0.00     0.180 C 
HETATM   35  C16 UNL     1     -13.089  11.883  -9.166  1.00  0.00     0.197 C 
HETATM   36  C17 UNL     1     -13.259  10.474  -8.631  1.00  0.00     0.199 C 
HETATM   37  C18 UNL     1     -12.928  10.649  -7.147  1.00  0.00     0.262 C 
HETATM   38  O11 UNL     1     -13.474  11.944  -6.811  1.00  0.00    -0.353 OA
BRANCH  35  39
HETATM   39  O13 UNL     1     -11.768  12.121  -9.643  1.00  0.00    -0.286 OA
BRANCH  39  40
HETATM   40  P3  UNL     1     -11.667  12.941 -11.011  1.00  0.00     0.391 P 
HETATM   41  O14 UNL     1     -10.634  12.414 -11.954  1.00  0.00    -0.632 OA
BRANCH  40  42
HETATM   42  O15 UNL     1     -11.472  14.428 -10.455  1.00  0.00    -0.307 OA
HETATM   43  H36 UNL     1     -12.292  14.742 -10.005  1.00  0.00     0.222 HD
ENDBRANCH  40  42
BRANCH  40  44
HETATM   44  O16 UNL     1     -13.181  12.931 -11.497  1.00  0.00    -0.307 OA
HETATM   45  H37 UNL     1     -13.588  13.812 -11.478  1.00  0.00     0.222 HD
ENDBRANCH  40  44
ENDBRANCH  39  40
ENDBRANCH  35  39
BRANCH  36  46
HETATM   46  O12 UNL     1     -12.454   9.559  -9.380  1.00  0.00    -0.388 OA
HETATM   47  H35 UNL     1     -11.525   9.695  -9.078  1.00  0.00     0.210 HD
ENDBRANCH  36  46
BRANCH  37  48
HETATM   48  N3  UNL     1     -13.559   9.646  -6.314  1.00  0.00    -0.297 N 
HETATM   49  C19 UNL     1     -12.944   8.614  -5.644  1.00  0.00     0.188 A 
HETATM   50  N4  UNL     1     -13.778   7.953  -4.871  1.00  0.00    -0.346 N 
HETATM   51  C20 UNL     1     -14.994   8.590  -5.046  1.00  0.00     0.116 A 
HETATM   52  H4  UNL     1     -13.575   7.151  -4.276  1.00  0.00     0.167 HD
HETATM   53  C21 UNL     1     -16.263   8.394  -4.474  1.00  0.00     0.109 A 
HETATM   54  C23 UNL     1     -14.881   9.616  -5.967  1.00  0.00     0.142 A 
HETATM   55  N5  UNL     1     -17.283   9.195  -4.868  1.00  0.00    -0.341 N 
HETATM   56  C22 UNL     1     -17.031  10.141  -5.795  1.00  0.00     0.183 A 
HETATM   57  H5  UNL     1     -18.217   9.086  -4.473  1.00  0.00     0.167 HD
HETATM   58  N6  UNL     1     -15.861  10.427  -6.403  1.00  0.00    -0.336 N 
HETATM   59  H6  UNL     1     -15.737  11.160  -7.101  1.00  0.00     0.168 HD
BRANCH  53  60
HETATM   60  N7  UNL     1     -16.531   7.414  -3.532  1.00  0.00    -0.287 NA
HETATM   61  H33 UNL     1     -16.889   7.770  -2.648  1.00  0.00     0.125 HD
HETATM   62  H34 UNL     1     -15.809   6.709  -3.480  1.00  0.00     0.125 HD
ENDBRANCH  53  60
ENDBRANCH  37  48
ENDBRANCH  33  34
ENDBRANCH  32  33
ENDBRANCH  28  32
ENDBRANCH  27  28
ENDBRANCH  23  27
ENDBRANCH  22  23
ENDBRANCH  21  22
ENDBRANCH  18  21
ENDBRANCH  17  18
BRANCH  17  63
HETATM   63  O17 UNL     1     -14.269   7.311  -8.518  1.00  0.00    -0.385 OA
HETATM   64  H38 UNL     1     -14.287   6.635  -7.821  1.00  0.00     0.210 HD
ENDBRANCH  17  63
ENDBRANCH  14  17
ENDBRANCH  12  13
ENDBRANCH  11  12
ENDBRANCH   8  11
ENDBRANCH   6   7
ENDBRANCH   5   6
ENDBRANCH   4   5
ENDBRANCH   2   4
TORSDOF 27
ENDMDL
MODEL 9
REMARK VINA RESULT:      -4.8      4.664      9.299
REMARK  27 active torsions:
REMARK  status: ('A' for Active; 'I' for Inactive)
REMARK    1  A    between atoms: C2_2  and  S1_4 
REMARK    2  A    between atoms: S1_4  and  C3_5 
REMARK    3  A    between atoms: C3_5  and  C4_6 
REMARK    4  A    between atoms: C4_6  and  N1_7 
REMARK       I    between atoms: N1_7  and  C5_8 
REMARK    5  A    between atoms: C5_8  and  C6_10 
REMARK    6  A    between atoms: C6_10  and  C7_11 
REMARK    7  A    between atoms: C7_11  and  N2_12 
REMARK       I    between atoms: N2_12  and  C8_13 
REMARK    8  A    between atoms: C8_13  and  C9_15 
REMARK    9  A    between atoms: C9_15  and  C10_16 
REMARK   10  A    between atoms: C9_15  and  O17_54 
REMARK   11  A    between atoms: C10_16  and  C13_19 
REMARK   12  A    between atoms: C13_19  and  O4_20 
REMARK   13  A    between atoms: O4_20  and  P1_21 
REMARK   14  A    between atoms: P1_21  and  O6_23 
REMARK   15  A    between atoms: P1_21  and  O7_24 
REMARK   16  A    between atoms: O7_24  and  P2_25 
REMARK   17  A    between atoms: P2_25  and  O9_27 
REMARK   18  A    between atoms: P2_25  and  O10_28 
REMARK   19  A    between atoms: O10_28  and  C14_29 
REMARK   20  A    between atoms: C14_29  and  C15_30 
REMARK   21  A    between atoms: C16_31  and  O13_49 
REMARK   22  A    between atoms: C17_32  and  O12_48 
REMARK   23  A    between atoms: C18_33  and  N3_35 
REMARK   24  A    between atoms: C21_40  and  N7_47 
REMARK   25  A    between atoms: O13_49  and  P3_50 
REMARK   26  A    between atoms: P3_50  and  O15_52 
REMARK   27  A    between atoms: P3_50  and  O16_53 
ROOT
HETATM    1  C1  UNL     1      -7.056   7.526  -4.755  1.00  0.00     0.104 C 
HETATM    2  C2  UNL     1      -7.118   6.913  -6.121  1.00  0.00     0.182 C 
HETATM    3  O1  UNL     1      -6.452   5.936  -6.452  1.00  0.00    -0.286 OA
ENDROOT
BRANCH   2   4
HETATM    4  S1  UNL     1      -8.201   7.736  -7.236  1.00  0.00    -0.091 SA
BRANCH   4   5
HETATM    5  C3  UNL     1      -9.810   7.137  -6.625  1.00  0.00     0.102 C 
BRANCH   5   6
HETATM    6  C4  UNL     1     -10.952   8.081  -7.007  1.00  0.00     0.133 C 
BRANCH   6   7
HETATM    7  N1  UNL     1     -11.948   8.206  -5.962  1.00  0.00    -0.360 N 
HETATM    8  C5  UNL     1     -13.059   7.396  -5.922  1.00  0.00     0.219 C 
HETATM    9  O2  UNL     1     -13.316   6.583  -6.802  1.00  0.00    -0.274 OA
HETATM   10  H8  UNL     1     -11.813   8.903  -5.242  1.00  0.00     0.162 HD
BRANCH   8  11
HETATM   11  C6  UNL     1     -13.943   7.652  -4.720  1.00  0.00     0.122 C 
BRANCH  11  12
HETATM   12  C7  UNL     1     -15.299   8.231  -5.122  1.00  0.00     0.132 C 
BRANCH  12  13
HETATM   13  N2  UNL     1     -15.462   8.354  -6.555  1.00  0.00    -0.358 N 
HETATM   14  C8  UNL     1     -16.715   8.234  -7.127  1.00  0.00     0.247 C 
HETATM   15  O3  UNL     1     -17.699   7.907  -6.477  1.00  0.00    -0.271 OA
HETATM   16  H13 UNL     1     -14.794   8.965  -7.021  1.00  0.00     0.162 HD
BRANCH  14  17
HETATM   17  C9  UNL     1     -16.772   8.561  -8.627  1.00  0.00     0.219 C 
BRANCH  17  18
HETATM   18  C10 UNL     1     -16.843  10.076  -8.952  1.00  0.00     0.009 C 
HETATM   19  C11 UNL     1     -17.792  10.373 -10.123  1.00  0.00     0.020 C 
HETATM   20  C12 UNL     1     -17.320  10.894  -7.735  1.00  0.00     0.020 C 
BRANCH  18  21
HETATM   21  C13 UNL     1     -15.395  10.499  -9.333  1.00  0.00     0.192 C 
BRANCH  21  22
HETATM   22  O4  UNL     1     -14.539  10.558  -8.211  1.00  0.00    -0.296 OA
BRANCH  22  23
HETATM   23  P1  UNL     1     -13.296  11.567  -8.115  1.00  0.00     0.401 P 
HETATM   24  O5  UNL     1     -12.356  11.276  -6.988  1.00  0.00    -0.631 OA
BRANCH  23  25
HETATM   25  O6  UNL     1     -13.908  13.056  -8.083  1.00  0.00    -0.307 OA
HETATM   26  H23 UNL     1     -13.770  13.485  -7.228  1.00  0.00     0.222 HD
ENDBRANCH  23  25
BRANCH  23  27
HETATM   27  O7  UNL     1     -12.631  11.538  -9.560  1.00  0.00    -0.195 OA
BRANCH  27  28
HETATM   28  P2  UNL     1     -12.167  12.910 -10.222  1.00  0.00     0.401 P 
HETATM   29  O8  UNL     1     -13.219  13.722 -10.906  1.00  0.00    -0.631 OA
BRANCH  28  30
HETATM   30  O9  UNL     1     -11.438  13.668  -9.021  1.00  0.00    -0.307 OA
HETATM   31  H24 UNL     1     -11.335  13.123  -8.203  1.00  0.00     0.222 HD
ENDBRANCH  28  30
BRANCH  28  32
HETATM   32  O10 UNL     1     -10.910  12.501 -11.118  1.00  0.00    -0.294 OA
BRANCH  32  33
HETATM   33  C14 UNL     1     -10.937  12.715 -12.505  1.00  0.00     0.215 C 
BRANCH  33  34
HETATM   34  C15 UNL     1      -9.932  13.831 -12.784  1.00  0.00     0.180 C 
HETATM   35  C16 UNL     1      -8.753  13.278 -13.574  1.00  0.00     0.197 C 
HETATM   36  C17 UNL     1      -7.553  13.483 -12.669  1.00  0.00     0.199 C 
HETATM   37  C18 UNL     1      -8.003  14.659 -11.798  1.00  0.00     0.262 C 
HETATM   38  O11 UNL     1      -9.414  14.429 -11.590  1.00  0.00    -0.353 OA
BRANCH  35  39
HETATM   39  O13 UNL     1      -8.646  14.021 -14.784  1.00  0.00    -0.286 OA
BRANCH  39  40
HETATM   40  P3  UNL     1      -8.306  13.165 -16.091  1.00  0.00     0.391 P 
HETATM   41  O14 UNL     1      -9.305  13.322 -17.191  1.00  0.00    -0.632 OA
BRANCH  40  42
HETATM   42  O15 UNL     1      -8.126  11.708 -15.456  1.00  0.00    -0.307 OA
HETATM   43  H36 UNL     1      -7.392  11.703 -14.796  1.00  0.00     0.222 HD
ENDBRANCH  40  42
BRANCH  40  44
HETATM   44  O16 UNL     1      -6.810  13.619 -16.384  1.00  0.00    -0.307 OA
HETATM   45  H37 UNL     1      -6.752  14.525 -16.727  1.00  0.00     0.222 HD
ENDBRANCH  40  44
ENDBRANCH  39  40
ENDBRANCH  35  39
BRANCH  36  46
HETATM   46  O12 UNL     1      -6.368  13.659 -13.449  1.00  0.00    -0.388 OA
HETATM   47  H35 UNL     1      -5.681  13.077 -13.045  1.00  0.00     0.210 HD
ENDBRANCH  36  46
BRANCH  37  48
HETATM   48  N3  UNL     1      -7.340  14.682 -10.510  1.00  0.00    -0.297 N 
HETATM   49  C19 UNL     1      -6.380  15.572 -10.085  1.00  0.00     0.188 A 
HETATM   50  N4  UNL     1      -6.070  15.403  -8.818  1.00  0.00    -0.346 N 
HETATM   51  C20 UNL     1      -6.872  14.356  -8.399  1.00  0.00     0.116 A 
HETATM   52  H4  UNL     1      -5.391  15.927  -8.267  1.00  0.00     0.167 HD
HETATM   53  C21 UNL     1      -7.045  13.728  -7.153  1.00  0.00     0.109 A 
HETATM   54  C23 UNL     1      -7.634  13.874  -9.447  1.00  0.00     0.142 A 
HETATM   55  N5  UNL     1      -7.920  12.697  -7.063  1.00  0.00    -0.341 N 
HETATM   56  C22 UNL     1      -8.579  12.319  -8.176  1.00  0.00     0.183 A 
HETATM   57  H5  UNL     1      -8.075  12.219  -6.175  1.00  0.00     0.167 HD
HETATM   58  N6  UNL     1      -8.502  12.847  -9.415  1.00  0.00    -0.336 N 
HETATM   59  H6  UNL     1      -9.031  12.512 -10.220  1.00  0.00     0.168 HD
BRANCH  53  60
HETATM   60  N7  UNL     1      -6.360  14.103  -6.009  1.00  0.00    -0.287 NA
HETATM   61  H33 UNL     1      -5.622  13.458  -5.733  1.00  0.00     0.125 HD
HETATM   62  H34 UNL     1      -6.969  14.439  -5.276  1.00  0.00     0.125 HD
ENDBRANCH  53  60
ENDBRANCH  37  48
ENDBRANCH  33  34
ENDBRANCH  32  33
ENDBRANCH  28  32
ENDBRANCH  27  28
ENDBRANCH  23  27
ENDBRANCH  22  23
ENDBRANCH  21  22
ENDBRANCH  18  21
ENDBRANCH  17  18
BRANCH  17  63
HETATM   63  O17 UNL     1     -15.636   8.005  -9.297  1.00  0.00    -0.385 OA
HETATM   64  H38 UNL     1     -15.167   7.431  -8.669  1.00  0.00     0.210 HD
ENDBRANCH  17  63
ENDBRANCH  14  17
ENDBRANCH  12  13
ENDBRANCH  11  12
ENDBRANCH   8  11
ENDBRANCH   6   7
ENDBRANCH   5   6
ENDBRANCH   4   5
ENDBRANCH   2   4
TORSDOF 27
ENDMDL
