HETATM    1  C1  PAP L   1      10.924  11.068   0.760  1.00  0.00     0.026 A 
HETATM    2  C2  PAP L   1      11.338  11.281   2.077  1.00  0.00     0.038 A 
HETATM    3  C3  PAP L   1      10.404  11.265   3.103  1.00  0.00     0.065 A 
HETATM    4  C4  PAP L   1       9.061  11.022   2.835  1.00  0.00     0.038 A 
HETATM    5  C5  PAP L   1       8.653  10.810   1.515  1.00  0.00     0.026 A 
HETATM    6  C6  PAP L   1       9.571  10.881   0.461  1.00  0.00     0.005 A 
HETATM    7  N1  PAP L   1       9.175  10.551  -0.840  1.00  0.00    -0.303 NA
HETATM    8  H5  PAP L   1       9.142  11.345  -1.471  1.00  0.00     0.124 HD
HETATM    9  H6  PAP L   1       8.331   9.989  -0.883  1.00  0.00     0.124 HD
HETATM   10  O1  PAP L   1      10.848  11.475   4.374  1.00  0.00    -0.361 OA
HETATM   11  H7  PAP L   1      10.823  12.427   4.558  1.00  0.00     0.217 HD
HETATM    1  C1  PAP L   1       8.784  11.107   2.476  1.00  0.00     0.026 A 
HETATM    2  C2  PAP L   1       8.452  10.822   1.149  1.00  0.00     0.038 A 
HETATM    3  C3  PAP L   1       9.449  10.783   0.184  1.00  0.00     0.065 A 
HETATM    4  C4  PAP L   1      10.777  11.009   0.528  1.00  0.00     0.038 A 
HETATM    5  C5  PAP L   1      11.102  11.295   1.858  1.00  0.00     0.026 A 
HETATM    6  C6  PAP L   1      10.104  11.397   2.833  1.00  0.00     0.005 A 
HETATM    7  N1  PAP L   1      10.450  11.564   4.179  1.00  0.00    -0.303 NA
HETATM    8  H5  PAP L   1       9.817  11.102   4.823  1.00  0.00     0.124 HD
HETATM    9  H6  PAP L   1      10.630  12.528   4.440  1.00  0.00     0.124 HD
HETATM   10  O1  PAP L   1       9.085  10.499  -1.098  1.00  0.00    -0.361 OA
HETATM   11  H7  PAP L   1       9.368  11.230  -1.670  1.00  0.00     0.217 HD
HETATM    1  C1  PAP L   1      20.761   0.373   3.699  1.00  0.00     0.026 A 
HETATM    2  C2  PAP L   1      19.953   0.529   2.570  1.00  0.00     0.038 A 
HETATM    3  C3  PAP L   1      20.527   0.886   1.358  1.00  0.00     0.065 A 
HETATM    4  C4  PAP L   1      21.900   1.075   1.252  1.00  0.00     0.038 A 
HETATM    5  C5  PAP L   1      22.703   0.918   2.387  1.00  0.00     0.026 A 
HETATM    6  C6  PAP L   1      22.136   0.616   3.630  1.00  0.00     0.005 A 
HETATM    7  N1  PAP L   1      22.957   0.344   4.730  1.00  0.00    -0.303 NA
HETATM    8  H5  PAP L   1      23.105   1.144   5.336  1.00  0.00     0.124 HD
HETATM    9  H6  PAP L   1      23.825  -0.124   4.489  1.00  0.00     0.124 HD
HETATM   10  O1  PAP L   1      19.706   1.026   0.280  1.00  0.00    -0.361 OA
HETATM   11  H7  PAP L   1      19.193   1.844   0.384  1.00  0.00     0.217 HD
HETATM    1  C1  PAP L   1      20.023   0.559   2.773  1.00  0.00     0.026 A 
HETATM    2  C2  PAP L   1      20.898   0.356   3.843  1.00  0.00     0.038 A 
HETATM    3  C3  PAP L   1      22.262   0.532   3.659  1.00  0.00     0.065 A 
HETATM    4  C4  PAP L   1      22.766   0.925   2.423  1.00  0.00     0.038 A 
HETATM    5  C5  PAP L   1      21.884   1.125   1.356  1.00  0.00     0.026 A 
HETATM    6  C6  PAP L   1      20.512   0.896   1.507  1.00  0.00     0.005 A 
HETATM    7  N1  PAP L   1      19.627   1.214   0.471  1.00  0.00    -0.303 NA
HETATM    8  H5  PAP L   1      18.652   1.216   0.753  1.00  0.00     0.124 HD
HETATM    9  H6  PAP L   1      19.781   0.681  -0.379  1.00  0.00     0.124 HD
HETATM   10  O1  PAP L   1      23.083   0.327   4.727  1.00  0.00    -0.361 OA
HETATM   11  H7  PAP L   1      23.820   0.956   4.678  1.00  0.00     0.217 HD
HETATM    1  C1  PAP L   1       7.812  13.348   1.798  1.00  0.00     0.026 A 
HETATM    2  C2  PAP L   1       8.029  12.456   0.744  1.00  0.00     0.038 A 
HETATM    3  C3  PAP L   1       8.542  11.193   1.007  1.00  0.00     0.065 A 
HETATM    4  C4  PAP L   1       8.827  10.801   2.310  1.00  0.00     0.038 A 
HETATM    5  C5  PAP L   1       8.607  11.699   3.359  1.00  0.00     0.026 A 
HETATM    6  C6  PAP L   1       8.147  12.996   3.109  1.00  0.00     0.005 A 
HETATM    7  N1  PAP L   1       7.818  13.844   4.172  1.00  0.00    -0.303 NA
HETATM    8  H5  PAP L   1       6.833  13.829   4.417  1.00  0.00     0.124 HD
HETATM    9  H6  PAP L   1       8.176  14.788   4.070  1.00  0.00     0.124 HD
HETATM   10  O1  PAP L   1       8.738  10.352  -0.047  1.00  0.00    -0.361 OA
HETATM   11  H7  PAP L   1       8.303   9.506   0.147  1.00  0.00     0.217 HD
HETATM    1  C1  PAP L   1      21.781   1.289   0.987  1.00  0.00     0.026 A 
HETATM    2  C2  PAP L   1      22.721   1.091   2.002  1.00  0.00     0.038 A 
HETATM    3  C3  PAP L   1      22.295   0.717   3.269  1.00  0.00     0.065 A 
HETATM    4  C4  PAP L   1      20.944   0.523   3.534  1.00  0.00     0.038 A 
HETATM    5  C5  PAP L   1      20.010   0.724   2.513  1.00  0.00     0.026 A 
HETATM    6  C6  PAP L   1      20.414   1.157   1.246  1.00  0.00     0.005 A 
HETATM    7  N1  PAP L   1      19.487   1.240   0.201  1.00  0.00    -0.303 NA
HETATM    8  H5  PAP L   1      19.855   1.676  -0.637  1.00  0.00     0.124 HD
HETATM    9  H6  PAP L   1      18.591   1.629   0.477  1.00  0.00     0.124 HD
HETATM   10  O1  PAP L   1      23.242   0.532   4.231  1.00  0.00    -0.361 OA
HETATM   11  H7  PAP L   1      24.119   0.620   3.825  1.00  0.00     0.217 HD
HETATM    1  C1  PAP L   1       8.073  12.524   0.756  1.00  0.00     0.026 A 
HETATM    2  C2  PAP L   1       7.855  13.324   1.881  1.00  0.00     0.038 A 
HETATM    3  C3  PAP L   1       8.161  12.834   3.143  1.00  0.00     0.065 A 
HETATM    4  C4  PAP L   1       8.698  11.561   3.298  1.00  0.00     0.038 A 
HETATM    5  C5  PAP L   1       8.912  10.766   2.168  1.00  0.00     0.026 A 
HETATM    6  C6  PAP L   1       8.555  11.219   0.893  1.00  0.00     0.005 A 
HETATM    7  N1  PAP L   1       8.884  10.466  -0.240  1.00  0.00    -0.303 NA
HETATM    8  H5  PAP L   1       8.107  10.330  -0.878  1.00  0.00     0.124 HD
HETATM    9  H6  PAP L   1       9.368   9.599  -0.030  1.00  0.00     0.124 HD
HETATM   10  O1  PAP L   1       7.936  13.645   4.214  1.00  0.00    -0.361 OA
HETATM   11  H7  PAP L   1       8.361  14.502   4.049  1.00  0.00     0.217 HD
HETATM    1  C1  PAP L   1       7.874  13.333   1.022  1.00  0.00     0.026 A 
HETATM    2  C2  PAP L   1       8.199  11.991   1.239  1.00  0.00     0.038 A 
HETATM    3  C3  PAP L   1       8.412  11.535   2.532  1.00  0.00     0.065 A 
HETATM    4  C4  PAP L   1       8.290  12.397   3.617  1.00  0.00     0.038 A 
HETATM    5  C5  PAP L   1       7.966  13.739   3.392  1.00  0.00     0.026 A 
HETATM    6  C6  PAP L   1       7.806  14.230   2.092  1.00  0.00     0.005 A 
HETATM    7  N1  PAP L   1       7.365  15.542   1.885  1.00  0.00    -0.303 NA
HETATM    8  H5  PAP L   1       7.859  16.231   2.441  1.00  0.00     0.124 HD
HETATM    9  H6  PAP L   1       6.358  15.651   1.942  1.00  0.00     0.124 HD
HETATM   10  O1  PAP L   1       8.724  10.220   2.702  1.00  0.00    -0.361 OA
HETATM   11  H7  PAP L   1       9.283  10.133   3.491  1.00  0.00     0.217 HD
HETATM    1  C1  PAP L   1       8.603  11.791   1.360  1.00  0.00     0.026 A 
HETATM    2  C2  PAP L   1       8.148  13.025   0.889  1.00  0.00     0.038 A 
HETATM    3  C3  PAP L   1       7.805  14.022   1.792  1.00  0.00     0.065 A 
HETATM    4  C4  PAP L   1       7.926  13.810   3.161  1.00  0.00     0.038 A 
HETATM    5  C5  PAP L   1       8.381  12.572   3.625  1.00  0.00     0.026 A 
HETATM    6  C6  PAP L   1       8.675  11.536   2.733  1.00  0.00     0.005 A 
HETATM    7  N1  PAP L   1       9.242  10.344   3.199  1.00  0.00    -0.303 NA
HETATM    8  H5  PAP L   1       9.342  10.308   4.208  1.00  0.00     0.124 HD
HETATM    9  H6  PAP L   1      10.096  10.080   2.718  1.00  0.00     0.124 HD
HETATM   10  O1  PAP L   1       7.368  15.212   1.293  1.00  0.00    -0.361 OA
HETATM   11  H7  PAP L   1       6.459  15.362   1.599  1.00  0.00     0.217 HD
HETATM    1  C1  PAP L   1      10.147  11.136   0.926  1.00  0.00     0.026 A 
HETATM    2  C2  PAP L   1       9.394  10.585  -0.113  1.00  0.00     0.038 A 
HETATM    3  C3  PAP L   1      10.036  10.075  -1.233  1.00  0.00     0.065 A 
HETATM    4  C4  PAP L   1      11.424  10.093  -1.323  1.00  0.00     0.038 A 
HETATM    5  C5  PAP L   1      12.171  10.647  -0.279  1.00  0.00     0.026 A 
HETATM    6  C6  PAP L   1      11.540  11.219   0.830  1.00  0.00     0.005 A 
HETATM    7  N1  PAP L   1      12.296  11.662   1.921  1.00  0.00    -0.303 NA
HETATM    8  H5  PAP L   1      12.791  10.919   2.403  1.00  0.00     0.124 HD
HETATM    9  H6  PAP L   1      11.784  12.262   2.559  1.00  0.00     0.124 HD
HETATM   10  O1  PAP L   1       9.267   9.543  -2.223  1.00  0.00    -0.361 OA
HETATM   11  H7  PAP L   1       9.727   9.660  -3.070  1.00  0.00     0.217 HD
HETATM    1  C1  PAP L   1      10.607  13.312   1.467  1.00  0.00     0.026 A 
HETATM    2  C2  PAP L   1      11.615  12.345   1.444  1.00  0.00     0.038 A 
HETATM    3  C3  PAP L   1      11.657  11.372   2.433  1.00  0.00     0.065 A 
HETATM    4  C4  PAP L   1      10.696  11.340   3.437  1.00  0.00     0.038 A 
HETATM    5  C5  PAP L   1       9.690  12.312   3.454  1.00  0.00     0.026 A 
HETATM    6  C6  PAP L   1       9.666  13.336   2.500  1.00  0.00     0.005 A 
HETATM    7  N1  PAP L   1       8.590  14.230   2.455  1.00  0.00    -0.303 NA
HETATM    8  H5  PAP L   1       7.826  13.981   3.073  1.00  0.00     0.124 HD
HETATM    9  H6  PAP L   1       8.273  14.442   1.515  1.00  0.00     0.124 HD
HETATM   10  O1  PAP L   1      12.654  10.445   2.374  1.00  0.00    -0.361 OA
HETATM   11  H7  PAP L   1      12.281   9.608   2.055  1.00  0.00     0.217 HD
HETATM    1  C1  PAP L   1      22.804   0.931   2.216  1.00  0.00     0.026 A 
HETATM    2  C2  PAP L   1      22.400   0.916   3.554  1.00  0.00     0.038 A 
HETATM    3  C3  PAP L   1      21.048   0.848   3.864  1.00  0.00     0.065 A 
HETATM    4  C4  PAP L   1      20.093   0.780   2.856  1.00  0.00     0.038 A 
HETATM    5  C5  PAP L   1      20.505   0.797   1.519  1.00  0.00     0.026 A 
HETATM    6  C6  PAP L   1      21.858   0.924   1.187  1.00  0.00     0.005 A 
HETATM    7  N1  PAP L   1      22.268   0.819  -0.147  1.00  0.00    -0.303 NA
HETATM    8  H5  PAP L   1      22.292   1.707  -0.637  1.00  0.00     0.124 HD
HETATM    9  H6  PAP L   1      21.779   0.102  -0.672  1.00  0.00     0.124 HD
HETATM   10  O1  PAP L   1      20.695   0.833   5.179  1.00  0.00    -0.361 OA
HETATM   11  H7  PAP L   1      20.066   1.554   5.340  1.00  0.00     0.217 HD
HETATM    1  C1  PAP L   1       9.777  11.028   0.691  1.00  0.00     0.026 A 
HETATM    2  C2  PAP L   1      11.006  10.791   0.070  1.00  0.00     0.038 A 
HETATM    3  C3  PAP L   1      12.171  10.796   0.825  1.00  0.00     0.065 A 
HETATM    4  C4  PAP L   1      12.124  11.018   2.197  1.00  0.00     0.038 A 
HETATM    5  C5  PAP L   1      10.891  11.255   2.812  1.00  0.00     0.026 A 
HETATM    6  C6  PAP L   1       9.713  11.313   2.058  1.00  0.00     0.005 A 
HETATM    7  N1  PAP L   1       8.474  11.431   2.697  1.00  0.00    -0.303 NA
HETATM    8  H5  PAP L   1       8.524  11.341   3.706  1.00  0.00     0.124 HD
HETATM    9  H6  PAP L   1       7.747  10.847   2.294  1.00  0.00     0.124 HD
HETATM   10  O1  PAP L   1      13.349  10.559   0.183  1.00  0.00    -0.361 OA
HETATM   11  H7  PAP L   1      13.171  10.020  -0.604  1.00  0.00     0.217 HD
HETATM    1  C1  PAP L   1      22.477   1.402   2.290  1.00  0.00     0.026 A 
HETATM    2  C2  PAP L   1      23.343   1.839   3.296  1.00  0.00     0.038 A 
HETATM    3  C3  PAP L   1      23.963   3.075   3.180  1.00  0.00     0.065 A 
HETATM    4  C4  PAP L   1      23.718   3.890   2.080  1.00  0.00     0.038 A 
HETATM    5  C5  PAP L   1      22.852   3.446   1.077  1.00  0.00     0.026 A 
HETATM    6  C6  PAP L   1      22.264   2.178   1.148  1.00  0.00     0.005 A 
HETATM    7  N1  PAP L   1      21.307   1.792   0.202  1.00  0.00    -0.303 NA
HETATM    8  H5  PAP L   1      21.551   0.946  -0.303  1.00  0.00     0.124 HD
HETATM    9  H6  PAP L   1      21.018   2.541  -0.419  1.00  0.00     0.124 HD
HETATM   10  O1  PAP L   1      24.798   3.467   4.183  1.00  0.00    -0.361 OA
HETATM   11  H7  PAP L   1      25.030   4.400   4.047  1.00  0.00     0.217 HD
HETATM    1  C1  PAP L   1      23.249   1.359   3.184  1.00  0.00     0.026 A 
HETATM    2  C2  PAP L   1      22.107   0.887   2.532  1.00  0.00     0.038 A 
HETATM    3  C3  PAP L   1      21.165   1.788   2.055  1.00  0.00     0.065 A 
HETATM    4  C4  PAP L   1      21.356   3.157   2.205  1.00  0.00     0.038 A 
HETATM    5  C5  PAP L   1      22.501   3.622   2.858  1.00  0.00     0.026 A 
HETATM    6  C6  PAP L   1      23.432   2.728   3.398  1.00  0.00     0.005 A 
HETATM    7  N1  PAP L   1      24.630   3.203   3.943  1.00  0.00    -0.303 NA
HETATM    8  H5  PAP L   1      25.437   3.054   3.346  1.00  0.00     0.124 HD
HETATM    9  H6  PAP L   1      24.795   2.900   4.898  1.00  0.00     0.124 HD
HETATM   10  O1  PAP L   1      20.066   1.289   1.424  1.00  0.00    -0.361 OA
HETATM   11  H7  PAP L   1      19.295   1.822   1.675  1.00  0.00     0.217 HD
HETATM    1  C1  PAP L   1      20.652   2.027   2.570  1.00  0.00     0.026 A 
HETATM    2  C2  PAP L   1      21.656   1.153   2.995  1.00  0.00     0.038 A 
HETATM    3  C3  PAP L   1      22.938   1.635   3.218  1.00  0.00     0.065 A 
HETATM    4  C4  PAP L   1      23.230   2.983   3.038  1.00  0.00     0.038 A 
HETATM    5  C5  PAP L   1      22.221   3.851   2.611  1.00  0.00     0.026 A 
HETATM    6  C6  PAP L   1      20.937   3.374   2.325  1.00  0.00     0.005 A 
HETATM    7  N1  PAP L   1      19.906   4.268   2.014  1.00  0.00    -0.303 NA
HETATM    8  H5  PAP L   1      19.014   3.816   1.839  1.00  0.00     0.124 HD
HETATM    9  H6  PAP L   1      20.148   4.938   1.293  1.00  0.00     0.124 HD
HETATM   10  O1  PAP L   1      23.889   0.752   3.634  1.00  0.00    -0.361 OA
HETATM   11  H7  PAP L   1      24.593   0.717   2.967  1.00  0.00     0.217 HD
HETATM    1  C1  PAP L   1      22.365   2.667   3.147  1.00  0.00     0.026 A 
HETATM    2  C2  PAP L   1      21.669   3.344   2.142  1.00  0.00     0.038 A 
HETATM    3  C3  PAP L   1      21.477   2.737   0.909  1.00  0.00     0.065 A 
HETATM    4  C4  PAP L   1      21.956   1.453   0.669  1.00  0.00     0.038 A 
HETATM    5  C5  PAP L   1      22.653   0.782   1.679  1.00  0.00     0.026 A 
HETATM    6  C6  PAP L   1      22.908   1.400   2.907  1.00  0.00     0.005 A 
HETATM    7  N1  PAP L   1      23.499   0.678   3.950  1.00  0.00    -0.303 NA
HETATM    8  H5  PAP L   1      24.443   0.368   3.747  1.00  0.00     0.124 HD
HETATM    9  H6  PAP L   1      22.917  -0.070   4.313  1.00  0.00     0.124 HD
HETATM   10  O1  PAP L   1      20.791   3.429  -0.043  1.00  0.00    -0.361 OA
HETATM   11  H7  PAP L   1      20.028   2.899  -0.323  1.00  0.00     0.217 HD
HETATM    1  C1  PAP L   1       9.390  10.582  -0.339  1.00  0.00     0.026 A 
HETATM    2  C2  PAP L   1       8.584  10.893   0.759  1.00  0.00     0.038 A 
HETATM    3  C3  PAP L   1       9.173  11.269   1.959  1.00  0.00     0.065 A 
HETATM    4  C4  PAP L   1      10.556  11.355   2.073  1.00  0.00     0.038 A 
HETATM    5  C5  PAP L   1      11.356  11.041   0.970  1.00  0.00     0.026 A 
HETATM    6  C6  PAP L   1      10.783  10.603  -0.229  1.00  0.00     0.005 A 
HETATM    7  N1  PAP L   1      11.583  10.407  -1.361  1.00  0.00    -0.303 NA
HETATM    8  H5  PAP L   1      11.156  10.731  -2.223  1.00  0.00     0.124 HD
HETATM    9  H6  PAP L   1      11.953   9.466  -1.444  1.00  0.00     0.124 HD
HETATM   10  O1  PAP L   1       8.354  11.567   3.006  1.00  0.00    -0.361 OA
HETATM   11  H7  PAP L   1       8.140  12.514   2.973  1.00  0.00     0.217 HD
HETATM    1  C1  PAP L   1      22.585   3.790   2.874  1.00  0.00     0.026 A 
HETATM    2  C2  PAP L   1      21.410   3.360   2.251  1.00  0.00     0.038 A 
HETATM    3  C3  PAP L   1      21.176   2.002   2.087  1.00  0.00     0.065 A 
HETATM    4  C4  PAP L   1      22.092   1.064   2.551  1.00  0.00     0.038 A 
HETATM    5  C5  PAP L   1      23.266   1.502   3.172  1.00  0.00     0.026 A 
HETATM    6  C6  PAP L   1      23.547   2.867   3.294  1.00  0.00     0.005 A 
HETATM    7  N1  PAP L   1      24.664   3.294   4.021  1.00  0.00    -0.303 NA
HETATM    8  H5  PAP L   1      25.091   4.138   3.654  1.00  0.00     0.124 HD
HETATM    9  H6  PAP L   1      25.344   2.561   4.196  1.00  0.00     0.124 HD
HETATM   10  O1  PAP L   1      20.018   1.622   1.478  1.00  0.00    -0.361 OA
HETATM   11  H7  PAP L   1      20.073   1.852   0.536  1.00  0.00     0.217 HD
HETATM    1  C1  PAP L   1      10.898  11.257   1.741  1.00  0.00     0.026 A 
HETATM    2  C2  PAP L   1      11.672  10.928   0.625  1.00  0.00     0.038 A 
HETATM    3  C3  PAP L   1      11.049  10.524  -0.548  1.00  0.00     0.065 A 
HETATM    4  C4  PAP L   1       9.663  10.460  -0.628  1.00  0.00     0.038 A 
HETATM    5  C5  PAP L   1       8.895  10.790   0.493  1.00  0.00     0.026 A 
HETATM    6  C6  PAP L   1       9.506  11.142   1.701  1.00  0.00     0.005 A 
HETATM    7  N1  PAP L   1       8.731  11.585   2.779  1.00  0.00    -0.303 NA
HETATM    8  H5  PAP L   1       8.798  10.994   3.600  1.00  0.00     0.124 HD
HETATM    9  H6  PAP L   1       7.769  11.796   2.533  1.00  0.00     0.124 HD
HETATM   10  O1  PAP L   1      11.838  10.214  -1.615  1.00  0.00    -0.361 OA
HETATM   11  H7  PAP L   1      12.044  11.031  -2.097  1.00  0.00     0.217 HD
