MODEL 1
REMARK VINA RESULT:      -4.1      0.000      0.000
REMARK  2 active torsions:
REMARK  status: ('A' for Active; 'I' for Inactive)
REMARK    1  A    between atoms: C3_3  and  O1_10 
REMARK    2  A    between atoms: C6_6  and  N1_7 
ROOT
HETATM    1  C1  PAP L   1       3.490  10.075  -5.892  1.00  0.00     0.026 A 
HETATM    2  C2  PAP L   1       3.904  10.288  -4.575  1.00  0.00     0.038 A 
HETATM    3  C3  PAP L   1       2.970  10.272  -3.549  1.00  0.00     0.065 A 
HETATM    4  C4  PAP L   1       1.627  10.029  -3.817  1.00  0.00     0.038 A 
HETATM    5  C5  PAP L   1       1.219   9.817  -5.137  1.00  0.00     0.026 A 
HETATM    6  C6  PAP L   1       2.137   9.888  -6.191  1.00  0.00     0.005 A 
ENDROOT
BRANCH   6   7
HETATM    7  N1  PAP L   1       1.741   9.558  -7.492  1.00  0.00    -0.303 NA
HETATM    8  H5  PAP L   1       1.708  10.352  -8.123  1.00  0.00     0.124 HD
HETATM    9  H6  PAP L   1       0.897   8.996  -7.535  1.00  0.00     0.124 HD
ENDBRANCH   6   7
BRANCH   3  10
HETATM   10  O1  PAP L   1       3.414  10.482  -2.278  1.00  0.00    -0.361 OA
HETATM   11  H7  PAP L   1       3.389  11.434  -2.094  1.00  0.00     0.217 HD
ENDBRANCH   3  10
TORSDOF 2
ENDMDL
MODEL 2
REMARK VINA RESULT:      -4.0      2.800      3.695
REMARK  2 active torsions:
REMARK  status: ('A' for Active; 'I' for Inactive)
REMARK    1  A    between atoms: C3_3  and  O1_10 
REMARK    2  A    between atoms: C6_6  and  N1_7 
ROOT
HETATM    1  C1  PAP L   1       1.350  10.114  -4.176  1.00  0.00     0.026 A 
HETATM    2  C2  PAP L   1       1.018   9.829  -5.503  1.00  0.00     0.038 A 
HETATM    3  C3  PAP L   1       2.015   9.790  -6.468  1.00  0.00     0.065 A 
HETATM    4  C4  PAP L   1       3.343  10.016  -6.124  1.00  0.00     0.038 A 
HETATM    5  C5  PAP L   1       3.668  10.302  -4.794  1.00  0.00     0.026 A 
HETATM    6  C6  PAP L   1       2.670  10.404  -3.819  1.00  0.00     0.005 A 
ENDROOT
BRANCH   6   7
HETATM    7  N1  PAP L   1       3.016  10.571  -2.473  1.00  0.00    -0.303 NA
HETATM    8  H5  PAP L   1       2.383  10.109  -1.829  1.00  0.00     0.124 HD
HETATM    9  H6  PAP L   1       3.196  11.535  -2.212  1.00  0.00     0.124 HD
ENDBRANCH   6   7
BRANCH   3  10
HETATM   10  O1  PAP L   1       1.651   9.506  -7.750  1.00  0.00    -0.361 OA
HETATM   11  H7  PAP L   1       1.934  10.237  -8.322  1.00  0.00     0.217 HD
ENDBRANCH   3  10
TORSDOF 2
ENDMDL
MODEL 3
REMARK VINA RESULT:      -3.9     15.037     15.765
REMARK  2 active torsions:
REMARK  status: ('A' for Active; 'I' for Inactive)
REMARK    1  A    between atoms: C3_3  and  O1_10 
REMARK    2  A    between atoms: C6_6  and  N1_7 
ROOT
HETATM    1  C1  PAP L   1      13.327  -0.620  -2.953  1.00  0.00     0.026 A 
HETATM    2  C2  PAP L   1      12.519  -0.464  -4.082  1.00  0.00     0.038 A 
HETATM    3  C3  PAP L   1      13.093  -0.107  -5.294  1.00  0.00     0.065 A 
HETATM    4  C4  PAP L   1      14.466   0.082  -5.400  1.00  0.00     0.038 A 
HETATM    5  C5  PAP L   1      15.269  -0.075  -4.265  1.00  0.00     0.026 A 
HETATM    6  C6  PAP L   1      14.702  -0.377  -3.022  1.00  0.00     0.005 A 
ENDROOT
BRANCH   6   7
HETATM    7  N1  PAP L   1      15.523  -0.649  -1.922  1.00  0.00    -0.303 NA
HETATM    8  H5  PAP L   1      15.671   0.151  -1.316  1.00  0.00     0.124 HD
HETATM    9  H6  PAP L   1      16.391  -1.117  -2.163  1.00  0.00     0.124 HD
ENDBRANCH   6   7
BRANCH   3  10
HETATM   10  O1  PAP L   1      12.272   0.033  -6.372  1.00  0.00    -0.361 OA
HETATM   11  H7  PAP L   1      11.759   0.851  -6.268  1.00  0.00     0.217 HD
ENDBRANCH   3  10
TORSDOF 2
ENDMDL
MODEL 4
REMARK VINA RESULT:      -3.9     14.830     15.487
REMARK  2 active torsions:
REMARK  status: ('A' for Active; 'I' for Inactive)
REMARK    1  A    between atoms: C3_3  and  O1_10 
REMARK    2  A    between atoms: C6_6  and  N1_7 
ROOT
HETATM    1  C1  PAP L   1      12.589  -0.434  -3.879  1.00  0.00     0.026 A 
HETATM    2  C2  PAP L   1      13.464  -0.637  -2.809  1.00  0.00     0.038 A 
HETATM    3  C3  PAP L   1      14.828  -0.461  -2.993  1.00  0.00     0.065 A 
HETATM    4  C4  PAP L   1      15.332  -0.068  -4.229  1.00  0.00     0.038 A 
HETATM    5  C5  PAP L   1      14.450   0.132  -5.296  1.00  0.00     0.026 A 
HETATM    6  C6  PAP L   1      13.078  -0.097  -5.145  1.00  0.00     0.005 A 
ENDROOT
BRANCH   6   7
HETATM    7  N1  PAP L   1      12.193   0.221  -6.181  1.00  0.00    -0.303 NA
HETATM    8  H5  PAP L   1      11.218   0.223  -5.899  1.00  0.00     0.124 HD
HETATM    9  H6  PAP L   1      12.347  -0.312  -7.031  1.00  0.00     0.124 HD
ENDBRANCH   6   7
BRANCH   3  10
HETATM   10  O1  PAP L   1      15.649  -0.666  -1.925  1.00  0.00    -0.361 OA
HETATM   11  H7  PAP L   1      16.386  -0.037  -1.974  1.00  0.00     0.217 HD
ENDBRANCH   3  10
TORSDOF 2
ENDMDL
MODEL 5
REMARK VINA RESULT:      -3.8      3.182      3.858
REMARK  2 active torsions:
REMARK  status: ('A' for Active; 'I' for Inactive)
REMARK    1  A    between atoms: C3_3  and  O1_10 
REMARK    2  A    between atoms: C6_6  and  N1_7 
ROOT
HETATM    1  C1  PAP L   1       0.378  12.355  -4.854  1.00  0.00     0.026 A 
HETATM    2  C2  PAP L   1       0.595  11.463  -5.908  1.00  0.00     0.038 A 
HETATM    3  C3  PAP L   1       1.108  10.200  -5.645  1.00  0.00     0.065 A 
HETATM    4  C4  PAP L   1       1.393   9.808  -4.342  1.00  0.00     0.038 A 
HETATM    5  C5  PAP L   1       1.173  10.706  -3.293  1.00  0.00     0.026 A 
HETATM    6  C6  PAP L   1       0.713  12.003  -3.543  1.00  0.00     0.005 A 
ENDROOT
BRANCH   6   7
HETATM    7  N1  PAP L   1       0.384  12.851  -2.480  1.00  0.00    -0.303 NA
HETATM    8  H5  PAP L   1      -0.601  12.836  -2.235  1.00  0.00     0.124 HD
HETATM    9  H6  PAP L   1       0.742  13.795  -2.582  1.00  0.00     0.124 HD
ENDBRANCH   6   7
BRANCH   3  10
HETATM   10  O1  PAP L   1       1.304   9.359  -6.699  1.00  0.00    -0.361 OA
HETATM   11  H7  PAP L   1       0.869   8.513  -6.505  1.00  0.00     0.217 HD
ENDBRANCH   3  10
TORSDOF 2
ENDMDL
MODEL 6
REMARK VINA RESULT:      -3.8     14.691     15.262
REMARK  2 active torsions:
REMARK  status: ('A' for Active; 'I' for Inactive)
REMARK    1  A    between atoms: C3_3  and  O1_10 
REMARK    2  A    between atoms: C6_6  and  N1_7 
ROOT
HETATM    1  C1  PAP L   1      14.347   0.296  -5.665  1.00  0.00     0.026 A 
HETATM    2  C2  PAP L   1      15.287   0.098  -4.650  1.00  0.00     0.038 A 
HETATM    3  C3  PAP L   1      14.861  -0.276  -3.383  1.00  0.00     0.065 A 
HETATM    4  C4  PAP L   1      13.510  -0.470  -3.118  1.00  0.00     0.038 A 
HETATM    5  C5  PAP L   1      12.576  -0.269  -4.139  1.00  0.00     0.026 A 
HETATM    6  C6  PAP L   1      12.980   0.164  -5.406  1.00  0.00     0.005 A 
ENDROOT
BRANCH   6   7
HETATM    7  N1  PAP L   1      12.053   0.247  -6.451  1.00  0.00    -0.303 NA
HETATM    8  H5  PAP L   1      12.421   0.683  -7.289  1.00  0.00     0.124 HD
HETATM    9  H6  PAP L   1      11.157   0.636  -6.175  1.00  0.00     0.124 HD
ENDBRANCH   6   7
BRANCH   3  10
HETATM   10  O1  PAP L   1      15.808  -0.461  -2.421  1.00  0.00    -0.361 OA
HETATM   11  H7  PAP L   1      16.685  -0.373  -2.827  1.00  0.00     0.217 HD
ENDBRANCH   3  10
TORSDOF 2
ENDMDL
MODEL 7
REMARK VINA RESULT:      -3.8      1.964      2.505
REMARK  2 active torsions:
REMARK  status: ('A' for Active; 'I' for Inactive)
REMARK    1  A    between atoms: C3_3  and  O1_10 
REMARK    2  A    between atoms: C6_6  and  N1_7 
ROOT
HETATM    1  C1  PAP L   1       0.639  11.531  -5.896  1.00  0.00     0.026 A 
HETATM    2  C2  PAP L   1       0.421  12.331  -4.771  1.00  0.00     0.038 A 
HETATM    3  C3  PAP L   1       0.727  11.841  -3.509  1.00  0.00     0.065 A 
HETATM    4  C4  PAP L   1       1.264  10.568  -3.354  1.00  0.00     0.038 A 
HETATM    5  C5  PAP L   1       1.478   9.773  -4.484  1.00  0.00     0.026 A 
HETATM    6  C6  PAP L   1       1.121  10.226  -5.759  1.00  0.00     0.005 A 
ENDROOT
BRANCH   6   7
HETATM    7  N1  PAP L   1       1.450   9.473  -6.892  1.00  0.00    -0.303 NA
HETATM    8  H5  PAP L   1       0.673   9.337  -7.530  1.00  0.00     0.124 HD
HETATM    9  H6  PAP L   1       1.934   8.606  -6.682  1.00  0.00     0.124 HD
ENDBRANCH   6   7
BRANCH   3  10
HETATM   10  O1  PAP L   1       0.502  12.652  -2.438  1.00  0.00    -0.361 OA
HETATM   11  H7  PAP L   1       0.927  13.509  -2.603  1.00  0.00     0.217 HD
ENDBRANCH   3  10
TORSDOF 2
ENDMDL
MODEL 8
REMARK VINA RESULT:      -3.7      3.134      3.659
REMARK  2 active torsions:
REMARK  status: ('A' for Active; 'I' for Inactive)
REMARK    1  A    between atoms: C3_3  and  O1_10 
REMARK    2  A    between atoms: C6_6  and  N1_7 
ROOT
HETATM    1  C1  PAP L   1       0.440  12.340  -5.630  1.00  0.00     0.026 A 
HETATM    2  C2  PAP L   1       0.765  10.998  -5.413  1.00  0.00     0.038 A 
HETATM    3  C3  PAP L   1       0.978  10.542  -4.120  1.00  0.00     0.065 A 
HETATM    4  C4  PAP L   1       0.856  11.404  -3.035  1.00  0.00     0.038 A 
HETATM    5  C5  PAP L   1       0.532  12.746  -3.260  1.00  0.00     0.026 A 
HETATM    6  C6  PAP L   1       0.372  13.237  -4.560  1.00  0.00     0.005 A 
ENDROOT
BRANCH   6   7
HETATM    7  N1  PAP L   1      -0.069  14.549  -4.767  1.00  0.00    -0.303 NA
HETATM    8  H5  PAP L   1       0.425  15.238  -4.211  1.00  0.00     0.124 HD
HETATM    9  H6  PAP L   1      -1.076  14.658  -4.710  1.00  0.00     0.124 HD
ENDBRANCH   6   7
BRANCH   3  10
HETATM   10  O1  PAP L   1       1.290   9.227  -3.950  1.00  0.00    -0.361 OA
HETATM   11  H7  PAP L   1       1.849   9.140  -3.161  1.00  0.00     0.217 HD
ENDBRANCH   3  10
TORSDOF 2
ENDMDL
MODEL 9
REMARK VINA RESULT:      -3.6      3.215      3.744
REMARK  2 active torsions:
REMARK  status: ('A' for Active; 'I' for Inactive)
REMARK    1  A    between atoms: C3_3  and  O1_10 
REMARK    2  A    between atoms: C6_6  and  N1_7 
ROOT
HETATM    1  C1  PAP L   1       1.169  10.798  -5.292  1.00  0.00     0.026 A 
HETATM    2  C2  PAP L   1       0.714  12.032  -5.763  1.00  0.00     0.038 A 
HETATM    3  C3  PAP L   1       0.371  13.029  -4.860  1.00  0.00     0.065 A 
HETATM    4  C4  PAP L   1       0.492  12.817  -3.491  1.00  0.00     0.038 A 
HETATM    5  C5  PAP L   1       0.947  11.579  -3.027  1.00  0.00     0.026 A 
HETATM    6  C6  PAP L   1       1.241  10.543  -3.919  1.00  0.00     0.005 A 
ENDROOT
BRANCH   6   7
HETATM    7  N1  PAP L   1       1.808   9.351  -3.453  1.00  0.00    -0.303 NA
HETATM    8  H5  PAP L   1       1.908   9.315  -2.444  1.00  0.00     0.124 HD
HETATM    9  H6  PAP L   1       2.662   9.087  -3.934  1.00  0.00     0.124 HD
ENDBRANCH   6   7
BRANCH   3  10
HETATM   10  O1  PAP L   1      -0.066  14.219  -5.359  1.00  0.00    -0.361 OA
HETATM   11  H7  PAP L   1      -0.975  14.369  -5.053  1.00  0.00     0.217 HD
ENDBRANCH   3  10
TORSDOF 2
ENDMDL
MODEL 10
REMARK VINA RESULT:      -3.6      3.224      4.212
REMARK  2 active torsions:
REMARK  status: ('A' for Active; 'I' for Inactive)
REMARK    1  A    between atoms: C3_3  and  O1_10 
REMARK    2  A    between atoms: C6_6  and  N1_7 
ROOT
HETATM    1  C1  PAP L   1       2.713  10.143  -5.726  1.00  0.00     0.026 A 
HETATM    2  C2  PAP L   1       1.960   9.592  -6.765  1.00  0.00     0.038 A 
HETATM    3  C3  PAP L   1       2.602   9.082  -7.885  1.00  0.00     0.065 A 
HETATM    4  C4  PAP L   1       3.990   9.100  -7.975  1.00  0.00     0.038 A 
HETATM    5  C5  PAP L   1       4.737   9.654  -6.931  1.00  0.00     0.026 A 
HETATM    6  C6  PAP L   1       4.106  10.226  -5.822  1.00  0.00     0.005 A 
ENDROOT
BRANCH   6   7
HETATM    7  N1  PAP L   1       4.862  10.669  -4.731  1.00  0.00    -0.303 NA
HETATM    8  H5  PAP L   1       5.357   9.926  -4.249  1.00  0.00     0.124 HD
HETATM    9  H6  PAP L   1       4.350  11.269  -4.093  1.00  0.00     0.124 HD
ENDBRANCH   6   7
BRANCH   3  10
HETATM   10  O1  PAP L   1       1.833   8.550  -8.875  1.00  0.00    -0.361 OA
HETATM   11  H7  PAP L   1       2.293   8.667  -9.722  1.00  0.00     0.217 HD
ENDBRANCH   3  10
TORSDOF 2
ENDMDL
MODEL 11
REMARK VINA RESULT:      -3.6      2.571      2.801
REMARK  2 active torsions:
REMARK  status: ('A' for Active; 'I' for Inactive)
REMARK    1  A    between atoms: C3_3  and  O1_10 
REMARK    2  A    between atoms: C6_6  and  N1_7 
ROOT
HETATM    1  C1  PAP L   1       3.173  12.319  -5.185  1.00  0.00     0.026 A 
HETATM    2  C2  PAP L   1       4.181  11.352  -5.208  1.00  0.00     0.038 A 
HETATM    3  C3  PAP L   1       4.223  10.379  -4.219  1.00  0.00     0.065 A 
HETATM    4  C4  PAP L   1       3.262  10.347  -3.215  1.00  0.00     0.038 A 
HETATM    5  C5  PAP L   1       2.256  11.319  -3.198  1.00  0.00     0.026 A 
HETATM    6  C6  PAP L   1       2.232  12.343  -4.152  1.00  0.00     0.005 A 
ENDROOT
BRANCH   6   7
HETATM    7  N1  PAP L   1       1.156  13.237  -4.197  1.00  0.00    -0.303 NA
HETATM    8  H5  PAP L   1       0.392  12.988  -3.579  1.00  0.00     0.124 HD
HETATM    9  H6  PAP L   1       0.839  13.449  -5.137  1.00  0.00     0.124 HD
ENDBRANCH   6   7
BRANCH   3  10
HETATM   10  O1  PAP L   1       5.220   9.452  -4.278  1.00  0.00    -0.361 OA
HETATM   11  H7  PAP L   1       4.847   8.615  -4.597  1.00  0.00     0.217 HD
ENDBRANCH   3  10
TORSDOF 2
ENDMDL
MODEL 12
REMARK VINA RESULT:      -3.5     14.811     15.394
REMARK  2 active torsions:
REMARK  status: ('A' for Active; 'I' for Inactive)
REMARK    1  A    between atoms: C3_3  and  O1_10 
REMARK    2  A    between atoms: C6_6  and  N1_7 
ROOT
HETATM    1  C1  PAP L   1      15.370  -0.062  -4.436  1.00  0.00     0.026 A 
HETATM    2  C2  PAP L   1      14.966  -0.077  -3.098  1.00  0.00     0.038 A 
HETATM    3  C3  PAP L   1      13.614  -0.145  -2.788  1.00  0.00     0.065 A 
HETATM    4  C4  PAP L   1      12.659  -0.213  -3.796  1.00  0.00     0.038 A 
HETATM    5  C5  PAP L   1      13.071  -0.196  -5.133  1.00  0.00     0.026 A 
HETATM    6  C6  PAP L   1      14.424  -0.069  -5.465  1.00  0.00     0.005 A 
ENDROOT
BRANCH   6   7
HETATM    7  N1  PAP L   1      14.834  -0.174  -6.799  1.00  0.00    -0.303 NA
HETATM    8  H5  PAP L   1      14.858   0.714  -7.289  1.00  0.00     0.124 HD
HETATM    9  H6  PAP L   1      14.345  -0.891  -7.324  1.00  0.00     0.124 HD
ENDBRANCH   6   7
BRANCH   3  10
HETATM   10  O1  PAP L   1      13.261  -0.160  -1.473  1.00  0.00    -0.361 OA
HETATM   11  H7  PAP L   1      12.632   0.561  -1.312  1.00  0.00     0.217 HD
ENDBRANCH   3  10
TORSDOF 2
ENDMDL
MODEL 13
REMARK VINA RESULT:      -3.4      2.316      3.002
REMARK  2 active torsions:
REMARK  status: ('A' for Active; 'I' for Inactive)
REMARK    1  A    between atoms: C3_3  and  O1_10 
REMARK    2  A    between atoms: C6_6  and  N1_7 
ROOT
HETATM    1  C1  PAP L   1       2.343  10.035  -5.961  1.00  0.00     0.026 A 
HETATM    2  C2  PAP L   1       3.572   9.798  -6.582  1.00  0.00     0.038 A 
HETATM    3  C3  PAP L   1       4.737   9.803  -5.827  1.00  0.00     0.065 A 
HETATM    4  C4  PAP L   1       4.690  10.025  -4.455  1.00  0.00     0.038 A 
HETATM    5  C5  PAP L   1       3.457  10.262  -3.840  1.00  0.00     0.026 A 
HETATM    6  C6  PAP L   1       2.279  10.320  -4.594  1.00  0.00     0.005 A 
ENDROOT
BRANCH   6   7
HETATM    7  N1  PAP L   1       1.040  10.438  -3.955  1.00  0.00    -0.303 NA
HETATM    8  H5  PAP L   1       1.090  10.348  -2.946  1.00  0.00     0.124 HD
HETATM    9  H6  PAP L   1       0.313   9.854  -4.358  1.00  0.00     0.124 HD
ENDBRANCH   6   7
BRANCH   3  10
HETATM   10  O1  PAP L   1       5.915   9.566  -6.469  1.00  0.00    -0.361 OA
HETATM   11  H7  PAP L   1       5.737   9.027  -7.256  1.00  0.00     0.217 HD
ENDBRANCH   3  10
TORSDOF 2
ENDMDL
MODEL 14
REMARK VINA RESULT:      -3.4     15.158     15.646
REMARK  2 active torsions:
REMARK  status: ('A' for Active; 'I' for Inactive)
REMARK    1  A    between atoms: C3_3  and  O1_10 
REMARK    2  A    between atoms: C6_6  and  N1_7 
ROOT
HETATM    1  C1  PAP L   1      15.043   0.409  -4.362  1.00  0.00     0.026 A 
HETATM    2  C2  PAP L   1      15.909   0.846  -3.356  1.00  0.00     0.038 A 
HETATM    3  C3  PAP L   1      16.529   2.082  -3.472  1.00  0.00     0.065 A 
HETATM    4  C4  PAP L   1      16.284   2.897  -4.572  1.00  0.00     0.038 A 
HETATM    5  C5  PAP L   1      15.418   2.453  -5.575  1.00  0.00     0.026 A 
HETATM    6  C6  PAP L   1      14.830   1.185  -5.504  1.00  0.00     0.005 A 
ENDROOT
BRANCH   6   7
HETATM    7  N1  PAP L   1      13.873   0.799  -6.450  1.00  0.00    -0.303 NA
HETATM    8  H5  PAP L   1      14.117  -0.047  -6.955  1.00  0.00     0.124 HD
HETATM    9  H6  PAP L   1      13.584   1.548  -7.071  1.00  0.00     0.124 HD
ENDBRANCH   6   7
BRANCH   3  10
HETATM   10  O1  PAP L   1      17.364   2.474  -2.469  1.00  0.00    -0.361 OA
HETATM   11  H7  PAP L   1      17.596   3.407  -2.605  1.00  0.00     0.217 HD
ENDBRANCH   3  10
TORSDOF 2
ENDMDL
MODEL 15
REMARK VINA RESULT:      -3.4     14.735     15.500
REMARK  2 active torsions:
REMARK  status: ('A' for Active; 'I' for Inactive)
REMARK    1  A    between atoms: C3_3  and  O1_10 
REMARK    2  A    between atoms: C6_6  and  N1_7 
ROOT
HETATM    1  C1  PAP L   1      15.815   0.366  -3.468  1.00  0.00     0.026 A 
HETATM    2  C2  PAP L   1      14.673  -0.106  -4.120  1.00  0.00     0.038 A 
HETATM    3  C3  PAP L   1      13.731   0.795  -4.597  1.00  0.00     0.065 A 
HETATM    4  C4  PAP L   1      13.922   2.164  -4.447  1.00  0.00     0.038 A 
HETATM    5  C5  PAP L   1      15.067   2.629  -3.794  1.00  0.00     0.026 A 
HETATM    6  C6  PAP L   1      15.998   1.735  -3.254  1.00  0.00     0.005 A 
ENDROOT
BRANCH   6   7
HETATM    7  N1  PAP L   1      17.196   2.210  -2.709  1.00  0.00    -0.303 NA
HETATM    8  H5  PAP L   1      18.003   2.061  -3.306  1.00  0.00     0.124 HD
HETATM    9  H6  PAP L   1      17.361   1.907  -1.754  1.00  0.00     0.124 HD
ENDBRANCH   6   7
BRANCH   3  10
HETATM   10  O1  PAP L   1      12.632   0.296  -5.228  1.00  0.00    -0.361 OA
HETATM   11  H7  PAP L   1      11.861   0.829  -4.977  1.00  0.00     0.217 HD
ENDBRANCH   3  10
TORSDOF 2
ENDMDL
MODEL 16
REMARK VINA RESULT:      -3.4     14.140     14.899
REMARK  2 active torsions:
REMARK  status: ('A' for Active; 'I' for Inactive)
REMARK    1  A    between atoms: C3_3  and  O1_10 
REMARK    2  A    between atoms: C6_6  and  N1_7 
ROOT
HETATM    1  C1  PAP L   1      13.218   1.034  -4.082  1.00  0.00     0.026 A 
HETATM    2  C2  PAP L   1      14.222   0.160  -3.657  1.00  0.00     0.038 A 
HETATM    3  C3  PAP L   1      15.504   0.642  -3.434  1.00  0.00     0.065 A 
HETATM    4  C4  PAP L   1      15.796   1.990  -3.614  1.00  0.00     0.038 A 
HETATM    5  C5  PAP L   1      14.787   2.858  -4.041  1.00  0.00     0.026 A 
HETATM    6  C6  PAP L   1      13.503   2.381  -4.327  1.00  0.00     0.005 A 
ENDROOT
BRANCH   6   7
HETATM    7  N1  PAP L   1      12.472   3.275  -4.638  1.00  0.00    -0.303 NA
HETATM    8  H5  PAP L   1      11.580   2.823  -4.813  1.00  0.00     0.124 HD
HETATM    9  H6  PAP L   1      12.714   3.945  -5.359  1.00  0.00     0.124 HD
ENDBRANCH   6   7
BRANCH   3  10
HETATM   10  O1  PAP L   1      16.455  -0.241  -3.018  1.00  0.00    -0.361 OA
HETATM   11  H7  PAP L   1      17.159  -0.276  -3.685  1.00  0.00     0.217 HD
ENDBRANCH   3  10
TORSDOF 2
ENDMDL
MODEL 17
REMARK VINA RESULT:      -3.4     14.724     15.486
REMARK  2 active torsions:
REMARK  status: ('A' for Active; 'I' for Inactive)
REMARK    1  A    between atoms: C3_3  and  O1_10 
REMARK    2  A    between atoms: C6_6  and  N1_7 
ROOT
HETATM    1  C1  PAP L   1      14.931   1.674  -3.505  1.00  0.00     0.026 A 
HETATM    2  C2  PAP L   1      14.235   2.351  -4.510  1.00  0.00     0.038 A 
HETATM    3  C3  PAP L   1      14.043   1.744  -5.743  1.00  0.00     0.065 A 
HETATM    4  C4  PAP L   1      14.522   0.460  -5.983  1.00  0.00     0.038 A 
HETATM    5  C5  PAP L   1      15.219  -0.211  -4.973  1.00  0.00     0.026 A 
HETATM    6  C6  PAP L   1      15.474   0.407  -3.745  1.00  0.00     0.005 A 
ENDROOT
BRANCH   6   7
HETATM    7  N1  PAP L   1      16.065  -0.315  -2.702  1.00  0.00    -0.303 NA
HETATM    8  H5  PAP L   1      17.009  -0.625  -2.905  1.00  0.00     0.124 HD
HETATM    9  H6  PAP L   1      15.483  -1.063  -2.339  1.00  0.00     0.124 HD
ENDBRANCH   6   7
BRANCH   3  10
HETATM   10  O1  PAP L   1      13.357   2.436  -6.695  1.00  0.00    -0.361 OA
HETATM   11  H7  PAP L   1      12.594   1.906  -6.975  1.00  0.00     0.217 HD
ENDBRANCH   3  10
TORSDOF 2
ENDMDL
MODEL 18
REMARK VINA RESULT:      -3.3      1.513      2.315
REMARK  2 active torsions:
REMARK  status: ('A' for Active; 'I' for Inactive)
REMARK    1  A    between atoms: C3_3  and  O1_10 
REMARK    2  A    between atoms: C6_6  and  N1_7 
ROOT
HETATM    1  C1  PAP L   1       1.956   9.589  -6.991  1.00  0.00     0.026 A 
HETATM    2  C2  PAP L   1       1.150   9.900  -5.893  1.00  0.00     0.038 A 
HETATM    3  C3  PAP L   1       1.739  10.276  -4.693  1.00  0.00     0.065 A 
HETATM    4  C4  PAP L   1       3.122  10.362  -4.579  1.00  0.00     0.038 A 
HETATM    5  C5  PAP L   1       3.922  10.048  -5.682  1.00  0.00     0.026 A 
HETATM    6  C6  PAP L   1       3.349   9.610  -6.881  1.00  0.00     0.005 A 
ENDROOT
BRANCH   6   7
HETATM    7  N1  PAP L   1       4.149   9.414  -8.013  1.00  0.00    -0.303 NA
HETATM    8  H5  PAP L   1       3.722   9.738  -8.875  1.00  0.00     0.124 HD
HETATM    9  H6  PAP L   1       4.519   8.473  -8.096  1.00  0.00     0.124 HD
ENDBRANCH   6   7
BRANCH   3  10
HETATM   10  O1  PAP L   1       0.920  10.574  -3.646  1.00  0.00    -0.361 OA
HETATM   11  H7  PAP L   1       0.706  11.521  -3.679  1.00  0.00     0.217 HD
ENDBRANCH   3  10
TORSDOF 2
ENDMDL
MODEL 19
REMARK VINA RESULT:      -3.3     14.649     15.435
REMARK  2 active torsions:
REMARK  status: ('A' for Active; 'I' for Inactive)
REMARK    1  A    between atoms: C3_3  and  O1_10 
REMARK    2  A    between atoms: C6_6  and  N1_7 
ROOT
HETATM    1  C1  PAP L   1      15.151   2.797  -3.778  1.00  0.00     0.026 A 
HETATM    2  C2  PAP L   1      13.976   2.367  -4.401  1.00  0.00     0.038 A 
HETATM    3  C3  PAP L   1      13.742   1.009  -4.565  1.00  0.00     0.065 A 
HETATM    4  C4  PAP L   1      14.658   0.071  -4.101  1.00  0.00     0.038 A 
HETATM    5  C5  PAP L   1      15.832   0.509  -3.480  1.00  0.00     0.026 A 
HETATM    6  C6  PAP L   1      16.113   1.874  -3.358  1.00  0.00     0.005 A 
ENDROOT
BRANCH   6   7
HETATM    7  N1  PAP L   1      17.230   2.301  -2.631  1.00  0.00    -0.303 NA
HETATM    8  H5  PAP L   1      17.657   3.145  -2.998  1.00  0.00     0.124 HD
HETATM    9  H6  PAP L   1      17.910   1.568  -2.456  1.00  0.00     0.124 HD
ENDBRANCH   6   7
BRANCH   3  10
HETATM   10  O1  PAP L   1      12.584   0.629  -5.174  1.00  0.00    -0.361 OA
HETATM   11  H7  PAP L   1      12.639   0.859  -6.116  1.00  0.00     0.217 HD
ENDBRANCH   3  10
TORSDOF 2
ENDMDL
MODEL 20
REMARK VINA RESULT:      -3.3      2.707      3.276
REMARK  2 active torsions:
REMARK  status: ('A' for Active; 'I' for Inactive)
REMARK    1  A    between atoms: C3_3  and  O1_10 
REMARK    2  A    between atoms: C6_6  and  N1_7 
ROOT
HETATM    1  C1  PAP L   1       3.464  10.264  -4.911  1.00  0.00     0.026 A 
HETATM    2  C2  PAP L   1       4.238   9.935  -6.027  1.00  0.00     0.038 A 
HETATM    3  C3  PAP L   1       3.615   9.531  -7.200  1.00  0.00     0.065 A 
HETATM    4  C4  PAP L   1       2.229   9.467  -7.280  1.00  0.00     0.038 A 
HETATM    5  C5  PAP L   1       1.461   9.797  -6.159  1.00  0.00     0.026 A 
HETATM    6  C6  PAP L   1       2.072  10.149  -4.951  1.00  0.00     0.005 A 
ENDROOT
BRANCH   6   7
HETATM    7  N1  PAP L   1       1.297  10.592  -3.873  1.00  0.00    -0.303 NA
HETATM    8  H5  PAP L   1       1.364  10.001  -3.052  1.00  0.00     0.124 HD
HETATM    9  H6  PAP L   1       0.335  10.803  -4.119  1.00  0.00     0.124 HD
ENDBRANCH   6   7
BRANCH   3  10
HETATM   10  O1  PAP L   1       4.404   9.221  -8.267  1.00  0.00    -0.361 OA
HETATM   11  H7  PAP L   1       4.610  10.038  -8.749  1.00  0.00     0.217 HD
ENDBRANCH   3  10
TORSDOF 2
ENDMDL
