MODEL 1
REMARK VINA RESULT:      -4.7      0.000      0.000
REMARK  2 active torsions:
REMARK  status: ('A' for Active; 'I' for Inactive)
REMARK    1  A    between atoms: C3_3  and  O1_10 
REMARK    2  A    between atoms: C6_6  and  N1_7 
ROOT
HETATM    1  C1  PAP L   1       2.062  -3.783  10.822  1.00  0.00     0.026 A 
HETATM    2  C2  PAP L   1       3.338  -3.254  10.609  1.00  0.00     0.038 A 
HETATM    3  C3  PAP L   1       3.640  -1.981  11.070  1.00  0.00     0.065 A 
HETATM    4  C4  PAP L   1       2.691  -1.232  11.757  1.00  0.00     0.038 A 
HETATM    5  C5  PAP L   1       1.416  -1.767  11.966  1.00  0.00     0.026 A 
HETATM    6  C6  PAP L   1       1.074  -3.025  11.457  1.00  0.00     0.005 A 
ENDROOT
BRANCH   6   7
HETATM    7  N1  PAP L   1      -0.162  -3.600  11.773  1.00  0.00    -0.303 NA
HETATM    8  H5  PAP L   1      -0.390  -4.412  11.210  1.00  0.00     0.124 HD
HETATM    9  H6  PAP L   1      -0.926  -2.933  11.816  1.00  0.00     0.124 HD
ENDBRANCH   6   7
BRANCH   3  10
HETATM   10  O1  PAP L   1       4.896  -1.502  10.845  1.00  0.00    -0.361 OA
HETATM   11  H7  PAP L   1       5.497  -2.254  10.721  1.00  0.00     0.217 HD
ENDBRANCH   3  10
TORSDOF 2
ENDMDL
MODEL 2
REMARK VINA RESULT:      -4.7      2.775      3.679
REMARK  2 active torsions:
REMARK  status: ('A' for Active; 'I' for Inactive)
REMARK    1  A    between atoms: C3_3  and  O1_10 
REMARK    2  A    between atoms: C6_6  and  N1_7 
ROOT
HETATM    1  C1  PAP L   1       2.663  -1.271  11.821  1.00  0.00     0.026 A 
HETATM    2  C2  PAP L   1       1.380  -1.804  11.966  1.00  0.00     0.038 A 
HETATM    3  C3  PAP L   1       1.091  -3.053  11.434  1.00  0.00     0.065 A 
HETATM    4  C4  PAP L   1       2.070  -3.786  10.773  1.00  0.00     0.038 A 
HETATM    5  C5  PAP L   1       3.352  -3.245  10.631  1.00  0.00     0.026 A 
HETATM    6  C6  PAP L   1       3.646  -1.964  11.108  1.00  0.00     0.005 A 
ENDROOT
BRANCH   6   7
HETATM    7  N1  PAP L   1       4.959  -1.481  11.068  1.00  0.00    -0.303 NA
HETATM    8  H5  PAP L   1       5.662  -2.203  11.187  1.00  0.00     0.124 HD
HETATM    9  H6  PAP L   1       5.121  -0.681  11.670  1.00  0.00     0.124 HD
ENDBRANCH   6   7
BRANCH   3  10
HETATM   10  O1  PAP L   1      -0.171  -3.540  11.598  1.00  0.00    -0.361 OA
HETATM   11  H7  PAP L   1      -0.290  -3.787  12.530  1.00  0.00     0.217 HD
ENDBRANCH   3  10
TORSDOF 2
ENDMDL
MODEL 3
REMARK VINA RESULT:      -4.6      8.915      9.685
REMARK  2 active torsions:
REMARK  status: ('A' for Active; 'I' for Inactive)
REMARK    1  A    between atoms: C3_3  and  O1_10 
REMARK    2  A    between atoms: C6_6  and  N1_7 
ROOT
HETATM    1  C1  PAP L   1       7.277   4.032   4.821  1.00  0.00     0.026 A 
HETATM    2  C2  PAP L   1       8.357   4.067   5.707  1.00  0.00     0.038 A 
HETATM    3  C3  PAP L   1       8.659   2.946   6.467  1.00  0.00     0.065 A 
HETATM    4  C4  PAP L   1       7.908   1.783   6.344  1.00  0.00     0.038 A 
HETATM    5  C5  PAP L   1       6.828   1.755   5.456  1.00  0.00     0.026 A 
HETATM    6  C6  PAP L   1       6.472   2.893   4.725  1.00  0.00     0.005 A 
ENDROOT
BRANCH   6   7
HETATM    7  N1  PAP L   1       5.467   2.820   3.753  1.00  0.00    -0.303 NA
HETATM    8  H5  PAP L   1       4.692   3.453   3.919  1.00  0.00     0.124 HD
HETATM    9  H6  PAP L   1       5.157   1.874   3.554  1.00  0.00     0.124 HD
ENDBRANCH   6   7
BRANCH   3  10
HETATM   10  O1  PAP L   1       9.721   3.020   7.318  1.00  0.00    -0.361 OA
HETATM   11  H7  PAP L   1       9.485   3.601   8.059  1.00  0.00     0.217 HD
ENDBRANCH   3  10
TORSDOF 2
ENDMDL
MODEL 4
REMARK VINA RESULT:      -4.5      8.917      9.620
REMARK  2 active torsions:
REMARK  status: ('A' for Active; 'I' for Inactive)
REMARK    1  A    between atoms: C3_3  and  O1_10 
REMARK    2  A    between atoms: C6_6  and  N1_7 
ROOT
HETATM    1  C1  PAP L   1       6.851   1.797   5.483  1.00  0.00     0.026 A 
HETATM    2  C2  PAP L   1       7.929   1.848   6.372  1.00  0.00     0.038 A 
HETATM    3  C3  PAP L   1       8.692   3.004   6.460  1.00  0.00     0.065 A 
HETATM    4  C4  PAP L   1       8.385   4.117   5.685  1.00  0.00     0.038 A 
HETATM    5  C5  PAP L   1       7.306   4.058   4.798  1.00  0.00     0.026 A 
HETATM    6  C6  PAP L   1       6.561   2.883   4.652  1.00  0.00     0.005 A 
ENDROOT
BRANCH   6   7
HETATM    7  N1  PAP L   1       5.413   2.871   3.852  1.00  0.00    -0.303 NA
HETATM    8  H5  PAP L   1       5.525   2.356   2.985  1.00  0.00     0.124 HD
HETATM    9  H6  PAP L   1       5.006   3.789   3.706  1.00  0.00     0.124 HD
ENDBRANCH   6   7
BRANCH   3  10
HETATM   10  O1  PAP L   1       9.733   3.016   7.339  1.00  0.00    -0.361 OA
HETATM   11  H7  PAP L   1      10.223   3.847   7.229  1.00  0.00     0.217 HD
ENDBRANCH   3  10
TORSDOF 2
ENDMDL
MODEL 5
REMARK VINA RESULT:      -4.5      9.016      9.865
REMARK  2 active torsions:
REMARK  status: ('A' for Active; 'I' for Inactive)
REMARK    1  A    between atoms: C3_3  and  O1_10 
REMARK    2  A    between atoms: C6_6  and  N1_7 
ROOT
HETATM    1  C1  PAP L   1       8.076   4.053   5.772  1.00  0.00     0.026 A 
HETATM    2  C2  PAP L   1       6.931   3.901   4.986  1.00  0.00     0.038 A 
HETATM    3  C3  PAP L   1       6.324   2.656   4.889  1.00  0.00     0.065 A 
HETATM    4  C4  PAP L   1       6.835   1.563   5.580  1.00  0.00     0.038 A 
HETATM    5  C5  PAP L   1       7.981   1.723   6.364  1.00  0.00     0.026 A 
HETATM    6  C6  PAP L   1       8.641   2.955   6.427  1.00  0.00     0.005 A 
ENDROOT
BRANCH   6   7
HETATM    7  N1  PAP L   1       9.715   3.134   7.306  1.00  0.00    -0.303 NA
HETATM    8  H5  PAP L   1      10.176   2.269   7.570  1.00  0.00     0.124 HD
HETATM    9  H6  PAP L   1       9.496   3.714   8.109  1.00  0.00     0.124 HD
ENDBRANCH   6   7
BRANCH   3  10
HETATM   10  O1  PAP L   1       5.208   2.549   4.115  1.00  0.00    -0.361 OA
HETATM   11  H7  PAP L   1       4.967   3.433   3.794  1.00  0.00     0.217 HD
ENDBRANCH   3  10
TORSDOF 2
ENDMDL
MODEL 6
REMARK VINA RESULT:      -4.5      8.066      8.771
REMARK  2 active torsions:
REMARK  status: ('A' for Active; 'I' for Inactive)
REMARK    1  A    between atoms: C3_3  and  O1_10 
REMARK    2  A    between atoms: C6_6  and  N1_7 
ROOT
HETATM    1  C1  PAP L   1       5.761   1.706   5.562  1.00  0.00     0.026 A 
HETATM    2  C2  PAP L   1       6.120   1.908   6.897  1.00  0.00     0.038 A 
HETATM    3  C3  PAP L   1       6.453   3.182   7.334  1.00  0.00     0.065 A 
HETATM    4  C4  PAP L   1       6.416   4.263   6.460  1.00  0.00     0.038 A 
HETATM    5  C5  PAP L   1       6.056   4.053   5.125  1.00  0.00     0.026 A 
HETATM    6  C6  PAP L   1       5.775   2.767   4.652  1.00  0.00     0.005 A 
ENDROOT
BRANCH   6   7
HETATM    7  N1  PAP L   1       5.302   2.584   3.348  1.00  0.00    -0.303 NA
HETATM    8  H5  PAP L   1       6.036   2.542   2.649  1.00  0.00     0.124 HD
HETATM    9  H6  PAP L   1       4.558   3.225   3.088  1.00  0.00     0.124 HD
ENDBRANCH   6   7
BRANCH   3  10
HETATM   10  O1  PAP L   1       6.795   3.339   8.643  1.00  0.00    -0.361 OA
HETATM   11  H7  PAP L   1       6.803   2.467   9.069  1.00  0.00     0.217 HD
ENDBRANCH   3  10
TORSDOF 2
ENDMDL
MODEL 7
REMARK VINA RESULT:      -4.4      8.067      8.909
REMARK  2 active torsions:
REMARK  status: ('A' for Active; 'I' for Inactive)
REMARK    1  A    between atoms: C3_3  and  O1_10 
REMARK    2  A    between atoms: C6_6  and  N1_7 
ROOT
HETATM    1  C1  PAP L   1       6.364   4.223   6.598  1.00  0.00     0.026 A 
HETATM    2  C2  PAP L   1       5.986   4.108   5.258  1.00  0.00     0.038 A 
HETATM    3  C3  PAP L   1       5.672   2.860   4.737  1.00  0.00     0.065 A 
HETATM    4  C4  PAP L   1       5.714   1.726   5.540  1.00  0.00     0.038 A 
HETATM    5  C5  PAP L   1       6.094   1.849   6.881  1.00  0.00     0.026 A 
HETATM    6  C6  PAP L   1       6.470   3.089   7.408  1.00  0.00     0.005 A 
ENDROOT
BRANCH   6   7
HETATM    7  N1  PAP L   1       6.732   3.222   8.777  1.00  0.00    -0.303 NA
HETATM    8  H5  PAP L   1       6.062   3.806   9.265  1.00  0.00     0.124 HD
HETATM    9  H6  PAP L   1       7.692   3.475   8.988  1.00  0.00     0.124 HD
ENDBRANCH   6   7
BRANCH   3  10
HETATM   10  O1  PAP L   1       5.307   2.789   3.426  1.00  0.00    -0.361 OA
HETATM   11  H7  PAP L   1       5.999   3.205   2.888  1.00  0.00     0.217 HD
ENDBRANCH   3  10
TORSDOF 2
ENDMDL
MODEL 8
REMARK VINA RESULT:      -4.4      9.059      9.783
REMARK  2 active torsions:
REMARK  status: ('A' for Active; 'I' for Inactive)
REMARK    1  A    between atoms: C3_3  and  O1_10 
REMARK    2  A    between atoms: C6_6  and  N1_7 
ROOT
HETATM    1  C1  PAP L   1       7.886   1.763   6.350  1.00  0.00     0.026 A 
HETATM    2  C2  PAP L   1       6.774   1.637   5.513  1.00  0.00     0.038 A 
HETATM    3  C3  PAP L   1       6.312   2.743   4.813  1.00  0.00     0.065 A 
HETATM    4  C4  PAP L   1       6.955   3.971   4.924  1.00  0.00     0.038 A 
HETATM    5  C5  PAP L   1       8.066   4.089   5.764  1.00  0.00     0.026 A 
HETATM    6  C6  PAP L   1       8.511   3.001   6.523  1.00  0.00     0.005 A 
ENDROOT
BRANCH   6   7
HETATM    7  N1  PAP L   1       9.693   3.097   7.267  1.00  0.00    -0.303 NA
HETATM    8  H5  PAP L   1      10.342   2.336   7.100  1.00  0.00     0.124 HD
HETATM    9  H6  PAP L   1       9.542   3.267   8.256  1.00  0.00     0.124 HD
ENDBRANCH   6   7
BRANCH   3  10
HETATM   10  O1  PAP L   1       5.227   2.579   4.005  1.00  0.00    -0.361 OA
HETATM   11  H7  PAP L   1       4.431   2.833   4.500  1.00  0.00     0.217 HD
ENDBRANCH   3  10
TORSDOF 2
ENDMDL
MODEL 9
REMARK VINA RESULT:      -4.4      8.295      8.972
REMARK  2 active torsions:
REMARK  status: ('A' for Active; 'I' for Inactive)
REMARK    1  A    between atoms: C3_3  and  O1_10 
REMARK    2  A    between atoms: C6_6  and  N1_7 
ROOT
HETATM    1  C1  PAP L   1       5.779   1.900   5.162  1.00  0.00     0.026 A 
HETATM    2  C2  PAP L   1       5.758   3.056   4.377  1.00  0.00     0.038 A 
HETATM    3  C3  PAP L   1       6.095   4.277   4.943  1.00  0.00     0.065 A 
HETATM    4  C4  PAP L   1       6.469   4.360   6.280  1.00  0.00     0.038 A 
HETATM    5  C5  PAP L   1       6.487   3.199   7.059  1.00  0.00     0.026 A 
HETATM    6  C6  PAP L   1       6.094   1.968   6.522  1.00  0.00     0.005 A 
ENDROOT
BRANCH   6   7
HETATM    7  N1  PAP L   1       6.230   0.796   7.275  1.00  0.00    -0.303 NA
HETATM    8  H5  PAP L   1       5.427   0.179   7.216  1.00  0.00     0.124 HD
HETATM    9  H6  PAP L   1       6.526   0.955   8.232  1.00  0.00     0.124 HD
ENDBRANCH   6   7
BRANCH   3  10
HETATM   10  O1  PAP L   1       6.064   5.381   4.145  1.00  0.00    -0.361 OA
HETATM   11  H7  PAP L   1       6.776   5.309   3.488  1.00  0.00     0.217 HD
ENDBRANCH   3  10
TORSDOF 2
ENDMDL
MODEL 10
REMARK VINA RESULT:      -4.3      8.765      9.482
REMARK  2 active torsions:
REMARK  status: ('A' for Active; 'I' for Inactive)
REMARK    1  A    between atoms: C3_3  and  O1_10 
REMARK    2  A    between atoms: C6_6  and  N1_7 
ROOT
HETATM    1  C1  PAP L   1       5.922   3.246   4.068  1.00  0.00     0.026 A 
HETATM    2  C2  PAP L   1       5.639   2.108   4.828  1.00  0.00     0.038 A 
HETATM    3  C3  PAP L   1       5.735   2.164   6.212  1.00  0.00     0.065 A 
HETATM    4  C4  PAP L   1       6.095   3.346   6.850  1.00  0.00     0.038 A 
HETATM    5  C5  PAP L   1       6.377   4.481   6.083  1.00  0.00     0.026 A 
HETATM    6  C6  PAP L   1       6.342   4.428   4.685  1.00  0.00     0.005 A 
ENDROOT
BRANCH   6   7
HETATM    7  N1  PAP L   1       6.508   5.596   3.932  1.00  0.00    -0.303 NA
HETATM    8  H5  PAP L   1       6.239   6.441   4.425  1.00  0.00     0.124 HD
HETATM    9  H6  PAP L   1       6.104   5.546   3.003  1.00  0.00     0.124 HD
ENDBRANCH   6   7
BRANCH   3  10
HETATM   10  O1  PAP L   1       5.450   1.034   6.918  1.00  0.00    -0.361 OA
HETATM   11  H7  PAP L   1       4.573   0.715   6.650  1.00  0.00     0.217 HD
ENDBRANCH   3  10
TORSDOF 2
ENDMDL
MODEL 11
REMARK VINA RESULT:      -4.3      8.790      9.620
REMARK  2 active torsions:
REMARK  status: ('A' for Active; 'I' for Inactive)
REMARK    1  A    between atoms: C3_3  and  O1_10 
REMARK    2  A    between atoms: C6_6  and  N1_7 
ROOT
HETATM    1  C1  PAP L   1       6.347   4.475   6.060  1.00  0.00     0.026 A 
HETATM    2  C2  PAP L   1       6.073   3.326   6.806  1.00  0.00     0.038 A 
HETATM    3  C3  PAP L   1       5.719   2.152   6.155  1.00  0.00     0.065 A 
HETATM    4  C4  PAP L   1       5.650   2.104   4.767  1.00  0.00     0.038 A 
HETATM    5  C5  PAP L   1       5.925   3.258   4.027  1.00  0.00     0.026 A 
HETATM    6  C6  PAP L   1       6.226   4.466   4.667  1.00  0.00     0.005 A 
ENDROOT
BRANCH   6   7
HETATM    7  N1  PAP L   1       6.615   5.582   3.918  1.00  0.00    -0.303 NA
HETATM    8  H5  PAP L   1       7.225   6.218   4.421  1.00  0.00     0.124 HD
HETATM    9  H6  PAP L   1       5.844   6.063   3.466  1.00  0.00     0.124 HD
ENDBRANCH   6   7
BRANCH   3  10
HETATM   10  O1  PAP L   1       5.462   1.052   6.917  1.00  0.00    -0.361 OA
HETATM   11  H7  PAP L   1       5.740   1.234   7.829  1.00  0.00     0.217 HD
ENDBRANCH   3  10
TORSDOF 2
ENDMDL
MODEL 12
REMARK VINA RESULT:      -4.3      7.706      8.478
REMARK  2 active torsions:
REMARK  status: ('A' for Active; 'I' for Inactive)
REMARK    1  A    between atoms: C3_3  and  O1_10 
REMARK    2  A    between atoms: C6_6  and  N1_7 
ROOT
HETATM    1  C1  PAP L   1       7.907   1.228   6.755  1.00  0.00     0.026 A 
HETATM    2  C2  PAP L   1       8.680   2.332   6.386  1.00  0.00     0.038 A 
HETATM    3  C3  PAP L   1       8.096   3.590   6.320  1.00  0.00     0.065 A 
HETATM    4  C4  PAP L   1       6.753   3.764   6.633  1.00  0.00     0.038 A 
HETATM    5  C5  PAP L   1       5.985   2.655   7.000  1.00  0.00     0.026 A 
HETATM    6  C6  PAP L   1       6.541   1.371   7.016  1.00  0.00     0.005 A 
ENDROOT
BRANCH   6   7
HETATM    7  N1  PAP L   1       5.798   0.288   7.499  1.00  0.00    -0.303 NA
HETATM    8  H5  PAP L   1       5.271   0.498   8.340  1.00  0.00     0.124 HD
HETATM    9  H6  PAP L   1       6.333  -0.571   7.583  1.00  0.00     0.124 HD
ENDBRANCH   6   7
BRANCH   3  10
HETATM   10  O1  PAP L   1       8.884   4.641   5.958  1.00  0.00    -0.361 OA
HETATM   11  H7  PAP L   1       9.547   4.785   6.653  1.00  0.00     0.217 HD
ENDBRANCH   3  10
TORSDOF 2
ENDMDL
MODEL 13
REMARK VINA RESULT:      -4.2     10.485     11.326
REMARK  2 active torsions:
REMARK  status: ('A' for Active; 'I' for Inactive)
REMARK    1  A    between atoms: C3_3  and  O1_10 
REMARK    2  A    between atoms: C6_6  and  N1_7 
ROOT
HETATM    1  C1  PAP L   1       9.485   4.521   5.131  1.00  0.00     0.026 A 
HETATM    2  C2  PAP L   1       8.816   5.312   4.193  1.00  0.00     0.038 A 
HETATM    3  C3  PAP L   1       7.431   5.394   4.225  1.00  0.00     0.065 A 
HETATM    4  C4  PAP L   1       6.703   4.708   5.191  1.00  0.00     0.038 A 
HETATM    5  C5  PAP L   1       7.379   3.917   6.125  1.00  0.00     0.026 A 
HETATM    6  C6  PAP L   1       8.770   3.775   6.073  1.00  0.00     0.005 A 
ENDROOT
BRANCH   6   7
HETATM    7  N1  PAP L   1       9.446   3.080   7.082  1.00  0.00    -0.303 NA
HETATM    8  H5  PAP L   1      10.383   2.792   6.821  1.00  0.00     0.124 HD
HETATM    9  H6  PAP L   1       8.909   2.321   7.488  1.00  0.00     0.124 HD
ENDBRANCH   6   7
BRANCH   3  10
HETATM   10  O1  PAP L   1       6.816   6.177   3.296  1.00  0.00    -0.361 OA
HETATM   11  H7  PAP L   1       6.459   6.963   3.740  1.00  0.00     0.217 HD
ENDBRANCH   3  10
TORSDOF 2
ENDMDL
MODEL 14
REMARK VINA RESULT:      -3.8      8.856      9.563
REMARK  2 active torsions:
REMARK  status: ('A' for Active; 'I' for Inactive)
REMARK    1  A    between atoms: C3_3  and  O1_10 
REMARK    2  A    between atoms: C6_6  and  N1_7 
ROOT
HETATM    1  C1  PAP L   1       6.437   3.286   3.664  1.00  0.00     0.026 A 
HETATM    2  C2  PAP L   1       6.819   4.366   4.465  1.00  0.00     0.038 A 
HETATM    3  C3  PAP L   1       6.578   4.328   5.831  1.00  0.00     0.065 A 
HETATM    4  C4  PAP L   1       5.975   3.218   6.414  1.00  0.00     0.038 A 
HETATM    5  C5  PAP L   1       5.595   2.142   5.606  1.00  0.00     0.026 A 
HETATM    6  C6  PAP L   1       5.776   2.187   4.220  1.00  0.00     0.005 A 
ENDROOT
BRANCH   6   7
HETATM    7  N1  PAP L   1       5.503   1.059   3.437  1.00  0.00    -0.303 NA
HETATM    8  H5  PAP L   1       4.599   1.091   2.977  1.00  0.00     0.124 HD
HETATM    9  H6  PAP L   1       5.661   0.179   3.916  1.00  0.00     0.124 HD
ENDBRANCH   6   7
BRANCH   3  10
HETATM   10  O1  PAP L   1       6.967   5.399   6.578  1.00  0.00    -0.361 OA
HETATM   11  H7  PAP L   1       6.175   5.885   6.859  1.00  0.00     0.217 HD
ENDBRANCH   3  10
TORSDOF 2
ENDMDL
MODEL 15
REMARK VINA RESULT:      -3.8     14.266     15.026
REMARK  2 active torsions:
REMARK  status: ('A' for Active; 'I' for Inactive)
REMARK    1  A    between atoms: C3_3  and  O1_10 
REMARK    2  A    between atoms: C6_6  and  N1_7 
ROOT
HETATM    1  C1  PAP L   1       5.647  10.731   3.677  1.00  0.00     0.026 A 
HETATM    2  C2  PAP L   1       4.522  10.809   4.502  1.00  0.00     0.038 A 
HETATM    3  C3  PAP L   1       4.592  10.335   5.805  1.00  0.00     0.065 A 
HETATM    4  C4  PAP L   1       5.774   9.798   6.302  1.00  0.00     0.038 A 
HETATM    5  C5  PAP L   1       6.895   9.723   5.470  1.00  0.00     0.026 A 
HETATM    6  C6  PAP L   1       6.828  10.141   4.136  1.00  0.00     0.005 A 
ENDROOT
BRANCH   6   7
HETATM    7  N1  PAP L   1       7.985  10.172   3.349  1.00  0.00    -0.303 NA
HETATM    8  H5  PAP L   1       8.842  10.249   3.887  1.00  0.00     0.124 HD
HETATM    9  H6  PAP L   1       7.945  10.843   2.588  1.00  0.00     0.124 HD
ENDBRANCH   6   7
BRANCH   3  10
HETATM   10  O1  PAP L   1       3.475  10.431   6.579  1.00  0.00    -0.361 OA
HETATM   11  H7  PAP L   1       3.046  11.283   6.402  1.00  0.00     0.217 HD
ENDBRANCH   3  10
TORSDOF 2
ENDMDL
MODEL 16
REMARK VINA RESULT:      -3.7     13.935     14.597
REMARK  2 active torsions:
REMARK  status: ('A' for Active; 'I' for Inactive)
REMARK    1  A    between atoms: C3_3  and  O1_10 
REMARK    2  A    between atoms: C6_6  and  N1_7 
ROOT
HETATM    1  C1  PAP L   1       4.983  10.665   4.468  1.00  0.00     0.026 A 
HETATM    2  C2  PAP L   1       6.211  10.478   3.828  1.00  0.00     0.038 A 
HETATM    3  C3  PAP L   1       7.277   9.936   4.532  1.00  0.00     0.065 A 
HETATM    4  C4  PAP L   1       7.131   9.563   5.864  1.00  0.00     0.038 A 
HETATM    5  C5  PAP L   1       5.900   9.755   6.498  1.00  0.00     0.026 A 
HETATM    6  C6  PAP L   1       4.831  10.354   5.823  1.00  0.00     0.005 A 
ENDROOT
BRANCH   6   7
HETATM    7  N1  PAP L   1       3.571  10.431   6.427  1.00  0.00    -0.303 NA
HETATM    8  H5  PAP L   1       3.424  11.284   6.956  1.00  0.00     0.124 HD
HETATM    9  H6  PAP L   1       3.317   9.602   6.954  1.00  0.00     0.124 HD
ENDBRANCH   6   7
BRANCH   3  10
HETATM   10  O1  PAP L   1       8.457   9.766   3.872  1.00  0.00    -0.361 OA
HETATM   11  H7  PAP L   1       8.339   9.080   3.196  1.00  0.00     0.217 HD
ENDBRANCH   3  10
TORSDOF 2
ENDMDL
MODEL 17
REMARK VINA RESULT:      -3.6     10.506     11.181
REMARK  2 active torsions:
REMARK  status: ('A' for Active; 'I' for Inactive)
REMARK    1  A    between atoms: C3_3  and  O1_10 
REMARK    2  A    between atoms: C6_6  and  N1_7 
ROOT
HETATM    1  C1  PAP L   1       6.743   4.039   4.152  1.00  0.00     0.026 A 
HETATM    2  C2  PAP L   1       7.859   4.698   3.631  1.00  0.00     0.038 A 
HETATM    3  C3  PAP L   1       8.362   5.818   4.279  1.00  0.00     0.065 A 
HETATM    4  C4  PAP L   1       7.776   6.280   5.452  1.00  0.00     0.038 A 
HETATM    5  C5  PAP L   1       6.658   5.616   5.968  1.00  0.00     0.026 A 
HETATM    6  C6  PAP L   1       6.101   4.522   5.297  1.00  0.00     0.005 A 
ENDROOT
BRANCH   6   7
HETATM    7  N1  PAP L   1       5.060   3.793   5.882  1.00  0.00    -0.303 NA
HETATM    8  H5  PAP L   1       4.202   3.801   5.340  1.00  0.00     0.124 HD
HETATM    9  H6  PAP L   1       4.901   4.015   6.859  1.00  0.00     0.124 HD
ENDBRANCH   6   7
BRANCH   3  10
HETATM   10  O1  PAP L   1       9.453   6.431   3.741  1.00  0.00    -0.361 OA
HETATM   11  H7  PAP L   1       9.154   7.190   3.215  1.00  0.00     0.217 HD
ENDBRANCH   3  10
TORSDOF 2
ENDMDL
MODEL 18
REMARK VINA RESULT:      -3.5     11.685     12.524
REMARK  2 active torsions:
REMARK  status: ('A' for Active; 'I' for Inactive)
REMARK    1  A    between atoms: C3_3  and  O1_10 
REMARK    2  A    between atoms: C6_6  and  N1_7 
ROOT
HETATM    1  C1  PAP L   1       8.775   7.065   5.270  1.00  0.00     0.026 A 
HETATM    2  C2  PAP L   1       7.476   6.716   4.890  1.00  0.00     0.038 A 
HETATM    3  C3  PAP L   1       7.160   5.383   4.668  1.00  0.00     0.065 A 
HETATM    4  C4  PAP L   1       8.119   4.390   4.835  1.00  0.00     0.038 A 
HETATM    5  C5  PAP L   1       9.416   4.747   5.214  1.00  0.00     0.026 A 
HETATM    6  C6  PAP L   1       9.770   6.090   5.385  1.00  0.00     0.005 A 
ENDROOT
BRANCH   6   7
HETATM    7  N1  PAP L   1      11.034   6.428   5.880  1.00  0.00    -0.303 NA
HETATM    8  H5  PAP L   1      11.748   5.734   5.683  1.00  0.00     0.124 HD
HETATM    9  H6  PAP L   1      11.032   6.713   6.854  1.00  0.00     0.124 HD
ENDBRANCH   6   7
BRANCH   3  10
HETATM   10  O1  PAP L   1       5.883   5.083   4.301  1.00  0.00    -0.361 OA
HETATM   11  H7  PAP L   1       5.766   5.311   3.365  1.00  0.00     0.217 HD
ENDBRANCH   3  10
TORSDOF 2
ENDMDL
MODEL 19
REMARK VINA RESULT:      -3.5     14.890     15.659
REMARK  2 active torsions:
REMARK  status: ('A' for Active; 'I' for Inactive)
REMARK    1  A    between atoms: C3_3  and  O1_10 
REMARK    2  A    between atoms: C6_6  and  N1_7 
ROOT
HETATM    1  C1  PAP L   1       4.343  10.333   5.494  1.00  0.00     0.026 A 
HETATM    2  C2  PAP L   1       3.771  11.445   4.870  1.00  0.00     0.038 A 
HETATM    3  C3  PAP L   1       4.496  12.624   4.769  1.00  0.00     0.065 A 
HETATM    4  C4  PAP L   1       5.791  12.706   5.269  1.00  0.00     0.038 A 
HETATM    5  C5  PAP L   1       6.356  11.589   5.893  1.00  0.00     0.026 A 
HETATM    6  C6  PAP L   1       5.620  10.410   6.057  1.00  0.00     0.005 A 
ENDROOT
BRANCH   6   7
HETATM    7  N1  PAP L   1       6.234   9.263   6.574  1.00  0.00    -0.303 NA
HETATM    8  H5  PAP L   1       5.609   8.675   7.115  1.00  0.00     0.124 HD
HETATM    9  H6  PAP L   1       7.106   9.448   7.058  1.00  0.00     0.124 HD
ENDBRANCH   6   7
BRANCH   3  10
HETATM   10  O1  PAP L   1       3.905  13.686   4.152  1.00  0.00    -0.361 OA
HETATM   11  H7  PAP L   1       4.115  13.650   3.205  1.00  0.00     0.217 HD
ENDBRANCH   3  10
TORSDOF 2
ENDMDL
MODEL 20
REMARK VINA RESULT:      -3.4     20.889     21.242
REMARK  2 active torsions:
REMARK  status: ('A' for Active; 'I' for Inactive)
REMARK    1  A    between atoms: C3_3  and  O1_10 
REMARK    2  A    between atoms: C6_6  and  N1_7 
ROOT
HETATM    1  C1  PAP L   1       0.308  12.488  -4.937  1.00  0.00     0.026 A 
HETATM    2  C2  PAP L   1       0.549  11.545  -5.940  1.00  0.00     0.038 A 
HETATM    3  C3  PAP L   1       1.036  10.291  -5.600  1.00  0.00     0.065 A 
HETATM    4  C4  PAP L   1       1.272   9.958  -4.271  1.00  0.00     0.038 A 
HETATM    5  C5  PAP L   1       1.029  10.907  -3.273  1.00  0.00     0.026 A 
HETATM    6  C6  PAP L   1       0.594  12.196  -3.600  1.00  0.00     0.005 A 
ENDROOT
BRANCH   6   7
HETATM    7  N1  PAP L   1       0.240  13.097  -2.590  1.00  0.00    -0.303 NA
HETATM    8  H5  PAP L   1       0.265  12.696  -1.658  1.00  0.00     0.124 HD
HETATM    9  H6  PAP L   1      -0.623  13.599  -2.771  1.00  0.00     0.124 HD
ENDBRANCH   6   7
BRANCH   3  10
HETATM   10  O1  PAP L   1       1.256   9.398  -6.606  1.00  0.00    -0.361 OA
HETATM   11  H7  PAP L   1       0.401   9.140  -6.984  1.00  0.00     0.217 HD
ENDBRANCH   3  10
TORSDOF 2
ENDMDL
