MODEL 1
REMARK VINA RESULT:      -3.3      0.000      0.000
REMARK  2 active torsions:
REMARK  status: ('A' for Active; 'I' for Inactive)
REMARK    1  A    between atoms: C3_3  and  O1_8 
REMARK    2  A    between atoms: C6_6  and  N1_7 
ROOT
HETATM    1  C1  UNL     1       5.057 -15.700  -6.122  1.00  0.00     0.026 A 
HETATM    2  C2  UNL     1       5.932 -16.774  -6.301  1.00  0.00     0.038 A 
HETATM    3  C3  UNL     1       6.743 -16.821  -7.426  1.00  0.00     0.065 A 
HETATM    4  C4  UNL     1       6.704 -15.800  -8.369  1.00  0.00     0.038 A 
HETATM    5  C5  UNL     1       5.825 -14.729  -8.184  1.00  0.00     0.026 A 
HETATM    6  C6  UNL     1       4.959 -14.693  -7.087  1.00  0.00     0.005 A 
ENDROOT
BRANCH   6   7
HETATM    7  N1  UNL     1       4.170 -13.562  -6.848  1.00  0.00    -0.303 NA
HETATM    8  H5  UNL     1       3.291 -13.563  -7.357  1.00  0.00     0.124 HD
HETATM    9  H6  UNL     1       4.670 -12.685  -6.943  1.00  0.00     0.124 HD
ENDBRANCH   6   7
BRANCH   3  10
HETATM   10  O1  UNL     1       7.585 -17.883  -7.563  1.00  0.00    -0.361 OA
HETATM   11  H7  UNL     1       8.021 -17.824  -8.428  1.00  0.00     0.217 HD
ENDBRANCH   3  10
TORSDOF 2
ENDMDL
MODEL 2
REMARK VINA RESULT:      -3.2      2.777      3.681
REMARK  2 active torsions:
REMARK  status: ('A' for Active; 'I' for Inactive)
REMARK    1  A    between atoms: C3_3  and  O1_8 
REMARK    2  A    between atoms: C6_6  and  N1_7 
ROOT
HETATM    1  C1  UNL     1       6.732 -15.837  -8.359  1.00  0.00     0.026 A 
HETATM    2  C2  UNL     1       5.837 -14.777  -8.198  1.00  0.00     0.038 A 
HETATM    3  C3  UNL     1       5.008 -14.740  -7.086  1.00  0.00     0.065 A 
HETATM    4  C4  UNL     1       5.071 -15.740  -6.122  1.00  0.00     0.038 A 
HETATM    5  C5  UNL     1       5.968 -16.799  -6.291  1.00  0.00     0.026 A 
HETATM    6  C6  UNL     1       6.770 -16.885  -7.433  1.00  0.00     0.005 A 
ENDROOT
BRANCH   6   7
HETATM    7  N1  UNL     1       7.747 -17.881  -7.536  1.00  0.00    -0.303 NA
HETATM    8  H5  UNL     1       8.269 -18.031  -6.677  1.00  0.00     0.124 HD
HETATM    9  H6  UNL     1       8.353 -17.781  -8.343  1.00  0.00     0.124 HD
ENDBRANCH   6   7
BRANCH   3  10
HETATM   10  O1  UNL     1       4.151 -13.688  -6.963  1.00  0.00    -0.361 OA
HETATM   11  H7  UNL     1       4.183 -13.367  -6.048  1.00  0.00     0.217 HD
ENDBRANCH   3  10
TORSDOF 2
ENDMDL
MODEL 3
REMARK VINA RESULT:      -3.0     10.355     11.195
REMARK  2 active torsions:
REMARK  status: ('A' for Active; 'I' for Inactive)
REMARK    1  A    between atoms: C3_3  and  O1_8 
REMARK    2  A    between atoms: C6_6  and  N1_7 
ROOT
HETATM    1  C1  UNL     1      14.809  -9.305 -10.971  1.00  0.00     0.026 A 
HETATM    2  C2  UNL     1      14.106  -8.116 -11.176  1.00  0.00     0.038 A 
HETATM    3  C3  UNL     1      12.720  -8.141 -11.252  1.00  0.00     0.065 A 
HETATM    4  C4  UNL     1      12.025  -9.337 -11.111  1.00  0.00     0.038 A 
HETATM    5  C5  UNL     1      12.736 -10.524 -10.908  1.00  0.00     0.026 A 
HETATM    6  C6  UNL     1      14.135 -10.527 -10.887  1.00  0.00     0.005 A 
ENDROOT
BRANCH   6   7
HETATM    7  N1  UNL     1      14.832 -11.697 -10.565  1.00  0.00    -0.303 NA
HETATM    8  H5  UNL     1      15.776 -11.531 -10.231  1.00  0.00     0.124 HD
HETATM    9  H6  UNL     1      14.798 -12.407 -11.289  1.00  0.00     0.124 HD
ENDBRANCH   6   7
BRANCH   3  10
HETATM   10  O1  UNL     1      12.070  -6.960 -11.450  1.00  0.00    -0.361 OA
HETATM   11  H7  UNL     1      11.401  -7.087 -12.141  1.00  0.00     0.217 HD
ENDBRANCH   3  10
TORSDOF 2
ENDMDL
MODEL 4
REMARK VINA RESULT:      -2.9      9.309     10.045
REMARK  2 active torsions:
REMARK  status: ('A' for Active; 'I' for Inactive)
REMARK    1  A    between atoms: C3_3  and  O1_8 
REMARK    2  A    between atoms: C6_6  and  N1_7 
ROOT
HETATM    1  C1  UNL     1      11.235 -10.592 -12.284  1.00  0.00     0.026 A 
HETATM    2  C2  UNL     1      12.146 -11.110 -11.360  1.00  0.00     0.038 A 
HETATM    3  C3  UNL     1      13.241 -10.349 -10.974  1.00  0.00     0.065 A 
HETATM    4  C4  UNL     1      13.431  -9.070 -11.485  1.00  0.00     0.038 A 
HETATM    5  C5  UNL     1      12.515  -8.559 -12.410  1.00  0.00     0.026 A 
HETATM    6  C6  UNL     1      11.438  -9.332 -12.856  1.00  0.00     0.005 A 
ENDROOT
BRANCH   6   7
HETATM    7  N1  UNL     1      10.464  -8.770 -13.688  1.00  0.00    -0.303 NA
HETATM    8  H5  UNL     1       9.886  -8.074 -13.228  1.00  0.00     0.124 HD
HETATM    9  H6  UNL     1       9.913  -9.454 -14.196  1.00  0.00     0.124 HD
ENDBRANCH   6   7
BRANCH   3  10
HETATM   10  O1  UNL     1      14.106 -10.889 -10.069  1.00  0.00    -0.361 OA
HETATM   11  H7  UNL     1      14.994 -10.541 -10.245  1.00  0.00     0.217 HD
ENDBRANCH   3  10
TORSDOF 2
ENDMDL
MODEL 5
REMARK VINA RESULT:      -2.9     10.360     11.135
REMARK  2 active torsions:
REMARK  status: ('A' for Active; 'I' for Inactive)
REMARK    1  A    between atoms: C3_3  and  O1_8 
REMARK    2  A    between atoms: C6_6  and  N1_7 
ROOT
HETATM    1  C1  UNL     1      12.760 -10.551 -10.950  1.00  0.00     0.026 A 
HETATM    2  C2  UNL     1      12.065  -9.360 -11.172  1.00  0.00     0.038 A 
HETATM    3  C3  UNL     1      12.762  -8.165 -11.273  1.00  0.00     0.065 A 
HETATM    4  C4  UNL     1      14.149  -8.144 -11.172  1.00  0.00     0.038 A 
HETATM    5  C5  UNL     1      14.838  -9.339 -10.949  1.00  0.00     0.026 A 
HETATM    6  C6  UNL     1      14.149 -10.545 -10.786  1.00  0.00     0.005 A 
ENDROOT
BRANCH   6   7
HETATM    7  N1  UNL     1      14.852 -11.751 -10.682  1.00  0.00    -0.303 NA
HETATM    8  H5  UNL     1      15.846 -11.630 -10.512  1.00  0.00     0.124 HD
HETATM    9  H6  UNL     1      14.666 -12.401 -11.438  1.00  0.00     0.124 HD
ENDBRANCH   6   7
BRANCH   3  10
HETATM   10  O1  UNL     1      12.048  -7.025 -11.492  1.00  0.00    -0.361 OA
HETATM   11  H7  UNL     1      11.104  -7.249 -11.504  1.00  0.00     0.217 HD
ENDBRANCH   3  10
TORSDOF 2
ENDMDL
MODEL 6
REMARK VINA RESULT:      -2.9      4.811      5.648
REMARK  2 active torsions:
REMARK  status: ('A' for Active; 'I' for Inactive)
REMARK    1  A    between atoms: C3_3  and  O1_8 
REMARK    2  A    between atoms: C6_6  and  N1_7 
ROOT
HETATM    1  C1  UNL     1      10.904 -17.376  -9.514  1.00  0.00     0.026 A 
HETATM    2  C2  UNL     1      10.120 -17.208 -10.658  1.00  0.00     0.038 A 
HETATM    3  C3  UNL     1       8.765 -17.501 -10.613  1.00  0.00     0.065 A 
HETATM    4  C4  UNL     1       8.176 -17.945  -9.434  1.00  0.00     0.038 A 
HETATM    5  C5  UNL     1       8.967 -18.112  -8.293  1.00  0.00     0.026 A 
HETATM    6  C6  UNL     1      10.345 -17.878  -8.335  1.00  0.00     0.005 A 
ENDROOT
BRANCH   6   7
HETATM    7  N1  UNL     1      11.105 -17.933  -7.162  1.00  0.00    -0.303 NA
HETATM    8  H5  UNL     1      11.537 -18.838  -6.997  1.00  0.00     0.124 HD
HETATM    9  H6  UNL     1      10.621 -17.582  -6.342  1.00  0.00     0.124 HD
ENDBRANCH   6   7
BRANCH   3  10
HETATM   10  O1  UNL     1       8.034 -17.321 -11.749  1.00  0.00    -0.361 OA
HETATM   11  H7  UNL     1       7.103 -17.508 -11.551  1.00  0.00     0.217 HD
ENDBRANCH   3  10
TORSDOF 2
ENDMDL
MODEL 7
REMARK VINA RESULT:      -2.8     11.869     12.154
REMARK  2 active torsions:
REMARK  status: ('A' for Active; 'I' for Inactive)
REMARK    1  A    between atoms: C3_3  and  O1_8 
REMARK    2  A    between atoms: C6_6  and  N1_7 
ROOT
HETATM    1  C1  UNL     1      12.665  -7.729 -12.984  1.00  0.00     0.026 A 
HETATM    2  C2  UNL     1      13.559  -8.478 -12.217  1.00  0.00     0.038 A 
HETATM    3  C3  UNL     1      13.981  -7.996 -10.986  1.00  0.00     0.065 A 
HETATM    4  C4  UNL     1      13.508  -6.781 -10.502  1.00  0.00     0.038 A 
HETATM    5  C5  UNL     1      12.614  -6.036 -11.277  1.00  0.00     0.026 A 
HETATM    6  C6  UNL     1      12.223  -6.478 -12.545  1.00  0.00     0.005 A 
ENDROOT
BRANCH   6   7
HETATM    7  N1  UNL     1      11.238  -5.786 -13.259  1.00  0.00    -0.303 NA
HETATM    8  H5  UNL     1      10.981  -6.232 -14.134  1.00  0.00     0.124 HD
HETATM    9  H6  UNL     1      11.432  -4.797 -13.372  1.00  0.00     0.124 HD
ENDBRANCH   6   7
BRANCH   3  10
HETATM   10  O1  UNL     1      14.852  -8.757 -10.266  1.00  0.00    -0.361 OA
HETATM   11  H7  UNL     1      15.196  -8.224  -9.531  1.00  0.00     0.217 HD
ENDBRANCH   3  10
TORSDOF 2
ENDMDL
MODEL 8
REMARK VINA RESULT:      -2.8     10.187     11.086
REMARK  2 active torsions:
REMARK  status: ('A' for Active; 'I' for Inactive)
REMARK    1  A    between atoms: C3_3  and  O1_8 
REMARK    2  A    between atoms: C6_6  and  N1_7 
ROOT
HETATM    1  C1  UNL     1      11.957  -7.979 -13.503  1.00  0.00     0.026 A 
HETATM    2  C2  UNL     1      12.562  -7.347 -12.414  1.00  0.00     0.038 A 
HETATM    3  C3  UNL     1      12.602  -7.987 -11.184  1.00  0.00     0.065 A 
HETATM    4  C4  UNL     1      12.059  -9.258 -11.028  1.00  0.00     0.038 A 
HETATM    5  C5  UNL     1      11.454  -9.883 -12.122  1.00  0.00     0.026 A 
HETATM    6  C6  UNL     1      11.353  -9.231 -13.355  1.00  0.00     0.005 A 
ENDROOT
BRANCH   6   7
HETATM    7  N1  UNL     1      10.853  -9.910 -14.473  1.00  0.00    -0.303 NA
HETATM    8  H5  UNL     1      11.360  -9.712 -15.330  1.00  0.00     0.124 HD
HETATM    9  H6  UNL     1       9.849  -9.826 -14.589  1.00  0.00     0.124 HD
ENDBRANCH   6   7
BRANCH   3  10
HETATM   10  O1  UNL     1      13.203  -7.339 -10.146  1.00  0.00    -0.361 OA
HETATM   11  H7  UNL     1      13.885  -6.748 -10.504  1.00  0.00     0.217 HD
ENDBRANCH   3  10
TORSDOF 2
ENDMDL
MODEL 9
REMARK VINA RESULT:      -2.8     10.142     10.906
REMARK  2 active torsions:
REMARK  status: ('A' for Active; 'I' for Inactive)
REMARK    1  A    between atoms: C3_3  and  O1_8 
REMARK    2  A    between atoms: C6_6  and  N1_7 
ROOT
HETATM    1  C1  UNL     1      12.142  -9.155 -11.021  1.00  0.00     0.026 A 
HETATM    2  C2  UNL     1      11.517  -9.862 -12.051  1.00  0.00     0.038 A 
HETATM    3  C3  UNL     1      11.399  -9.285 -13.308  1.00  0.00     0.065 A 
HETATM    4  C4  UNL     1      11.912  -8.017 -13.556  1.00  0.00     0.038 A 
HETATM    5  C5  UNL     1      12.536  -7.315 -12.520  1.00  0.00     0.026 A 
HETATM    6  C6  UNL     1      12.612  -7.855 -11.232  1.00  0.00     0.005 A 
ENDROOT
BRANCH   6   7
HETATM    7  N1  UNL     1      13.341  -7.198 -10.234  1.00  0.00    -0.303 NA
HETATM    8  H5  UNL     1      13.670  -6.278 -10.509  1.00  0.00     0.124 HD
HETATM    9  H6  UNL     1      14.075  -7.764  -9.822  1.00  0.00     0.124 HD
ENDBRANCH   6   7
BRANCH   3  10
HETATM   10  O1  UNL     1      10.785 -10.008 -14.287  1.00  0.00    -0.361 OA
HETATM   11  H7  UNL     1      10.407  -9.392 -14.935  1.00  0.00     0.217 HD
ENDBRANCH   3  10
TORSDOF 2
ENDMDL
MODEL 10
REMARK VINA RESULT:      -2.8      8.586      9.399
REMARK  2 active torsions:
REMARK  status: ('A' for Active; 'I' for Inactive)
REMARK    1  A    between atoms: C3_3  and  O1_8 
REMARK    2  A    between atoms: C6_6  and  N1_7 
ROOT
HETATM    1  C1  UNL     1      13.535  -9.966 -11.433  1.00  0.00     0.026 A 
HETATM    2  C2  UNL     1      13.559 -11.307 -11.823  1.00  0.00     0.038 A 
HETATM    3  C3  UNL     1      12.387 -12.050 -11.800  1.00  0.00     0.065 A 
HETATM    4  C4  UNL     1      11.187 -11.468 -11.408  1.00  0.00     0.038 A 
HETATM    5  C5  UNL     1      11.171 -10.126 -11.018  1.00  0.00     0.026 A 
HETATM    6  C6  UNL     1      12.352  -9.377 -10.978  1.00  0.00     0.005 A 
ENDROOT
BRANCH   6   7
HETATM    7  N1  UNL     1      12.307  -8.005 -10.702  1.00  0.00    -0.303 NA
HETATM    8  H5  UNL     1      11.533  -7.524 -11.150  1.00  0.00     0.124 HD
HETATM    9  H6  UNL     1      13.192  -7.529 -10.844  1.00  0.00     0.124 HD
ENDBRANCH   6   7
BRANCH   3  10
HETATM   10  O1  UNL     1      12.451 -13.355 -12.190  1.00  0.00    -0.361 OA
HETATM   11  H7  UNL     1      12.281 -13.401 -13.144  1.00  0.00     0.217 HD
ENDBRANCH   3  10
TORSDOF 2
ENDMDL
MODEL 11
REMARK VINA RESULT:      -2.8     12.392     12.671
REMARK  2 active torsions:
REMARK  status: ('A' for Active; 'I' for Inactive)
REMARK    1  A    between atoms: C3_3  and  O1_8 
REMARK    2  A    between atoms: C6_6  and  N1_7 
ROOT
HETATM    1  C1  UNL     1      12.427  -6.586 -12.411  1.00  0.00     0.026 A 
HETATM    2  C2  UNL     1      12.783  -5.911 -11.241  1.00  0.00     0.038 A 
HETATM    3  C3  UNL     1      13.803  -6.409 -10.442  1.00  0.00     0.065 A 
HETATM    4  C4  UNL     1      14.484  -7.566 -10.804  1.00  0.00     0.038 A 
HETATM    5  C5  UNL     1      14.122  -8.237 -11.975  1.00  0.00     0.026 A 
HETATM    6  C6  UNL     1      13.058  -7.783 -12.762  1.00  0.00     0.005 A 
ENDROOT
BRANCH   6   7
HETATM    7  N1  UNL     1      12.782  -8.392 -13.992  1.00  0.00    -0.303 NA
HETATM    8  H5  UNL     1      13.380  -8.074 -14.748  1.00  0.00     0.124 HD
HETATM    9  H6  UNL     1      11.799  -8.377 -14.245  1.00  0.00     0.124 HD
ENDBRANCH   6   7
BRANCH   3  10
HETATM   10  O1  UNL     1      14.122  -5.720  -9.311  1.00  0.00    -0.361 OA
HETATM   11  H7  UNL     1      13.771  -4.818  -9.387  1.00  0.00     0.217 HD
ENDBRANCH   3  10
TORSDOF 2
ENDMDL
MODEL 12
REMARK VINA RESULT:      -2.7      8.874      9.777
REMARK  2 active torsions:
REMARK  status: ('A' for Active; 'I' for Inactive)
REMARK    1  A    between atoms: C3_3  and  O1_8 
REMARK    2  A    between atoms: C6_6  and  N1_7 
ROOT
HETATM    1  C1  UNL     1      13.503 -11.257 -11.804  1.00  0.00     0.026 A 
HETATM    2  C2  UNL     1      13.442  -9.933 -11.363  1.00  0.00     0.038 A 
HETATM    3  C3  UNL     1      12.225  -9.395 -10.970  1.00  0.00     0.065 A 
HETATM    4  C4  UNL     1      11.068 -10.166 -10.997  1.00  0.00     0.038 A 
HETATM    5  C5  UNL     1      11.137 -11.490 -11.441  1.00  0.00     0.026 A 
HETATM    6  C6  UNL     1      12.343 -12.032 -11.896  1.00  0.00     0.005 A 
ENDROOT
BRANCH   6   7
HETATM    7  N1  UNL     1      12.427 -13.389 -12.225  1.00  0.00    -0.303 NA
HETATM    8  H5  UNL     1      11.782 -13.976 -11.704  1.00  0.00     0.124 HD
HETATM    9  H6  UNL     1      13.372 -13.756 -12.220  1.00  0.00     0.124 HD
ENDBRANCH   6   7
BRANCH   3  10
HETATM   10  O1  UNL     1      12.207  -8.101 -10.544  1.00  0.00    -0.361 OA
HETATM   11  H7  UNL     1      11.389  -7.682 -10.858  1.00  0.00     0.217 HD
ENDBRANCH   3  10
TORSDOF 2
ENDMDL
MODEL 13
REMARK VINA RESULT:      -2.7     10.715     11.501
REMARK  2 active torsions:
REMARK  status: ('A' for Active; 'I' for Inactive)
REMARK    1  A    between atoms: C3_3  and  O1_8 
REMARK    2  A    between atoms: C6_6  and  N1_7 
ROOT
HETATM    1  C1  UNL     1      11.861  -9.314 -12.218  1.00  0.00     0.026 A 
HETATM    2  C2  UNL     1      12.474  -8.800 -11.074  1.00  0.00     0.038 A 
HETATM    3  C3  UNL     1      12.935  -7.491 -11.069  1.00  0.00     0.065 A 
HETATM    4  C4  UNL     1      12.777  -6.681 -12.188  1.00  0.00     0.038 A 
HETATM    5  C5  UNL     1      12.163  -7.203 -13.331  1.00  0.00     0.026 A 
HETATM    6  C6  UNL     1      11.746  -8.537 -13.375  1.00  0.00     0.005 A 
ENDROOT
BRANCH   6   7
HETATM    7  N1  UNL     1      11.027  -9.014 -14.477  1.00  0.00    -0.303 NA
HETATM    8  H5  UNL     1      11.579  -9.590 -15.105  1.00  0.00     0.124 HD
HETATM    9  H6  UNL     1      10.505  -8.297 -14.969  1.00  0.00     0.124 HD
ENDBRANCH   6   7
BRANCH   3  10
HETATM   10  O1  UNL     1      13.525  -7.025  -9.932  1.00  0.00    -0.361 OA
HETATM   11  H7  UNL     1      14.418  -6.715 -10.152  1.00  0.00     0.217 HD
ENDBRANCH   3  10
TORSDOF 2
ENDMDL
MODEL 14
REMARK VINA RESULT:      -2.6     11.596     12.500
REMARK  2 active torsions:
REMARK  status: ('A' for Active; 'I' for Inactive)
REMARK    1  A    between atoms: C3_3  and  O1_8 
REMARK    2  A    between atoms: C6_6  and  N1_7 
ROOT
HETATM    1  C1  UNL     1       8.555 -12.264 -17.354  1.00  0.00     0.026 A 
HETATM    2  C2  UNL     1       9.235 -11.196 -17.943  1.00  0.00     0.038 A 
HETATM    3  C3  UNL     1       8.777 -10.665 -19.140  1.00  0.00     0.065 A 
HETATM    4  C4  UNL     1       7.637 -11.175 -19.751  1.00  0.00     0.038 A 
HETATM    5  C5  UNL     1       6.962 -12.245 -19.157  1.00  0.00     0.026 A 
HETATM    6  C6  UNL     1       7.441 -12.832 -17.981  1.00  0.00     0.005 A 
ENDROOT
BRANCH   6   7
HETATM    7  N1  UNL     1       6.695 -13.822 -17.332  1.00  0.00    -0.303 NA
HETATM    8  H5  UNL     1       7.055 -14.069 -16.416  1.00  0.00     0.124 HD
HETATM    9  H6  UNL     1       6.506 -14.637 -17.906  1.00  0.00     0.124 HD
ENDBRANCH   6   7
BRANCH   3  10
HETATM   10  O1  UNL     1       9.467  -9.621 -19.681  1.00  0.00    -0.361 OA
HETATM   11  H7  UNL     1       9.047  -9.375 -20.521  1.00  0.00     0.217 HD
ENDBRANCH   3  10
TORSDOF 2
ENDMDL
MODEL 15
REMARK VINA RESULT:      -2.6     10.800     11.209
REMARK  2 active torsions:
REMARK  status: ('A' for Active; 'I' for Inactive)
REMARK    1  A    between atoms: C3_3  and  O1_8 
REMARK    2  A    between atoms: C6_6  and  N1_7 
ROOT
HETATM    1  C1  UNL     1      12.656  -7.447 -11.971  1.00  0.00     0.026 A 
HETATM    2  C2  UNL     1      13.602  -7.986 -11.096  1.00  0.00     0.038 A 
HETATM    3  C3  UNL     1      13.922  -9.333 -11.175  1.00  0.00     0.065 A 
HETATM    4  C4  UNL     1      13.323 -10.149 -12.128  1.00  0.00     0.038 A 
HETATM    5  C5  UNL     1      12.377  -9.603 -13.000  1.00  0.00     0.026 A 
HETATM    6  C6  UNL     1      11.997  -8.261 -12.898  1.00  0.00     0.005 A 
ENDROOT
BRANCH   6   7
HETATM    7  N1  UNL     1      11.140  -7.696 -13.849  1.00  0.00    -0.303 NA
HETATM    8  H5  UNL     1      11.402  -6.756 -14.127  1.00  0.00     0.124 HD
HETATM    9  H6  UNL     1      10.157  -7.769 -13.610  1.00  0.00     0.124 HD
ENDBRANCH   6   7
BRANCH   3  10
HETATM   10  O1  UNL     1      14.851  -9.820 -10.305  1.00  0.00    -0.361 OA
HETATM   11  H7  UNL     1      15.407 -10.464 -10.773  1.00  0.00     0.217 HD
ENDBRANCH   3  10
TORSDOF 2
ENDMDL
MODEL 16
REMARK VINA RESULT:      -2.6     11.032     11.865
REMARK  2 active torsions:
REMARK  status: ('A' for Active; 'I' for Inactive)
REMARK    1  A    between atoms: C3_3  and  O1_8 
REMARK    2  A    between atoms: C6_6  and  N1_7 
ROOT
HETATM    1  C1  UNL     1      12.758  -7.539 -11.214  1.00  0.00     0.026 A 
HETATM    2  C2  UNL     1      12.668  -6.502 -12.146  1.00  0.00     0.038 A 
HETATM    3  C3  UNL     1      12.170  -6.759 -13.415  1.00  0.00     0.065 A 
HETATM    4  C4  UNL     1      11.744  -8.036 -13.764  1.00  0.00     0.038 A 
HETATM    5  C5  UNL     1      11.839  -9.069 -12.827  1.00  0.00     0.026 A 
HETATM    6  C6  UNL     1      12.392  -8.843 -11.562  1.00  0.00     0.005 A 
ENDROOT
BRANCH   6   7
HETATM    7  N1  UNL     1      12.372  -9.852 -10.593  1.00  0.00    -0.303 NA
HETATM    8  H5  UNL     1      12.153  -9.518  -9.660  1.00  0.00     0.124 HD
HETATM    9  H6  UNL     1      13.191 -10.451 -10.607  1.00  0.00     0.124 HD
ENDBRANCH   6   7
BRANCH   3  10
HETATM   10  O1  UNL     1      12.096  -5.720 -14.294  1.00  0.00    -0.361 OA
HETATM   11  H7  UNL     1      11.980  -4.897 -13.792  1.00  0.00     0.217 HD
ENDBRANCH   3  10
TORSDOF 2
ENDMDL
MODEL 17
REMARK VINA RESULT:      -2.5     11.594     12.529
REMARK  2 active torsions:
REMARK  status: ('A' for Active; 'I' for Inactive)
REMARK    1  A    between atoms: C3_3  and  O1_8 
REMARK    2  A    between atoms: C6_6  and  N1_7 
ROOT
HETATM    1  C1  UNL     1       7.718 -11.227 -19.828  1.00  0.00     0.026 A 
HETATM    2  C2  UNL     1       6.977 -12.212 -19.172  1.00  0.00     0.038 A 
HETATM    3  C3  UNL     1       7.394 -12.674 -17.931  1.00  0.00     0.065 A 
HETATM    4  C4  UNL     1       8.533 -12.154 -17.328  1.00  0.00     0.038 A 
HETATM    5  C5  UNL     1       9.270 -11.168 -17.992  1.00  0.00     0.026 A 
HETATM    6  C6  UNL     1       8.899 -10.732 -19.268  1.00  0.00     0.005 A 
ENDROOT
BRANCH   6   7
HETATM    7  N1  UNL     1       9.573  -9.664 -19.871  1.00  0.00    -0.303 NA
HETATM    8  H5  UNL     1      10.123  -9.933 -20.680  1.00  0.00     0.124 HD
HETATM    9  H6  UNL     1      10.099  -9.090 -19.220  1.00  0.00     0.124 HD
ENDBRANCH   6   7
BRANCH   3  10
HETATM   10  O1  UNL     1       6.642 -13.634 -17.322  1.00  0.00    -0.361 OA
HETATM   11  H7  UNL     1       7.198 -14.099 -16.676  1.00  0.00     0.217 HD
ENDBRANCH   3  10
TORSDOF 2
ENDMDL
MODEL 18
REMARK VINA RESULT:      -2.5     11.714     12.431
REMARK  2 active torsions:
REMARK  status: ('A' for Active; 'I' for Inactive)
REMARK    1  A    between atoms: C3_3  and  O1_8 
REMARK    2  A    between atoms: C6_6  and  N1_7 
ROOT
HETATM    1  C1  UNL     1      12.447  -8.336 -12.473  1.00  0.00     0.026 A 
HETATM    2  C2  UNL     1      11.876  -8.085 -13.723  1.00  0.00     0.038 A 
HETATM    3  C3  UNL     1      11.567  -6.783 -14.089  1.00  0.00     0.065 A 
HETATM    4  C4  UNL     1      11.835  -5.723 -13.229  1.00  0.00     0.038 A 
HETATM    5  C5  UNL     1      12.406  -5.982 -11.980  1.00  0.00     0.026 A 
HETATM    6  C6  UNL     1      12.670  -7.293 -11.569  1.00  0.00     0.005 A 
ENDROOT
BRANCH   6   7
HETATM    7  N1  UNL     1      13.349  -7.532 -10.369  1.00  0.00    -0.303 NA
HETATM    8  H5  UNL     1      13.458  -8.518 -10.152  1.00  0.00     0.124 HD
HETATM    9  H6  UNL     1      12.992  -7.001  -9.583  1.00  0.00     0.124 HD
ENDBRANCH   6   7
BRANCH   3  10
HETATM   10  O1  UNL     1      11.014  -6.579 -15.317  1.00  0.00    -0.361 OA
HETATM   11  H7  UNL     1      10.413  -7.316 -15.513  1.00  0.00     0.217 HD
ENDBRANCH   3  10
TORSDOF 2
ENDMDL
MODEL 19
REMARK VINA RESULT:      -2.5     10.054     10.948
REMARK  2 active torsions:
REMARK  status: ('A' for Active; 'I' for Inactive)
REMARK    1  A    between atoms: C3_3  and  O1_8 
REMARK    2  A    between atoms: C6_6  and  N1_7 
ROOT
HETATM    1  C1  UNL     1      11.205  -9.687 -13.140  1.00  0.00     0.026 A 
HETATM    2  C2  UNL     1      11.636  -8.447 -13.617  1.00  0.00     0.038 A 
HETATM    3  C3  UNL     1      12.334  -7.592 -12.776  1.00  0.00     0.065 A 
HETATM    4  C4  UNL     1      12.621  -7.965 -11.467  1.00  0.00     0.038 A 
HETATM    5  C5  UNL     1      12.185  -9.207 -10.997  1.00  0.00     0.026 A 
HETATM    6  C6  UNL     1      11.431 -10.057 -11.811  1.00  0.00     0.005 A 
ENDROOT
BRANCH   6   7
HETATM    7  N1  UNL     1      11.102 -11.345 -11.372  1.00  0.00    -0.303 NA
HETATM    8  H5  UNL     1      10.106 -11.541 -11.393  1.00  0.00     0.124 HD
HETATM    9  H6  UNL     1      11.527 -11.597 -10.486  1.00  0.00     0.124 HD
ENDBRANCH   6   7
BRANCH   3  10
HETATM   10  O1  UNL     1      12.740  -6.392 -13.279  1.00  0.00    -0.361 OA
HETATM   11  H7  UNL     1      13.219  -6.550 -14.108  1.00  0.00     0.217 HD
ENDBRANCH   3  10
TORSDOF 2
ENDMDL
MODEL 20
REMARK VINA RESULT:      -2.5      4.701      5.421
REMARK  2 active torsions:
REMARK  status: ('A' for Active; 'I' for Inactive)
REMARK    1  A    between atoms: C3_3  and  O1_8 
REMARK    2  A    between atoms: C6_6  and  N1_7 
ROOT
HETATM    1  C1  UNL     1       8.461 -19.026  -9.084  1.00  0.00     0.026 A 
HETATM    2  C2  UNL     1       9.445 -20.012  -8.986  1.00  0.00     0.038 A 
HETATM    3  C3  UNL     1      10.752 -19.718  -9.350  1.00  0.00     0.065 A 
HETATM    4  C4  UNL     1      11.093 -18.445  -9.795  1.00  0.00     0.038 A 
HETATM    5  C5  UNL     1      10.102 -17.464  -9.892  1.00  0.00     0.026 A 
HETATM    6  C6  UNL     1       8.769 -17.758  -9.586  1.00  0.00     0.005 A 
ENDROOT
BRANCH   6   7
HETATM    7  N1  UNL     1       7.808 -16.741  -9.572  1.00  0.00    -0.303 NA
HETATM    8  H5  UNL     1       7.246 -16.699 -10.416  1.00  0.00     0.124 HD
HETATM    9  H6  UNL     1       8.176 -15.833  -9.307  1.00  0.00     0.124 HD
ENDBRANCH   6   7
BRANCH   3  10
HETATM   10  O1  UNL     1      11.684 -20.705  -9.237  1.00  0.00    -0.361 OA
HETATM   11  H7  UNL     1      12.425 -20.373  -8.706  1.00  0.00     0.217 HD
ENDBRANCH   3  10
TORSDOF 2
ENDMDL
