MODEL 1
REMARK VINA RESULT:      -4.6      0.000      0.000
REMARK  2 active torsions:
REMARK  status: ('A' for Active; 'I' for Inactive)
REMARK    1  A    between atoms: C3_3  and  O1_8 
REMARK    2  A    between atoms: C6_6  and  N1_7 
ROOT
HETATM    1  C1  UNL     1      -4.162   2.492 -15.206  1.00  0.00     0.026 A 
HETATM    2  C2  UNL     1      -3.798   3.840 -15.252  1.00  0.00     0.038 A 
HETATM    3  C3  UNL     1      -2.524   4.194 -15.675  1.00  0.00     0.065 A 
HETATM    4  C4  UNL     1      -1.613   3.221 -16.068  1.00  0.00     0.038 A 
HETATM    5  C5  UNL     1      -1.984   1.874 -16.017  1.00  0.00     0.026 A 
HETATM    6  C6  UNL     1      -3.242   1.494 -15.539  1.00  0.00     0.005 A 
ENDROOT
BRANCH   6   7
HETATM    7  N1  UNL     1      -3.646   0.155 -15.604  1.00  0.00    -0.303 NA
HETATM    8  H5  UNL     1      -4.208  -0.140 -14.812  1.00  0.00     0.124 HD
HETATM    9  H6  UNL     1      -2.891  -0.492 -15.804  1.00  0.00     0.124 HD
ENDBRANCH   6   7
BRANCH   3  10
HETATM   10  O1  UNL     1      -2.209   5.519 -15.709  1.00  0.00    -0.361 OA
HETATM   11  H7  UNL     1      -1.780   5.757 -14.871  1.00  0.00     0.217 HD
ENDBRANCH   3  10
TORSDOF 2
ENDMDL
MODEL 2
REMARK VINA RESULT:      -4.3     15.257     15.895
REMARK  2 active torsions:
REMARK  status: ('A' for Active; 'I' for Inactive)
REMARK    1  A    between atoms: C3_3  and  O1_8 
REMARK    2  A    between atoms: C6_6  and  N1_7 
ROOT
HETATM    1  C1  UNL     1       9.665  -2.074  -8.511  1.00  0.00     0.026 A 
HETATM    2  C2  UNL     1       8.324  -2.389  -8.277  1.00  0.00     0.038 A 
HETATM    3  C3  UNL     1       7.871  -2.540  -6.974  1.00  0.00     0.065 A 
HETATM    4  C4  UNL     1       8.735  -2.364  -5.899  1.00  0.00     0.038 A 
HETATM    5  C5  UNL     1      10.076  -2.050  -6.142  1.00  0.00     0.026 A 
HETATM    6  C6  UNL     1      10.564  -1.951  -7.448  1.00  0.00     0.005 A 
ENDROOT
BRANCH   6   7
HETATM    7  N1  UNL     1      11.875  -1.520  -7.680  1.00  0.00    -0.303 NA
HETATM    8  H5  UNL     1      12.247  -0.930  -6.941  1.00  0.00     0.124 HD
HETATM    9  H6  UNL     1      12.020  -1.121  -8.601  1.00  0.00     0.124 HD
ENDBRANCH   6   7
BRANCH   3  10
HETATM   10  O1  UNL     1       6.556  -2.846  -6.787  1.00  0.00    -0.361 OA
HETATM   11  H7  UNL     1       6.146  -2.993  -7.654  1.00  0.00     0.217 HD
ENDBRANCH   3  10
TORSDOF 2
ENDMDL
MODEL 3
REMARK VINA RESULT:      -4.3     14.492     15.126
REMARK  2 active torsions:
REMARK  status: ('A' for Active; 'I' for Inactive)
REMARK    1  A    between atoms: C3_3  and  O1_8 
REMARK    2  A    between atoms: C6_6  and  N1_7 
ROOT
HETATM    1  C1  UNL     1       8.623  -2.639  -8.210  1.00  0.00     0.026 A 
HETATM    2  C2  UNL     1       9.829  -2.343  -7.572  1.00  0.00     0.038 A 
HETATM    3  C3  UNL     1      10.820  -1.655  -8.259  1.00  0.00     0.065 A 
HETATM    4  C4  UNL     1      10.616  -1.243  -9.572  1.00  0.00     0.038 A 
HETATM    5  C5  UNL     1       9.406  -1.545 -10.204  1.00  0.00     0.026 A 
HETATM    6  C6  UNL     1       8.419  -2.288  -9.548  1.00  0.00     0.005 A 
ENDROOT
BRANCH   6   7
HETATM    7  N1  UNL     1       7.169  -2.482 -10.146  1.00  0.00    -0.303 NA
HETATM    8  H5  UNL     1       6.571  -3.129  -9.641  1.00  0.00     0.124 HD
HETATM    9  H6  UNL     1       7.215  -2.692 -11.137  1.00  0.00     0.124 HD
ENDBRANCH   6   7
BRANCH   3  10
HETATM   10  O1  UNL     1      11.981  -1.382  -7.601  1.00  0.00    -0.361 OA
HETATM   11  H7  UNL     1      12.144  -2.087  -6.954  1.00  0.00     0.217 HD
ENDBRANCH   3  10
TORSDOF 2
ENDMDL
MODEL 4
REMARK VINA RESULT:      -4.3     14.526     15.201
REMARK  2 active torsions:
REMARK  status: ('A' for Active; 'I' for Inactive)
REMARK    1  A    between atoms: C3_3  and  O1_8 
REMARK    2  A    between atoms: C6_6  and  N1_7 
ROOT
HETATM    1  C1  UNL     1       9.399  -1.476 -10.116  1.00  0.00     0.026 A 
HETATM    2  C2  UNL     1      10.617  -1.218  -9.483  1.00  0.00     0.038 A 
HETATM    3  C3  UNL     1      10.831  -1.676  -8.191  1.00  0.00     0.065 A 
HETATM    4  C4  UNL     1       9.850  -2.404  -7.526  1.00  0.00     0.038 A 
HETATM    5  C5  UNL     1       8.633  -2.656  -8.165  1.00  0.00     0.026 A 
HETATM    6  C6  UNL     1       8.376  -2.153  -9.444  1.00  0.00     0.005 A 
ENDROOT
BRANCH   6   7
HETATM    7  N1  UNL     1       7.205  -2.512 -10.121  1.00  0.00    -0.303 NA
HETATM    8  H5  UNL     1       6.435  -2.753  -9.504  1.00  0.00     0.124 HD
HETATM    9  H6  UNL     1       7.347  -3.202 -10.850  1.00  0.00     0.124 HD
ENDBRANCH   6   7
BRANCH   3  10
HETATM   10  O1  UNL     1      12.033  -1.407  -7.609  1.00  0.00    -0.361 OA
HETATM   11  H7  UNL     1      12.045  -0.474  -7.340  1.00  0.00     0.217 HD
ENDBRANCH   3  10
TORSDOF 2
ENDMDL
MODEL 5
REMARK VINA RESULT:      -4.2     15.166     15.766
REMARK  2 active torsions:
REMARK  status: ('A' for Active; 'I' for Inactive)
REMARK    1  A    between atoms: C3_3  and  O1_8 
REMARK    2  A    between atoms: C6_6  and  N1_7 
ROOT
HETATM    1  C1  UNL     1       8.466  -2.384  -8.331  1.00  0.00     0.026 A 
HETATM    2  C2  UNL     1       9.804  -2.063  -8.567  1.00  0.00     0.038 A 
HETATM    3  C3  UNL     1      10.651  -1.816  -7.496  1.00  0.00     0.065 A 
HETATM    4  C4  UNL     1      10.184  -1.903  -6.189  1.00  0.00     0.038 A 
HETATM    5  C5  UNL     1       8.842  -2.223  -5.961  1.00  0.00     0.026 A 
HETATM    6  C6  UNL     1       7.960  -2.417  -7.029  1.00  0.00     0.005 A 
ENDROOT
BRANCH   6   7
HETATM    7  N1  UNL     1       6.651  -2.854  -6.791  1.00  0.00    -0.303 NA
HETATM    8  H5  UNL     1       6.511  -3.234  -5.860  1.00  0.00     0.124 HD
HETATM    9  H6  UNL     1       6.283  -3.461  -7.516  1.00  0.00     0.124 HD
ENDBRANCH   6   7
BRANCH   3  10
HETATM   10  O1  UNL     1      11.951  -1.509  -7.767  1.00  0.00    -0.361 OA
HETATM   11  H7  UNL     1      12.136  -0.619  -7.426  1.00  0.00     0.217 HD
ENDBRANCH   3  10
TORSDOF 2
ENDMDL
MODEL 6
REMARK VINA RESULT:      -4.2     14.516     15.228
REMARK  2 active torsions:
REMARK  status: ('A' for Active; 'I' for Inactive)
REMARK    1  A    between atoms: C3_3  and  O1_8 
REMARK    2  A    between atoms: C6_6  and  N1_7 
ROOT
HETATM    1  C1  UNL     1      10.515  -1.275  -9.585  1.00  0.00     0.026 A 
HETATM    2  C2  UNL     1       9.298  -1.525 -10.223  1.00  0.00     0.038 A 
HETATM    3  C3  UNL     1       8.303  -2.226  -9.556  1.00  0.00     0.065 A 
HETATM    4  C4  UNL     1       8.500  -2.667  -8.253  1.00  0.00     0.038 A 
HETATM    5  C5  UNL     1       9.721  -2.414  -7.621  1.00  0.00     0.026 A 
HETATM    6  C6  UNL     1      10.757  -1.761  -8.296  1.00  0.00     0.005 A 
ENDROOT
BRANCH   6   7
HETATM    7  N1  UNL     1      11.928  -1.408  -7.618  1.00  0.00    -0.303 NA
HETATM    8  H5  UNL     1      11.954  -1.728  -6.654  1.00  0.00     0.124 HD
HETATM    9  H6  UNL     1      12.174  -0.428  -7.706  1.00  0.00     0.124 HD
ENDBRANCH   6   7
BRANCH   3  10
HETATM   10  O1  UNL     1       7.129  -2.447 -10.212  1.00  0.00    -0.361 OA
HETATM   11  H7  UNL     1       7.040  -3.400 -10.374  1.00  0.00     0.217 HD
ENDBRANCH   3  10
TORSDOF 2
ENDMDL
MODEL 7
REMARK VINA RESULT:      -4.1     15.287     15.974
REMARK  2 active torsions:
REMARK  status: ('A' for Active; 'I' for Inactive)
REMARK    1  A    between atoms: C3_3  and  O1_8 
REMARK    2  A    between atoms: C6_6  and  N1_7 
ROOT
HETATM    1  C1  UNL     1      10.370  -2.441  -7.650  1.00  0.00     0.026 A 
HETATM    2  C2  UNL     1       9.166  -2.727  -8.298  1.00  0.00     0.038 A 
HETATM    3  C3  UNL     1       9.128  -2.785  -9.683  1.00  0.00     0.065 A 
HETATM    4  C4  UNL     1      10.280  -2.577 -10.433  1.00  0.00     0.038 A 
HETATM    5  C5  UNL     1      11.481  -2.290  -9.777  1.00  0.00     0.026 A 
HETATM    6  C6  UNL     1      11.528  -2.170  -8.385  1.00  0.00     0.005 A 
ENDROOT
BRANCH   6   7
HETATM    7  N1  UNL     1      12.754  -2.001  -7.732  1.00  0.00    -0.303 NA
HETATM    8  H5  UNL     1      12.681  -1.997  -6.720  1.00  0.00     0.124 HD
HETATM    9  H6  UNL     1      13.302  -1.222  -8.083  1.00  0.00     0.124 HD
ENDBRANCH   6   7
BRANCH   3  10
HETATM   10  O1  UNL     1       7.935  -3.069 -10.278  1.00  0.00    -0.361 OA
HETATM   11  H7  UNL     1       7.544  -2.241 -10.600  1.00  0.00     0.217 HD
ENDBRANCH   3  10
TORSDOF 2
ENDMDL
MODEL 8
REMARK VINA RESULT:      -4.1     21.140     21.546
REMARK  2 active torsions:
REMARK  status: ('A' for Active; 'I' for Inactive)
REMARK    1  A    between atoms: C3_3  and  O1_8 
REMARK    2  A    between atoms: C6_6  and  N1_7 
ROOT
HETATM    1  C1  UNL     1      11.467  -4.091  -0.904  1.00  0.00     0.026 A 
HETATM    2  C2  UNL     1      12.001  -3.658  -2.120  1.00  0.00     0.038 A 
HETATM    3  C3  UNL     1      12.176  -4.564  -3.156  1.00  0.00     0.065 A 
HETATM    4  C4  UNL     1      11.810  -5.897  -3.000  1.00  0.00     0.038 A 
HETATM    5  C5  UNL     1      11.277  -6.323  -1.780  1.00  0.00     0.026 A 
HETATM    6  C6  UNL     1      11.147  -5.437  -0.705  1.00  0.00     0.005 A 
ENDROOT
BRANCH   6   7
HETATM    7  N1  UNL     1      10.504  -5.844   0.469  1.00  0.00    -0.303 NA
HETATM    8  H5  UNL     1       9.515  -5.613   0.494  1.00  0.00     0.124 HD
HETATM    9  H6  UNL     1      10.986  -5.568   1.318  1.00  0.00     0.124 HD
ENDBRANCH   6   7
BRANCH   3  10
HETATM   10  O1  UNL     1      12.698  -4.102  -4.327  1.00  0.00    -0.361 OA
HETATM   11  H7  UNL     1      12.919  -4.863  -4.888  1.00  0.00     0.217 HD
ENDBRANCH   3  10
TORSDOF 2
ENDMDL
MODEL 9
REMARK VINA RESULT:      -4.0     17.127     17.794
REMARK  2 active torsions:
REMARK  status: ('A' for Active; 'I' for Inactive)
REMARK    1  A    between atoms: C3_3  and  O1_8 
REMARK    2  A    between atoms: C6_6  and  N1_7 
ROOT
HETATM    1  C1  UNL     1      10.809  -1.805  -7.508  1.00  0.00     0.026 A 
HETATM    2  C2  UNL     1      11.794  -2.680  -7.972  1.00  0.00     0.038 A 
HETATM    3  C3  UNL     1      12.078  -3.836  -7.257  1.00  0.00     0.065 A 
HETATM    4  C4  UNL     1      11.380  -4.138  -6.093  1.00  0.00     0.038 A 
HETATM    5  C5  UNL     1      10.397  -3.256  -5.635  1.00  0.00     0.026 A 
HETATM    6  C6  UNL     1      10.138  -2.058  -6.309  1.00  0.00     0.005 A 
ENDROOT
BRANCH   6   7
HETATM    7  N1  UNL     1       9.073  -1.241  -5.910  1.00  0.00    -0.303 NA
HETATM    8  H5  UNL     1       9.054  -1.053  -4.913  1.00  0.00     0.124 HD
HETATM    9  H6  UNL     1       8.171  -1.542  -6.264  1.00  0.00     0.124 HD
ENDBRANCH   6   7
BRANCH   3  10
HETATM   10  O1  UNL     1      13.043  -4.666  -7.744  1.00  0.00    -0.361 OA
HETATM   11  H7  UNL     1      12.657  -5.209  -8.450  1.00  0.00     0.217 HD
ENDBRANCH   3  10
TORSDOF 2
ENDMDL
MODEL 10
REMARK VINA RESULT:      -3.9     14.844     15.594
REMARK  2 active torsions:
REMARK  status: ('A' for Active; 'I' for Inactive)
REMARK    1  A    between atoms: C3_3  and  O1_8 
REMARK    2  A    between atoms: C6_6  and  N1_7 
ROOT
HETATM    1  C1  UNL     1      11.091  -3.801 -10.195  1.00  0.00     0.026 A 
HETATM    2  C2  UNL     1      11.222  -2.975  -9.076  1.00  0.00     0.038 A 
HETATM    3  C3  UNL     1      10.661  -1.706  -9.088  1.00  0.00     0.065 A 
HETATM    4  C4  UNL     1       9.955  -1.254 -10.198  1.00  0.00     0.038 A 
HETATM    5  C5  UNL     1       9.829  -2.086 -11.315  1.00  0.00     0.026 A 
HETATM    6  C6  UNL     1      10.437  -3.345 -11.344  1.00  0.00     0.005 A 
ENDROOT
BRANCH   6   7
HETATM    7  N1  UNL     1      10.205  -4.214 -12.416  1.00  0.00    -0.303 NA
HETATM    8  H5  UNL     1       9.482  -3.894 -13.052  1.00  0.00     0.124 HD
HETATM    9  H6  UNL     1      10.076  -5.182 -12.139  1.00  0.00     0.124 HD
ENDBRANCH   6   7
BRANCH   3  10
HETATM   10  O1  UNL     1      10.809  -0.932  -7.976  1.00  0.00    -0.361 OA
HETATM   11  H7  UNL     1      11.749  -0.716  -7.872  1.00  0.00     0.217 HD
ENDBRANCH   3  10
TORSDOF 2
ENDMDL
MODEL 11
REMARK VINA RESULT:      -3.9     17.015     17.624
REMARK  2 active torsions:
REMARK  status: ('A' for Active; 'I' for Inactive)
REMARK    1  A    between atoms: C3_3  and  O1_8 
REMARK    2  A    between atoms: C6_6  and  N1_7 
ROOT
HETATM    1  C1  UNL     1      11.259  -4.105  -6.084  1.00  0.00     0.026 A 
HETATM    2  C2  UNL     1      10.292  -3.202  -5.636  1.00  0.00     0.038 A 
HETATM    3  C3  UNL     1      10.097  -2.009  -6.317  1.00  0.00     0.065 A 
HETATM    4  C4  UNL     1      10.843  -1.712  -7.452  1.00  0.00     0.038 A 
HETATM    5  C5  UNL     1      11.809  -2.620  -7.895  1.00  0.00     0.026 A 
HETATM    6  C6  UNL     1      12.062  -3.800  -7.188  1.00  0.00     0.005 A 
ENDROOT
BRANCH   6   7
HETATM    7  N1  UNL     1      12.945  -4.755  -7.703  1.00  0.00    -0.303 NA
HETATM    8  H5  UNL     1      12.939  -5.633  -7.193  1.00  0.00     0.124 HD
HETATM    9  H6  UNL     1      13.884  -4.405  -7.859  1.00  0.00     0.124 HD
ENDBRANCH   6   7
BRANCH   3  10
HETATM   10  O1  UNL     1       9.143  -1.156  -5.850  1.00  0.00    -0.361 OA
HETATM   11  H7  UNL     1       9.436  -0.245  -6.012  1.00  0.00     0.217 HD
ENDBRANCH   3  10
TORSDOF 2
ENDMDL
MODEL 12
REMARK VINA RESULT:      -3.9     15.287     16.028
REMARK  2 active torsions:
REMARK  status: ('A' for Active; 'I' for Inactive)
REMARK    1  A    between atoms: C3_3  and  O1_8 
REMARK    2  A    between atoms: C6_6  and  N1_7 
ROOT
HETATM    1  C1  UNL     1      10.358  -1.295  -9.836  1.00  0.00     0.026 A 
HETATM    2  C2  UNL     1      10.005  -1.964 -11.010  1.00  0.00     0.038 A 
HETATM    3  C3  UNL     1      10.456  -3.258 -11.226  1.00  0.00     0.065 A 
HETATM    4  C4  UNL     1      11.243  -3.901 -10.277  1.00  0.00     0.038 A 
HETATM    5  C5  UNL     1      11.594  -3.225  -9.105  1.00  0.00     0.026 A 
HETATM    6  C6  UNL     1      11.198  -1.900  -8.896  1.00  0.00     0.005 A 
ENDROOT
BRANCH   6   7
HETATM    7  N1  UNL     1      11.452  -1.273  -7.670  1.00  0.00    -0.303 NA
HETATM    8  H5  UNL     1      12.245  -1.663  -7.170  1.00  0.00     0.124 HD
HETATM    9  H6  UNL     1      10.632  -1.177  -7.081  1.00  0.00     0.124 HD
ENDBRANCH   6   7
BRANCH   3  10
HETATM   10  O1  UNL     1      10.087  -3.878 -12.382  1.00  0.00    -0.361 OA
HETATM   11  H7  UNL     1       9.409  -3.339 -12.820  1.00  0.00     0.217 HD
ENDBRANCH   3  10
TORSDOF 2
ENDMDL
MODEL 13
REMARK VINA RESULT:      -3.8     15.231     15.849
REMARK  2 active torsions:
REMARK  status: ('A' for Active; 'I' for Inactive)
REMARK    1  A    between atoms: C3_3  and  O1_8 
REMARK    2  A    between atoms: C6_6  and  N1_7 
ROOT
HETATM    1  C1  UNL     1       8.835  -2.735  -8.763  1.00  0.00     0.026 A 
HETATM    2  C2  UNL     1       9.093  -2.300  -7.461  1.00  0.00     0.038 A 
HETATM    3  C3  UNL     1      10.367  -1.867  -7.120  1.00  0.00     0.065 A 
HETATM    4  C4  UNL     1      11.385  -1.848  -8.068  1.00  0.00     0.038 A 
HETATM    5  C5  UNL     1      11.119  -2.287  -9.368  1.00  0.00     0.026 A 
HETATM    6  C6  UNL     1       9.857  -2.781  -9.715  1.00  0.00     0.005 A 
ENDROOT
BRANCH   6   7
HETATM    7  N1  UNL     1       9.569  -3.105 -11.045  1.00  0.00    -0.303 NA
HETATM    8  H5  UNL     1       9.553  -2.302 -11.666  1.00  0.00     0.124 HD
HETATM    9  H6  UNL     1       8.751  -3.695 -11.156  1.00  0.00     0.124 HD
ENDBRANCH   6   7
BRANCH   3  10
HETATM   10  O1  UNL     1      10.578  -1.448  -5.841  1.00  0.00    -0.361 OA
HETATM   11  H7  UNL     1      11.248  -0.746  -5.852  1.00  0.00     0.217 HD
ENDBRANCH   3  10
TORSDOF 2
ENDMDL
MODEL 14
REMARK VINA RESULT:      -3.8     15.345     16.154
REMARK  2 active torsions:
REMARK  status: ('A' for Active; 'I' for Inactive)
REMARK    1  A    between atoms: C3_3  and  O1_8 
REMARK    2  A    between atoms: C6_6  and  N1_7 
ROOT
HETATM    1  C1  UNL     1      12.014  -2.830  -9.458  1.00  0.00     0.026 A 
HETATM    2  C2  UNL     1      11.593  -3.539 -10.585  1.00  0.00     0.038 A 
HETATM    3  C3  UNL     1      10.258  -3.499 -10.964  1.00  0.00     0.065 A 
HETATM    4  C4  UNL     1       9.339  -2.747 -10.241  1.00  0.00     0.038 A 
HETATM    5  C5  UNL     1       9.768  -2.041  -9.113  1.00  0.00     0.026 A 
HETATM    6  C6  UNL     1      11.096  -2.116  -8.682  1.00  0.00     0.005 A 
ENDROOT
BRANCH   6   7
HETATM    7  N1  UNL     1      11.540  -1.313  -7.625  1.00  0.00    -0.303 NA
HETATM    8  H5  UNL     1      11.950  -0.434  -7.925  1.00  0.00     0.124 HD
HETATM    9  H6  UNL     1      12.124  -1.802  -6.955  1.00  0.00     0.124 HD
ENDBRANCH   6   7
BRANCH   3  10
HETATM   10  O1  UNL     1       9.888  -4.202 -12.071  1.00  0.00    -0.361 OA
HETATM   11  H7  UNL     1       9.231  -3.683 -12.562  1.00  0.00     0.217 HD
ENDBRANCH   3  10
TORSDOF 2
ENDMDL
MODEL 15
REMARK VINA RESULT:      -3.8     16.428     17.053
REMARK  2 active torsions:
REMARK  status: ('A' for Active; 'I' for Inactive)
REMARK    1  A    between atoms: C3_3  and  O1_8 
REMARK    2  A    between atoms: C6_6  and  N1_7 
ROOT
HETATM    1  C1  UNL     1       9.136  -3.907  -6.436  1.00  0.00     0.026 A 
HETATM    2  C2  UNL     1      10.421  -4.192  -5.968  1.00  0.00     0.038 A 
HETATM    3  C3  UNL     1      11.495  -3.427  -6.399  1.00  0.00     0.065 A 
HETATM    4  C4  UNL     1      11.303  -2.369  -7.281  1.00  0.00     0.038 A 
HETATM    5  C5  UNL     1      10.015  -2.091  -7.747  1.00  0.00     0.026 A 
HETATM    6  C6  UNL     1       8.928  -2.887  -7.370  1.00  0.00     0.005 A 
ENDROOT
BRANCH   6   7
HETATM    7  N1  UNL     1       7.629  -2.529  -7.746  1.00  0.00    -0.303 NA
HETATM    8  H5  UNL     1       7.448  -1.531  -7.690  1.00  0.00     0.124 HD
HETATM    9  H6  UNL     1       6.905  -3.078  -7.295  1.00  0.00     0.124 HD
ENDBRANCH   6   7
BRANCH   3  10
HETATM   10  O1  UNL     1      12.732  -3.735  -5.916  1.00  0.00    -0.361 OA
HETATM   11  H7  UNL     1      13.218  -2.909  -5.762  1.00  0.00     0.217 HD
ENDBRANCH   3  10
TORSDOF 2
ENDMDL
MODEL 16
REMARK VINA RESULT:      -3.6     14.063     14.778
REMARK  2 active torsions:
REMARK  status: ('A' for Active; 'I' for Inactive)
REMARK    1  A    between atoms: C3_3  and  O1_8 
REMARK    2  A    between atoms: C6_6  and  N1_7 
ROOT
HETATM    1  C1  UNL     1      10.138  -3.052  -9.046  1.00  0.00     0.026 A 
HETATM    2  C2  UNL     1       9.639  -2.639  -7.808  1.00  0.00     0.038 A 
HETATM    3  C3  UNL     1       8.394  -2.030  -7.737  1.00  0.00     0.065 A 
HETATM    4  C4  UNL     1       7.632  -1.842  -8.884  1.00  0.00     0.038 A 
HETATM    5  C5  UNL     1       8.138  -2.257 -10.120  1.00  0.00     0.026 A 
HETATM    6  C6  UNL     1       9.415  -2.819 -10.219  1.00  0.00     0.005 A 
ENDROOT
BRANCH   6   7
HETATM    7  N1  UNL     1       9.863  -3.338 -11.439  1.00  0.00    -0.303 NA
HETATM    8  H5  UNL     1      10.377  -2.669 -12.003  1.00  0.00     0.124 HD
HETATM    9  H6  UNL     1       9.144  -3.819 -11.969  1.00  0.00     0.124 HD
ENDBRANCH   6   7
BRANCH   3  10
HETATM   10  O1  UNL     1       7.942  -1.644  -6.511  1.00  0.00    -0.361 OA
HETATM   11  H7  UNL     1       7.587  -2.422  -6.052  1.00  0.00     0.217 HD
ENDBRANCH   3  10
TORSDOF 2
ENDMDL
MODEL 17
REMARK VINA RESULT:      -3.6     16.444     17.128
REMARK  2 active torsions:
REMARK  status: ('A' for Active; 'I' for Inactive)
REMARK    1  A    between atoms: C3_3  and  O1_8 
REMARK    2  A    between atoms: C6_6  and  N1_7 
ROOT
HETATM    1  C1  UNL     1      10.031  -2.084  -8.364  1.00  0.00     0.026 A 
HETATM    2  C2  UNL     1      10.418  -2.919  -9.415  1.00  0.00     0.038 A 
HETATM    3  C3  UNL     1      11.527  -3.740  -9.269  1.00  0.00     0.065 A 
HETATM    4  C4  UNL     1      12.248  -3.750  -8.080  1.00  0.00     0.038 A 
HETATM    5  C5  UNL     1      11.856  -2.910  -7.033  1.00  0.00     0.026 A 
HETATM    6  C6  UNL     1      10.777  -2.034  -7.182  1.00  0.00     0.005 A 
ENDROOT
BRANCH   6   7
HETATM    7  N1  UNL     1      10.320  -1.286  -6.091  1.00  0.00    -0.303 NA
HETATM    8  H5  UNL     1       9.428  -0.829  -6.255  1.00  0.00     0.124 HD
HETATM    9  H6  UNL     1      11.014  -0.653  -5.708  1.00  0.00     0.124 HD
ENDBRANCH   6   7
BRANCH   3  10
HETATM   10  O1  UNL     1      11.870  -4.542 -10.316  1.00  0.00    -0.361 OA
HETATM   11  H7  UNL     1      12.838  -4.603 -10.354  1.00  0.00     0.217 HD
ENDBRANCH   3  10
TORSDOF 2
ENDMDL
MODEL 18
REMARK VINA RESULT:      -3.6     15.012     15.617
REMARK  2 active torsions:
REMARK  status: ('A' for Active; 'I' for Inactive)
REMARK    1  A    between atoms: C3_3  and  O1_8 
REMARK    2  A    between atoms: C6_6  and  N1_7 
ROOT
HETATM    1  C1  UNL     1       8.771  -2.484  -7.351  1.00  0.00     0.026 A 
HETATM    2  C2  UNL     1       8.484  -2.273  -8.702  1.00  0.00     0.038 A 
HETATM    3  C3  UNL     1       9.471  -1.786  -9.547  1.00  0.00     0.065 A 
HETATM    4  C4  UNL     1      10.748  -1.523  -9.065  1.00  0.00     0.038 A 
HETATM    5  C5  UNL     1      11.028  -1.736  -7.712  1.00  0.00     0.026 A 
HETATM    6  C6  UNL     1      10.031  -2.169  -6.833  1.00  0.00     0.005 A 
ENDROOT
BRANCH   6   7
HETATM    7  N1  UNL     1      10.350  -2.493  -5.509  1.00  0.00    -0.303 NA
HETATM    8  H5  UNL     1      10.351  -3.490  -5.322  1.00  0.00     0.124 HD
HETATM    9  H6  UNL     1       9.820  -1.970  -4.820  1.00  0.00     0.124 HD
ENDBRANCH   6   7
BRANCH   3  10
HETATM   10  O1  UNL     1       9.152  -1.596 -10.858  1.00  0.00    -0.361 OA
HETATM   11  H7  UNL     1       9.684  -2.203 -11.397  1.00  0.00     0.217 HD
ENDBRANCH   3  10
TORSDOF 2
ENDMDL
MODEL 19
REMARK VINA RESULT:      -3.5     16.934     17.573
REMARK  2 active torsions:
REMARK  status: ('A' for Active; 'I' for Inactive)
REMARK    1  A    between atoms: C3_3  and  O1_8 
REMARK    2  A    between atoms: C6_6  and  N1_7 
ROOT
HETATM    1  C1  UNL     1      11.786  -3.239  -6.555  1.00  0.00     0.026 A 
HETATM    2  C2  UNL     1      10.840  -2.232  -6.758  1.00  0.00     0.038 A 
HETATM    3  C3  UNL     1       9.491  -2.512  -6.592  1.00  0.00     0.065 A 
HETATM    4  C4  UNL     1       9.074  -3.782  -6.209  1.00  0.00     0.038 A 
HETATM    5  C5  UNL     1      10.026  -4.785  -6.009  1.00  0.00     0.026 A 
HETATM    6  C6  UNL     1      11.385  -4.538  -6.228  1.00  0.00     0.005 A 
ENDROOT
BRANCH   6   7
HETATM    7  N1  UNL     1      12.339  -5.512  -5.911  1.00  0.00    -0.303 NA
HETATM    8  H5  UNL     1      13.295  -5.218  -6.083  1.00  0.00     0.124 HD
HETATM    9  H6  UNL     1      12.139  -6.426  -6.304  1.00  0.00     0.124 HD
ENDBRANCH   6   7
BRANCH   3  10
HETATM   10  O1  UNL     1       8.600  -1.502  -6.796  1.00  0.00    -0.361 OA
HETATM   11  H7  UNL     1       9.092  -0.684  -6.967  1.00  0.00     0.217 HD
ENDBRANCH   3  10
TORSDOF 2
ENDMDL
MODEL 20
REMARK VINA RESULT:      -3.3     16.771     17.393
REMARK  2 active torsions:
REMARK  status: ('A' for Active; 'I' for Inactive)
REMARK    1  A    between atoms: C3_3  and  O1_8 
REMARK    2  A    between atoms: C6_6  and  N1_7 
ROOT
HETATM    1  C1  UNL     1       9.703  -2.362  -6.961  1.00  0.00     0.026 A 
HETATM    2  C2  UNL     1      10.453  -3.060  -6.012  1.00  0.00     0.038 A 
HETATM    3  C3  UNL     1      11.781  -3.367  -6.275  1.00  0.00     0.065 A 
HETATM    4  C4  UNL     1      12.376  -2.972  -7.468  1.00  0.00     0.038 A 
HETATM    5  C5  UNL     1      11.619  -2.274  -8.414  1.00  0.00     0.026 A 
HETATM    6  C6  UNL     1      10.264  -2.007  -8.192  1.00  0.00     0.005 A 
ENDROOT
BRANCH   6   7
HETATM    7  N1  UNL     1       9.548  -1.206  -9.089  1.00  0.00    -0.303 NA
HETATM    8  H5  UNL     1       9.760  -1.396 -10.064  1.00  0.00     0.124 HD
HETATM    9  H6  UNL     1       9.582  -0.216  -8.872  1.00  0.00     0.124 HD
ENDBRANCH   6   7
BRANCH   3  10
HETATM   10  O1  UNL     1      12.479  -4.047  -5.323  1.00  0.00    -0.361 OA
HETATM   11  H7  UNL     1      12.423  -3.556  -4.488  1.00  0.00     0.217 HD
ENDBRANCH   3  10
TORSDOF 2
ENDMDL
