HETATM    1  C1  UNL     1      -5.290  -4.113  -2.369  1.00  0.00     0.026 A 
HETATM    2  C2  UNL     1      -6.406  -4.940  -2.226  1.00  0.00     0.038 A 
HETATM    3  C3  UNL     1      -6.492  -6.114  -2.960  1.00  0.00     0.065 A 
HETATM    4  C4  UNL     1      -5.468  -6.483  -3.826  1.00  0.00     0.038 A 
HETATM    5  C5  UNL     1      -4.354  -5.650  -3.966  1.00  0.00     0.026 A 
HETATM    6  C6  UNL     1      -4.277  -4.434  -3.278  1.00  0.00     0.005 A 
HETATM    7  N1  UNL     1      -3.108  -3.667  -3.333  1.00  0.00    -0.303 NA
HETATM    8  H5  UNL     1      -3.252  -2.730  -3.697  1.00  0.00     0.124 HD
HETATM    9  H6  UNL     1      -2.328  -4.138  -3.777  1.00  0.00     0.124 HD
HETATM   10  O1  UNL     1      -7.595  -6.895  -2.790  1.00  0.00    -0.361 OA
HETATM   11  H7  UNL     1      -7.968  -7.099  -3.663  1.00  0.00     0.217 HD
HETATM    1  C1  UNL     1      -4.371  -5.656  -3.978  1.00  0.00     0.026 A 
HETATM    2  C2  UNL     1      -5.495  -6.471  -3.830  1.00  0.00     0.038 A 
HETATM    3  C3  UNL     1      -6.504  -6.100  -2.952  1.00  0.00     0.065 A 
HETATM    4  C4  UNL     1      -6.413  -4.916  -2.229  1.00  0.00     0.038 A 
HETATM    5  C5  UNL     1      -5.284  -4.105  -2.381  1.00  0.00     0.026 A 
HETATM    6  C6  UNL     1      -4.231  -4.491  -3.216  1.00  0.00     0.005 A 
HETATM    7  N1  UNL     1      -3.162  -3.619  -3.452  1.00  0.00    -0.303 NA
HETATM    8  H5  UNL     1      -2.355  -3.794  -2.862  1.00  0.00     0.124 HD
HETATM    9  H6  UNL     1      -3.427  -2.640  -3.464  1.00  0.00     0.124 HD
HETATM   10  O1  UNL     1      -7.585  -6.921  -2.839  1.00  0.00    -0.361 OA
HETATM   11  H7  UNL     1      -8.241  -6.663  -3.506  1.00  0.00     0.217 HD
HETATM    1  C1  UNL     1      -5.508  -6.494  -3.688  1.00  0.00     0.026 A 
HETATM    2  C2  UNL     1      -4.442  -5.630  -3.950  1.00  0.00     0.038 A 
HETATM    3  C3  UNL     1      -4.373  -4.406  -3.300  1.00  0.00     0.065 A 
HETATM    4  C4  UNL     1      -5.346  -4.039  -2.377  1.00  0.00     0.038 A 
HETATM    5  C5  UNL     1      -6.411  -4.908  -2.121  1.00  0.00     0.026 A 
HETATM    6  C6  UNL     1      -6.529  -6.120  -2.809  1.00  0.00     0.005 A 
HETATM    7  N1  UNL     1      -7.530  -7.033  -2.461  1.00  0.00    -0.303 NA
HETATM    8  H5  UNL     1      -7.817  -7.636  -3.226  1.00  0.00     0.124 HD
HETATM    9  H6  UNL     1      -8.320  -6.614  -1.982  1.00  0.00     0.124 HD
HETATM   10  O1  UNL     1      -3.316  -3.593  -3.581  1.00  0.00    -0.361 OA
HETATM   11  H7  UNL     1      -2.533  -3.931  -3.118  1.00  0.00     0.217 HD
HETATM    1  C1  UNL     1      -6.608  -5.971  -2.850  1.00  0.00     0.026 A 
HETATM    2  C2  UNL     1      -5.708  -6.521  -3.766  1.00  0.00     0.038 A 
HETATM    3  C3  UNL     1      -4.513  -5.869  -4.033  1.00  0.00     0.065 A 
HETATM    4  C4  UNL     1      -4.195  -4.680  -3.384  1.00  0.00     0.038 A 
HETATM    5  C5  UNL     1      -5.101  -4.135  -2.470  1.00  0.00     0.026 A 
HETATM    6  C6  UNL     1      -6.336  -4.747  -2.231  1.00  0.00     0.005 A 
HETATM    7  N1  UNL     1      -7.182  -4.260  -1.229  1.00  0.00    -0.303 NA
HETATM    8  H5  UNL     1      -7.154  -4.803  -0.372  1.00  0.00     0.124 HD
HETATM    9  H6  UNL     1      -8.130  -4.082  -1.543  1.00  0.00     0.124 HD
HETATM   10  O1  UNL     1      -3.661  -6.439  -4.930  1.00  0.00    -0.361 OA
HETATM   11  H7  UNL     1      -2.930  -6.852  -4.444  1.00  0.00     0.217 HD
HETATM    1  C1  UNL     1     -11.102  -1.187  -1.582  1.00  0.00     0.026 A 
HETATM    2  C2  UNL     1     -11.870  -1.969  -0.715  1.00  0.00     0.038 A 
HETATM    3  C3  UNL     1     -11.240  -2.789   0.210  1.00  0.00     0.065 A 
HETATM    4  C4  UNL     1      -9.853  -2.828   0.294  1.00  0.00     0.038 A 
HETATM    5  C5  UNL     1      -9.091  -2.044  -0.578  1.00  0.00     0.026 A 
HETATM    6  C6  UNL     1      -9.706  -1.256  -1.557  1.00  0.00     0.005 A 
HETATM    7  N1  UNL     1      -8.942  -0.386  -2.343  1.00  0.00    -0.303 NA
HETATM    8  H5  UNL     1      -9.424   0.474  -2.585  1.00  0.00     0.124 HD
HETATM    9  H6  UNL     1      -8.516  -0.830  -3.150  1.00  0.00     0.124 HD
HETATM   10  O1  UNL     1     -12.024  -3.534   1.040  1.00  0.00    -0.361 OA
HETATM   11  H7  UNL     1     -11.612  -4.405   1.155  1.00  0.00     0.217 HD
HETATM    1  C1  UNL     1     -12.279  -2.116  -0.809  1.00  0.00     0.026 A 
HETATM    2  C2  UNL     1     -11.542  -1.362  -1.725  1.00  0.00     0.038 A 
HETATM    3  C3  UNL     1     -10.156  -1.361  -1.657  1.00  0.00     0.065 A 
HETATM    4  C4  UNL     1      -9.494  -2.117  -0.696  1.00  0.00     0.038 A 
HETATM    5  C5  UNL     1     -10.239  -2.869   0.218  1.00  0.00     0.026 A 
HETATM    6  C6  UNL     1     -11.637  -2.836   0.202  1.00  0.00     0.005 A 
HETATM    7  N1  UNL     1     -12.371  -3.682   1.042  1.00  0.00    -0.303 NA
HETATM    8  H5  UNL     1     -12.117  -4.661   0.957  1.00  0.00     0.124 HD
HETATM    9  H6  UNL     1     -13.374  -3.538   0.994  1.00  0.00     0.124 HD
HETATM   10  O1  UNL     1      -9.472  -0.615  -2.569  1.00  0.00    -0.361 OA
HETATM   11  H7  UNL     1     -10.020   0.147  -2.819  1.00  0.00     0.217 HD
HETATM    1  C1  UNL     1      -8.173  -3.036   0.119  1.00  0.00     0.026 A 
HETATM    2  C2  UNL     1      -8.654  -1.875  -0.490  1.00  0.00     0.038 A 
HETATM    3  C3  UNL     1      -9.932  -1.860  -1.029  1.00  0.00     0.065 A 
HETATM    4  C4  UNL     1     -10.745  -2.986  -0.955  1.00  0.00     0.038 A 
HETATM    5  C5  UNL     1     -10.256  -4.145  -0.346  1.00  0.00     0.026 A 
HETATM    6  C6  UNL     1      -8.950  -4.198   0.152  1.00  0.00     0.005 A 
HETATM    7  N1  UNL     1      -8.511  -5.320   0.864  1.00  0.00    -0.303 NA
HETATM    8  H5  UNL     1      -7.538  -5.267   1.150  1.00  0.00     0.124 HD
HETATM    9  H6  UNL     1      -8.736  -6.203   0.418  1.00  0.00     0.124 HD
HETATM   10  O1  UNL     1     -10.366  -0.708  -1.612  1.00  0.00    -0.361 OA
HETATM   11  H7  UNL     1     -10.418  -0.846  -2.571  1.00  0.00     0.217 HD
HETATM    1  C1  UNL     1      -8.767  -1.406  -1.113  1.00  0.00     0.026 A 
HETATM    2  C2  UNL     1      -9.920  -0.799  -1.616  1.00  0.00     0.038 A 
HETATM    3  C3  UNL     1     -11.168  -1.266  -1.228  1.00  0.00     0.065 A 
HETATM    4  C4  UNL     1     -11.281  -2.322  -0.331  1.00  0.00     0.038 A 
HETATM    5  C5  UNL     1     -10.122  -2.926   0.167  1.00  0.00     0.026 A 
HETATM    6  C6  UNL     1      -8.857  -2.508  -0.257  1.00  0.00     0.005 A 
HETATM    7  N1  UNL     1      -7.705  -3.036   0.336  1.00  0.00    -0.303 NA
HETATM    8  H5  UNL     1      -7.884  -3.537   1.200  1.00  0.00     0.124 HD
HETATM    9  H6  UNL     1      -6.946  -2.368   0.427  1.00  0.00     0.124 HD
HETATM   10  O1  UNL     1     -12.269  -0.646  -1.738  1.00  0.00    -0.361 OA
HETATM   11  H7  UNL     1     -12.846  -1.317  -2.136  1.00  0.00     0.217 HD
HETATM    1  C1  UNL     1     -10.092  -2.926   0.202  1.00  0.00     0.026 A 
HETATM    2  C2  UNL     1     -11.235  -2.329  -0.336  1.00  0.00     0.038 A 
HETATM    3  C3  UNL     1     -11.105  -1.278  -1.232  1.00  0.00     0.065 A 
HETATM    4  C4  UNL     1      -9.847  -0.823  -1.613  1.00  0.00     0.038 A 
HETATM    5  C5  UNL     1      -8.708  -1.424  -1.069  1.00  0.00     0.026 A 
HETATM    6  C6  UNL     1      -8.819  -2.445  -0.120  1.00  0.00     0.005 A 
HETATM    7  N1  UNL     1      -7.677  -3.120   0.326  1.00  0.00    -0.303 NA
HETATM    8  H5  UNL     1      -7.642  -3.240   1.334  1.00  0.00     0.124 HD
HETATM    9  H6  UNL     1      -6.810  -2.751  -0.049  1.00  0.00     0.124 HD
HETATM   10  O1  UNL     1     -12.244  -0.724  -1.736  1.00  0.00    -0.361 OA
HETATM   11  H7  UNL     1     -12.639  -1.348  -2.366  1.00  0.00     0.217 HD
HETATM    1  C1  UNL     1     -10.294  -4.114  -0.343  1.00  0.00     0.026 A 
HETATM    2  C2  UNL     1     -10.773  -2.969  -0.983  1.00  0.00     0.038 A 
HETATM    3  C3  UNL     1      -9.967  -1.843  -1.074  1.00  0.00     0.065 A 
HETATM    4  C4  UNL     1      -8.680  -1.849  -0.547  1.00  0.00     0.038 A 
HETATM    5  C5  UNL     1      -8.208  -2.998   0.094  1.00  0.00     0.026 A 
HETATM    6  C6  UNL     1      -9.026  -4.122   0.247  1.00  0.00     0.005 A 
HETATM    7  N1  UNL     1      -8.505  -5.306   0.782  1.00  0.00    -0.303 NA
HETATM    8  H5  UNL     1      -9.101  -5.733   1.484  1.00  0.00     0.124 HD
HETATM    9  H6  UNL     1      -7.541  -5.228   1.089  1.00  0.00     0.124 HD
HETATM   10  O1  UNL     1     -10.470  -0.747  -1.709  1.00  0.00    -0.361 OA
HETATM   11  H7  UNL     1     -11.406  -0.653  -1.470  1.00  0.00     0.217 HD
HETATM    1  C1  UNL     1     -11.063  -3.035   0.309  1.00  0.00     0.026 A 
HETATM    2  C2  UNL     1     -10.420  -2.243  -0.645  1.00  0.00     0.038 A 
HETATM    3  C3  UNL     1     -11.173  -1.539  -1.574  1.00  0.00     0.065 A 
HETATM    4  C4  UNL     1     -12.562  -1.601  -1.553  1.00  0.00     0.038 A 
HETATM    5  C5  UNL     1     -13.198  -2.397  -0.595  1.00  0.00     0.026 A 
HETATM    6  C6  UNL     1     -12.455  -3.160   0.311  1.00  0.00     0.005 A 
HETATM    7  N1  UNL     1     -13.100  -3.857   1.340  1.00  0.00    -0.303 NA
HETATM    8  H5  UNL     1     -13.698  -3.273   1.916  1.00  0.00     0.124 HD
HETATM    9  H6  UNL     1     -12.479  -4.439   1.892  1.00  0.00     0.124 HD
HETATM   10  O1  UNL     1     -10.509  -0.776  -2.487  1.00  0.00    -0.361 OA
HETATM   11  H7  UNL     1      -9.775  -0.326  -2.040  1.00  0.00     0.217 HD
HETATM    1  C1  UNL     1     -10.807  -2.896  -0.943  1.00  0.00     0.026 A 
HETATM    2  C2  UNL     1     -10.325  -4.022  -0.272  1.00  0.00     0.038 A 
HETATM    3  C3  UNL     1      -9.038  -4.015   0.247  1.00  0.00     0.065 A 
HETATM    4  C4  UNL     1      -8.230  -2.891   0.120  1.00  0.00     0.038 A 
HETATM    5  C5  UNL     1      -8.719  -1.768  -0.554  1.00  0.00     0.026 A 
HETATM    6  C6  UNL     1      -9.991  -1.777  -1.135  1.00  0.00     0.005 A 
HETATM    7  N1  UNL     1     -10.516  -0.610  -1.701  1.00  0.00    -0.303 NA
HETATM    8  H5  UNL     1      -9.872   0.175  -1.687  1.00  0.00     0.124 HD
HETATM    9  H6  UNL     1     -11.435  -0.362  -1.353  1.00  0.00     0.124 HD
HETATM   10  O1  UNL     1      -8.606  -5.132   0.896  1.00  0.00    -0.361 OA
HETATM   11  H7  UNL     1      -8.746  -5.900   0.319  1.00  0.00     0.217 HD
HETATM    1  C1  UNL     1      -7.977  -4.276  -2.199  1.00  0.00     0.026 A 
HETATM    2  C2  UNL     1      -8.063  -5.158  -1.120  1.00  0.00     0.038 A 
HETATM    3  C3  UNL     1      -8.420  -4.680   0.133  1.00  0.00     0.065 A 
HETATM    4  C4  UNL     1      -8.709  -3.333   0.321  1.00  0.00     0.038 A 
HETATM    5  C5  UNL     1      -8.619  -2.455  -0.764  1.00  0.00     0.026 A 
HETATM    6  C6  UNL     1      -8.204  -2.908  -2.020  1.00  0.00     0.005 A 
HETATM    7  N1  UNL     1      -8.232  -2.047  -3.124  1.00  0.00    -0.303 NA
HETATM    8  H5  UNL     1      -7.500  -1.344  -3.112  1.00  0.00     0.124 HD
HETATM    9  H6  UNL     1      -9.146  -1.649  -3.310  1.00  0.00     0.124 HD
HETATM   10  O1  UNL     1      -8.496  -5.574   1.159  1.00  0.00    -0.361 OA
HETATM   11  H7  UNL     1      -9.380  -5.515   1.556  1.00  0.00     0.217 HD
HETATM    1  C1  UNL     1      -6.060  -4.307  -1.996  1.00  0.00     0.026 A 
HETATM    2  C2  UNL     1      -5.052  -4.465  -2.949  1.00  0.00     0.038 A 
HETATM    3  C3  UNL     1      -5.225  -3.951  -4.226  1.00  0.00     0.065 A 
HETATM    4  C4  UNL     1      -6.388  -3.266  -4.561  1.00  0.00     0.038 A 
HETATM    5  C5  UNL     1      -7.394  -3.113  -3.603  1.00  0.00     0.026 A 
HETATM    6  C6  UNL     1      -7.262  -3.674  -2.329  1.00  0.00     0.005 A 
HETATM    7  N1  UNL     1      -8.219  -3.414  -1.341  1.00  0.00    -0.303 NA
HETATM    8  H5  UNL     1      -8.672  -4.249  -0.983  1.00  0.00     0.124 HD
HETATM    9  H6  UNL     1      -8.885  -2.692  -1.595  1.00  0.00     0.124 HD
HETATM   10  O1  UNL     1      -4.217  -4.124  -5.126  1.00  0.00    -0.361 OA
HETATM   11  H7  UNL     1      -3.560  -4.727  -4.744  1.00  0.00     0.217 HD
HETATM    1  C1  UNL     1      -8.387  -2.317  -2.336  1.00  0.00     0.026 A 
HETATM    2  C2  UNL     1      -9.201  -2.272  -1.202  1.00  0.00     0.038 A 
HETATM    3  C3  UNL     1      -8.949  -3.130  -0.141  1.00  0.00     0.065 A 
HETATM    4  C4  UNL     1      -7.884  -4.023  -0.190  1.00  0.00     0.038 A 
HETATM    5  C5  UNL     1      -7.075  -4.063  -1.329  1.00  0.00     0.026 A 
HETATM    6  C6  UNL     1      -7.349  -3.248  -2.432  1.00  0.00     0.005 A 
HETATM    7  N1  UNL     1      -6.465  -3.210  -3.517  1.00  0.00    -0.303 NA
HETATM    8  H5  UNL     1      -6.779  -2.616  -4.278  1.00  0.00     0.124 HD
HETATM    9  H6  UNL     1      -6.170  -4.126  -3.838  1.00  0.00     0.124 HD
HETATM   10  O1  UNL     1      -9.763  -3.053   0.949  1.00  0.00    -0.361 OA
HETATM   11  H7  UNL     1     -10.329  -2.270   0.859  1.00  0.00     0.217 HD
HETATM    1  C1  UNL     1      -8.977  -1.524  -1.136  1.00  0.00     0.026 A 
HETATM    2  C2  UNL     1      -8.821  -0.298  -1.787  1.00  0.00     0.038 A 
HETATM    3  C3  UNL     1      -8.253  -0.259  -3.052  1.00  0.00     0.065 A 
HETATM    4  C4  UNL     1      -7.853  -1.430  -3.686  1.00  0.00     0.038 A 
HETATM    5  C5  UNL     1      -8.012  -2.654  -3.028  1.00  0.00     0.026 A 
HETATM    6  C6  UNL     1      -8.527  -2.708  -1.729  1.00  0.00     0.005 A 
HETATM    7  N1  UNL     1      -8.792  -3.943  -1.127  1.00  0.00    -0.303 NA
HETATM    8  H5  UNL     1      -9.317  -3.871  -0.261  1.00  0.00     0.124 HD
HETATM    9  H6  UNL     1      -7.976  -4.539  -1.035  1.00  0.00     0.124 HD
HETATM   10  O1  UNL     1      -8.120   0.956  -3.655  1.00  0.00    -0.361 OA
HETATM   11  H7  UNL     1      -7.382   0.911  -4.284  1.00  0.00     0.217 HD
HETATM    1  C1  UNL     1      -7.577  -6.290  -2.379  1.00  0.00     0.026 A 
HETATM    2  C2  UNL     1      -8.490  -6.019  -1.357  1.00  0.00     0.038 A 
HETATM    3  C3  UNL     1      -8.334  -4.880  -0.580  1.00  0.00     0.065 A 
HETATM    4  C4  UNL     1      -7.286  -3.998  -0.819  1.00  0.00     0.038 A 
HETATM    5  C5  UNL     1      -6.375  -4.276  -1.842  1.00  0.00     0.026 A 
HETATM    6  C6  UNL     1      -6.482  -5.449  -2.598  1.00  0.00     0.005 A 
HETATM    7  N1  UNL     1      -5.638  -5.659  -3.694  1.00  0.00    -0.303 NA
HETATM    8  H5  UNL     1      -5.937  -5.177  -4.537  1.00  0.00     0.124 HD
HETATM    9  H6  UNL     1      -5.422  -6.636  -3.864  1.00  0.00     0.124 HD
HETATM   10  O1  UNL     1      -9.247  -4.649   0.405  1.00  0.00    -0.361 OA
HETATM   11  H7  UNL     1      -8.987  -3.848   0.887  1.00  0.00     0.217 HD
HETATM    1  C1  UNL     1      -8.952  -2.927  -0.825  1.00  0.00     0.026 A 
HETATM    2  C2  UNL     1      -8.563  -2.243  -1.979  1.00  0.00     0.038 A 
HETATM    3  C3  UNL     1      -7.541  -2.750  -2.768  1.00  0.00     0.065 A 
HETATM    4  C4  UNL     1      -6.910  -3.942  -2.429  1.00  0.00     0.038 A 
HETATM    5  C5  UNL     1      -7.304  -4.621  -1.273  1.00  0.00     0.026 A 
HETATM    6  C6  UNL     1      -8.292  -4.096  -0.434  1.00  0.00     0.005 A 
HETATM    7  N1  UNL     1      -8.761  -4.840   0.655  1.00  0.00    -0.303 NA
HETATM    8  H5  UNL     1      -8.036  -5.367   1.131  1.00  0.00     0.124 HD
HETATM    9  H6  UNL     1      -9.576  -5.406   0.444  1.00  0.00     0.124 HD
HETATM   10  O1  UNL     1      -7.192  -2.054  -3.887  1.00  0.00    -0.361 OA
HETATM   11  H7  UNL     1      -7.066  -1.123  -3.645  1.00  0.00     0.217 HD
HETATM    1  C1  UNL     1      -9.970  -5.317  -0.427  1.00  0.00     0.026 A 
HETATM    2  C2  UNL     1      -8.636  -4.990  -0.171  1.00  0.00     0.038 A 
HETATM    3  C3  UNL     1      -8.299  -3.686   0.163  1.00  0.00     0.065 A 
HETATM    4  C4  UNL     1      -9.279  -2.705   0.261  1.00  0.00     0.038 A 
HETATM    5  C5  UNL     1     -10.612  -3.038   0.003  1.00  0.00     0.026 A 
HETATM    6  C6  UNL     1     -10.963  -4.333  -0.393  1.00  0.00     0.005 A 
HETATM    7  N1  UNL     1     -12.310  -4.686  -0.533  1.00  0.00    -0.303 NA
HETATM    8  H5  UNL     1     -12.846  -4.034  -1.099  1.00  0.00     0.124 HD
HETATM    9  H6  UNL     1     -12.771  -4.905   0.344  1.00  0.00     0.124 HD
HETATM   10  O1  UNL     1      -6.987  -3.409   0.408  1.00  0.00    -0.361 OA
HETATM   11  H7  UNL     1      -6.506  -4.246   0.500  1.00  0.00     0.217 HD
HETATM    1  C1  UNL     1      -6.875  -5.938  -2.464  1.00  0.00     0.026 A 
HETATM    2  C2  UNL     1      -6.164  -5.097  -3.323  1.00  0.00     0.038 A 
HETATM    3  C3  UNL     1      -6.496  -3.751  -3.397  1.00  0.00     0.065 A 
HETATM    4  C4  UNL     1      -7.520  -3.230  -2.613  1.00  0.00     0.038 A 
HETATM    5  C5  UNL     1      -8.228  -4.079  -1.758  1.00  0.00     0.026 A 
HETATM    6  C6  UNL     1      -7.947  -5.448  -1.712  1.00  0.00     0.005 A 
HETATM    7  N1  UNL     1      -8.578  -6.266  -0.768  1.00  0.00    -0.303 NA
HETATM    8  H5  UNL     1      -9.009  -5.752  -0.006  1.00  0.00     0.124 HD
HETATM    9  H6  UNL     1      -8.002  -7.034  -0.439  1.00  0.00     0.124 HD
HETATM   10  O1  UNL     1      -5.778  -2.962  -4.245  1.00  0.00    -0.361 OA
HETATM   11  H7  UNL     1      -5.660  -3.436  -5.084  1.00  0.00     0.217 HD
