MODEL 1
REMARK VINA RESULT:      -3.7      0.000      0.000
REMARK  2 active torsions:
REMARK  status: ('A' for Active; 'I' for Inactive)
REMARK    1  A    between atoms: C3_3  and  O1_8 
REMARK    2  A    between atoms: C6_6  and  N1_7 
ROOT
HETATM    1  C1  UNL     1       4.122  10.535  -0.765  1.00  0.00     0.026 A 
HETATM    2  C2  UNL     1       5.342  10.832  -1.378  1.00  0.00     0.038 A 
HETATM    3  C3  UNL     1       5.367  11.208  -2.713  1.00  0.00     0.065 A 
HETATM    4  C4  UNL     1       4.187  11.308  -3.443  1.00  0.00     0.038 A 
HETATM    5  C5  UNL     1       2.970  11.008  -2.823  1.00  0.00     0.026 A 
HETATM    6  C6  UNL     1       2.930  10.571  -1.495  1.00  0.00     0.005 A 
ENDROOT
BRANCH   6   7
HETATM    7  N1  UNL     1       1.702  10.389  -0.849  1.00  0.00    -0.303 NA
HETATM    8  H5  UNL     1       0.969  10.038  -1.459  1.00  0.00     0.124 HD
HETATM    9  H6  UNL     1       1.402  11.190  -0.305  1.00  0.00     0.124 HD
ENDBRANCH   6   7
BRANCH   3  10
HETATM   10  O1  UNL     1       6.576  11.492  -3.274  1.00  0.00    -0.361 OA
HETATM   11  H7  UNL     1       6.446  12.156  -3.970  1.00  0.00     0.217 HD
ENDBRANCH   3  10
TORSDOF 2
ENDMDL
MODEL 2
REMARK VINA RESULT:      -3.6      1.410      1.755
REMARK  2 active torsions:
REMARK  status: ('A' for Active; 'I' for Inactive)
REMARK    1  A    between atoms: C3_3  and  O1_8 
REMARK    2  A    between atoms: C6_6  and  N1_7 
ROOT
HETATM    1  C1  UNL     1       3.865  10.629  -2.113  1.00  0.00     0.026 A 
HETATM    2  C2  UNL     1       4.582  11.030  -3.242  1.00  0.00     0.038 A 
HETATM    3  C3  UNL     1       3.953  11.778  -4.227  1.00  0.00     0.065 A 
HETATM    4  C4  UNL     1       2.619  12.145  -4.093  1.00  0.00     0.038 A 
HETATM    5  C5  UNL     1       1.906  11.739  -2.960  1.00  0.00     0.026 A 
HETATM    6  C6  UNL     1       2.507  10.936  -1.985  1.00  0.00     0.005 A 
ENDROOT
BRANCH   6   7
HETATM    7  N1  UNL     1       1.823  10.635  -0.802  1.00  0.00    -0.303 NA
HETATM    8  H5  UNL     1       2.337  10.879   0.039  1.00  0.00     0.124 HD
HETATM    9  H6  UNL     1       1.455   9.690  -0.769  1.00  0.00     0.124 HD
ENDBRANCH   6   7
BRANCH   3  10
HETATM   10  O1  UNL     1       4.688  12.152  -5.311  1.00  0.00    -0.361 OA
HETATM   11  H7  UNL     1       4.296  11.752  -6.104  1.00  0.00     0.217 HD
ENDBRANCH   3  10
TORSDOF 2
ENDMDL
MODEL 3
REMARK VINA RESULT:      -3.6      2.783      3.685
REMARK  2 active torsions:
REMARK  status: ('A' for Active; 'I' for Inactive)
REMARK    1  A    between atoms: C3_3  and  O1_8 
REMARK    2  A    between atoms: C6_6  and  N1_7 
ROOT
HETATM    1  C1  UNL     1       4.060  11.281  -3.324  1.00  0.00     0.026 A 
HETATM    2  C2  UNL     1       2.816  10.967  -2.771  1.00  0.00     0.038 A 
HETATM    3  C3  UNL     1       2.736  10.552  -1.449  1.00  0.00     0.065 A 
HETATM    4  C4  UNL     1       3.881  10.461  -0.665  1.00  0.00     0.038 A 
HETATM    5  C5  UNL     1       5.122  10.775  -1.226  1.00  0.00     0.026 A 
HETATM    6  C6  UNL     1       5.230  11.139  -2.572  1.00  0.00     0.005 A 
ENDROOT
BRANCH   6   7
HETATM    7  N1  UNL     1       6.458  11.566  -3.091  1.00  0.00    -0.303 NA
HETATM    8  H5  UNL     1       7.213  11.554  -2.413  1.00  0.00     0.124 HD
HETATM    9  H6  UNL     1       6.407  12.444  -3.596  1.00  0.00     0.124 HD
ENDBRANCH   6   7
BRANCH   3  10
HETATM   10  O1  UNL     1       1.505  10.258  -0.946  1.00  0.00    -0.361 OA
HETATM   11  H7  UNL     1       1.344   9.307  -1.056  1.00  0.00     0.217 HD
ENDBRANCH   3  10
TORSDOF 2
ENDMDL
MODEL 4
REMARK VINA RESULT:      -3.4      1.467      2.316
REMARK  2 active torsions:
REMARK  status: ('A' for Active; 'I' for Inactive)
REMARK    1  A    between atoms: C3_3  and  O1_8 
REMARK    2  A    between atoms: C6_6  and  N1_7 
ROOT
HETATM    1  C1  UNL     1       1.731  11.770  -2.878  1.00  0.00     0.026 A 
HETATM    2  C2  UNL     1       2.521  12.106  -3.980  1.00  0.00     0.038 A 
HETATM    3  C3  UNL     1       3.820  11.626  -4.066  1.00  0.00     0.065 A 
HETATM    4  C4  UNL     1       4.337  10.799  -3.075  1.00  0.00     0.038 A 
HETATM    5  C5  UNL     1       3.541  10.468  -1.975  1.00  0.00     0.026 A 
HETATM    6  C6  UNL     1       2.250  10.989  -1.841  1.00  0.00     0.005 A 
ENDROOT
BRANCH   6   7
HETATM    7  N1  UNL     1       1.420  10.558  -0.800  1.00  0.00    -0.303 NA
HETATM    8  H5  UNL     1       0.466  10.368  -1.090  1.00  0.00     0.124 HD
HETATM    9  H6  UNL     1       1.462  11.142   0.028  1.00  0.00     0.124 HD
ENDBRANCH   6   7
BRANCH   3  10
HETATM   10  O1  UNL     1       4.558  11.975  -5.158  1.00  0.00    -0.361 OA
HETATM   11  H7  UNL     1       4.509  11.256  -5.807  1.00  0.00     0.217 HD
ENDBRANCH   3  10
TORSDOF 2
ENDMDL
MODEL 5
REMARK VINA RESULT:      -3.4      2.762      3.585
REMARK  2 active torsions:
REMARK  status: ('A' for Active; 'I' for Inactive)
REMARK    1  A    between atoms: C3_3  and  O1_8 
REMARK    2  A    between atoms: C6_6  and  N1_7 
ROOT
HETATM    1  C1  UNL     1       2.658  11.795  -3.658  1.00  0.00     0.026 A 
HETATM    2  C2  UNL     1       2.146  11.332  -2.443  1.00  0.00     0.038 A 
HETATM    3  C3  UNL     1       2.987  10.695  -1.541  1.00  0.00     0.065 A 
HETATM    4  C4  UNL     1       4.337  10.527  -1.829  1.00  0.00     0.038 A 
HETATM    5  C5  UNL     1       4.841  10.992  -3.047  1.00  0.00     0.026 A 
HETATM    6  C6  UNL     1       3.998  11.584  -3.993  1.00  0.00     0.005 A 
ENDROOT
BRANCH   6   7
HETATM    7  N1  UNL     1       4.533  12.152  -5.155  1.00  0.00    -0.303 NA
HETATM    8  H5  UNL     1       3.873  12.201  -5.926  1.00  0.00     0.124 HD
HETATM    9  H6  UNL     1       5.423  11.755  -5.434  1.00  0.00     0.124 HD
ENDBRANCH   6   7
BRANCH   3  10
HETATM   10  O1  UNL     1       2.451  10.260  -0.367  1.00  0.00    -0.361 OA
HETATM   11  H7  UNL     1       1.500  10.455  -0.369  1.00  0.00     0.217 HD
ENDBRANCH   3  10
TORSDOF 2
ENDMDL
MODEL 6
REMARK VINA RESULT:      -3.4      2.967      3.519
REMARK  2 active torsions:
REMARK  status: ('A' for Active; 'I' for Inactive)
REMARK    1  A    between atoms: C3_3  and  O1_8 
REMARK    2  A    between atoms: C6_6  and  N1_7 
ROOT
HETATM    1  C1  UNL     1       4.499  10.904  -3.158  1.00  0.00     0.026 A 
HETATM    2  C2  UNL     1       3.718  10.454  -2.091  1.00  0.00     0.038 A 
HETATM    3  C3  UNL     1       2.396  10.863  -1.986  1.00  0.00     0.065 A 
HETATM    4  C4  UNL     1       1.837  11.705  -2.941  1.00  0.00     0.038 A 
HETATM    5  C5  UNL     1       2.625  12.152  -4.006  1.00  0.00     0.026 A 
HETATM    6  C6  UNL     1       3.975  11.798  -4.097  1.00  0.00     0.005 A 
ENDROOT
BRANCH   6   7
HETATM    7  N1  UNL     1       4.722  12.152  -5.227  1.00  0.00    -0.303 NA
HETATM    8  H5  UNL     1       5.724  12.052  -5.101  1.00  0.00     0.124 HD
HETATM    9  H6  UNL     1       4.470  13.053  -5.619  1.00  0.00     0.124 HD
ENDBRANCH   6   7
BRANCH   3  10
HETATM   10  O1  UNL     1       1.667  10.401  -0.932  1.00  0.00    -0.361 OA
HETATM   11  H7  UNL     1       0.930  11.012  -0.773  1.00  0.00     0.217 HD
ENDBRANCH   3  10
TORSDOF 2
ENDMDL
MODEL 7
REMARK VINA RESULT:      -3.4      2.787      3.270
REMARK  2 active torsions:
REMARK  status: ('A' for Active; 'I' for Inactive)
REMARK    1  A    between atoms: C3_3  and  O1_8 
REMARK    2  A    between atoms: C6_6  and  N1_7 
ROOT
HETATM    1  C1  UNL     1       5.116  10.749  -1.198  1.00  0.00     0.026 A 
HETATM    2  C2  UNL     1       3.867  10.503  -0.624  1.00  0.00     0.038 A 
HETATM    3  C3  UNL     1       2.717  10.650  -1.387  1.00  0.00     0.065 A 
HETATM    4  C4  UNL     1       2.799  11.024  -2.724  1.00  0.00     0.038 A 
HETATM    5  C5  UNL     1       4.052  11.269  -3.292  1.00  0.00     0.026 A 
HETATM    6  C6  UNL     1       5.217  11.184  -2.523  1.00  0.00     0.005 A 
ENDROOT
BRANCH   6   7
HETATM    7  N1  UNL     1       6.472  11.314  -3.129  1.00  0.00    -0.303 NA
HETATM    8  H5  UNL     1       6.612  12.209  -3.588  1.00  0.00     0.124 HD
HETATM    9  H6  UNL     1       6.725  10.531  -3.722  1.00  0.00     0.124 HD
ENDBRANCH   6   7
BRANCH   3  10
HETATM   10  O1  UNL     1       1.518  10.398  -0.791  1.00  0.00    -0.361 OA
HETATM   11  H7  UNL     1       0.992  11.214  -0.796  1.00  0.00     0.217 HD
ENDBRANCH   3  10
TORSDOF 2
ENDMDL
MODEL 8
REMARK VINA RESULT:      -2.4      1.782      2.517
REMARK  2 active torsions:
REMARK  status: ('A' for Active; 'I' for Inactive)
REMARK    1  A    between atoms: C3_3  and  O1_8 
REMARK    2  A    between atoms: C6_6  and  N1_7 
ROOT
HETATM    1  C1  UNL     1       3.530  11.827  -4.021  1.00  0.00     0.026 A 
HETATM    2  C2  UNL     1       4.646  11.337  -3.339  1.00  0.00     0.038 A 
HETATM    3  C3  UNL     1       4.486  10.746  -2.093  1.00  0.00     0.065 A 
HETATM    4  C4  UNL     1       3.222  10.623  -1.525  1.00  0.00     0.038 A 
HETATM    5  C5  UNL     1       2.110  11.117  -2.214  1.00  0.00     0.026 A 
HETATM    6  C6  UNL     1       2.258  11.768  -3.443  1.00  0.00     0.005 A 
ENDROOT
BRANCH   6   7
HETATM    7  N1  UNL     1       1.131  12.152  -4.177  1.00  0.00    -0.303 NA
HETATM    8  H5  UNL     1       1.257  13.015  -4.697  1.00  0.00     0.124 HD
HETATM    9  H6  UNL     1       0.270  12.146  -3.640  1.00  0.00     0.124 HD
ENDBRANCH   6   7
BRANCH   3  10
HETATM   10  O1  UNL     1       5.598  10.278  -1.461  1.00  0.00    -0.361 OA
HETATM   11  H7  UNL     1       5.389  10.146  -0.523  1.00  0.00     0.217 HD
ENDBRANCH   3  10
TORSDOF 2
ENDMDL
MODEL 9
REMARK VINA RESULT:      -1.8     11.242     12.225
REMARK  2 active torsions:
REMARK  status: ('A' for Active; 'I' for Inactive)
REMARK    1  A    between atoms: C3_3  and  O1_8 
REMARK    2  A    between atoms: C6_6  and  N1_7 
ROOT
HETATM    1  C1  UNL     1      16.001   9.326  -7.493  1.00  0.00     0.026 A 
HETATM    2  C2  UNL     1      15.464   9.936  -6.358  1.00  0.00     0.038 A 
HETATM    3  C3  UNL     1      14.162   9.648  -5.972  1.00  0.00     0.065 A 
HETATM    4  C4  UNL     1      13.393   8.744  -6.697  1.00  0.00     0.038 A 
HETATM    5  C5  UNL     1      13.937   8.138  -7.834  1.00  0.00     0.026 A 
HETATM    6  C6  UNL     1      15.226   8.460  -8.271  1.00  0.00     0.005 A 
ENDROOT
BRANCH   6   7
HETATM    7  N1  UNL     1      15.803   7.762  -9.337  1.00  0.00    -0.303 NA
HETATM    8  H5  UNL     1      16.580   8.250  -9.772  1.00  0.00     0.124 HD
HETATM    9  H6  UNL     1      15.131   7.422 -10.017  1.00  0.00     0.124 HD
ENDBRANCH   6   7
BRANCH   3  10
HETATM   10  O1  UNL     1      13.676  10.261  -4.857  1.00  0.00    -0.361 OA
HETATM   11  H7  UNL     1      14.195  11.066  -4.695  1.00  0.00     0.217 HD
ENDBRANCH   3  10
TORSDOF 2
ENDMDL
MODEL 10
REMARK VINA RESULT:      -0.2     11.148     11.938
REMARK  2 active torsions:
REMARK  status: ('A' for Active; 'I' for Inactive)
REMARK    1  A    between atoms: C3_3  and  O1_8 
REMARK    2  A    between atoms: C6_6  and  N1_7 
ROOT
HETATM    1  C1  UNL     1      13.425   8.072  -7.938  1.00  0.00     0.026 A 
HETATM    2  C2  UNL     1      14.225   8.751  -8.860  1.00  0.00     0.038 A 
HETATM    3  C3  UNL     1      15.244   9.577  -8.408  1.00  0.00     0.065 A 
HETATM    4  C4  UNL     1      15.486   9.723  -7.046  1.00  0.00     0.038 A 
HETATM    5  C5  UNL     1      14.680   9.042  -6.130  1.00  0.00     0.026 A 
HETATM    6  C6  UNL     1      13.611   8.251  -6.564  1.00  0.00     0.005 A 
ENDROOT
BRANCH   6   7
HETATM    7  N1  UNL     1      12.887   7.480  -5.648  1.00  0.00    -0.303 NA
HETATM    8  H5  UNL     1      11.881   7.601  -5.718  1.00  0.00     0.124 HD
HETATM    9  H6  UNL     1      13.220   7.558  -4.693  1.00  0.00     0.124 HD
ENDBRANCH   6   7
BRANCH   3  10
HETATM   10  O1  UNL     1      16.005  10.220  -9.338  1.00  0.00    -0.361 OA
HETATM   11  H7  UNL     1      15.951   9.731 -10.174  1.00  0.00     0.217 HD
ENDBRANCH   3  10
TORSDOF 2
ENDMDL
