MODEL 1
REMARK VINA RESULT:      -4.6      0.000      0.000
REMARK  2 active torsions:
REMARK  status: ('A' for Active; 'I' for Inactive)
REMARK    1  A    between atoms: C3_3  and  O1_8 
REMARK    2  A    between atoms: C6_6  and  N1_7 
ROOT
HETATM    1  C1  UNL     1      10.162   5.919  -2.741  1.00  0.00     0.026 A 
HETATM    2  C2  UNL     1       9.734   5.269  -1.582  1.00  0.00     0.038 A 
HETATM    3  C3  UNL     1       8.379   5.049  -1.376  1.00  0.00     0.065 A 
HETATM    4  C4  UNL     1       7.445   5.456  -2.322  1.00  0.00     0.038 A 
HETATM    5  C5  UNL     1       7.880   6.107  -3.480  1.00  0.00     0.026 A 
HETATM    6  C6  UNL     1       9.236   6.390  -3.677  1.00  0.00     0.005 A 
ENDROOT
BRANCH   6   7
HETATM    7  N1  UNL     1       9.673   6.934  -4.890  1.00  0.00    -0.303 NA
HETATM    8  H5  UNL     1      10.343   6.350  -5.381  1.00  0.00     0.124 HD
HETATM    9  H6  UNL     1       9.979   7.898  -4.821  1.00  0.00     0.124 HD
ENDBRANCH   6   7
BRANCH   3  10
HETATM   10  O1  UNL     1       8.002   4.409  -0.234  1.00  0.00    -0.361 OA
HETATM   11  H7  UNL     1       8.704   4.517   0.428  1.00  0.00     0.217 HD
ENDBRANCH   3  10
TORSDOF 2
ENDMDL
MODEL 2
REMARK VINA RESULT:      -4.5      2.776      3.680
REMARK  2 active torsions:
REMARK  status: ('A' for Active; 'I' for Inactive)
REMARK    1  A    between atoms: C3_3  and  O1_8 
REMARK    2  A    between atoms: C6_6  and  N1_7 
ROOT
HETATM    1  C1  UNL     1       7.431   5.399  -2.308  1.00  0.00     0.026 A 
HETATM    2  C2  UNL     1       7.832   6.096  -3.450  1.00  0.00     0.038 A 
HETATM    3  C3  UNL     1       9.179   6.357  -3.658  1.00  0.00     0.065 A 
HETATM    4  C4  UNL     1      10.134   5.917  -2.748  1.00  0.00     0.038 A 
HETATM    5  C5  UNL     1       9.725   5.220  -1.608  1.00  0.00     0.026 A 
HETATM    6  C6  UNL     1       8.368   4.999  -1.351  1.00  0.00     0.005 A 
ENDROOT
BRANCH   6   7
HETATM    7  N1  UNL     1       7.976   4.200  -0.271  1.00  0.00    -0.303 NA
HETATM    8  H5  UNL     1       7.075   4.456   0.120  1.00  0.00     0.124 HD
HETATM    9  H6  UNL     1       8.690   4.093   0.441  1.00  0.00     0.124 HD
ENDBRANCH   6   7
BRANCH   3  10
HETATM   10  O1  UNL     1       9.531   7.038  -4.785  1.00  0.00    -0.361 OA
HETATM   11  H7  UNL     1       9.408   7.987  -4.624  1.00  0.00     0.217 HD
ENDBRANCH   3  10
TORSDOF 2
ENDMDL
MODEL 3
REMARK VINA RESULT:      -4.3      2.569      3.300
REMARK  2 active torsions:
REMARK  status: ('A' for Active; 'I' for Inactive)
REMARK    1  A    between atoms: C3_3  and  O1_8 
REMARK    2  A    between atoms: C6_6  and  N1_7 
ROOT
HETATM    1  C1  UNL     1       7.975   4.458  -0.973  1.00  0.00     0.026 A 
HETATM    2  C2  UNL     1       7.252   5.526  -1.509  1.00  0.00     0.038 A 
HETATM    3  C3  UNL     1       7.837   6.339  -2.470  1.00  0.00     0.065 A 
HETATM    4  C4  UNL     1       9.130   6.091  -2.915  1.00  0.00     0.038 A 
HETATM    5  C5  UNL     1       9.849   5.021  -2.372  1.00  0.00     0.026 A 
HETATM    6  C6  UNL     1       9.298   4.227  -1.362  1.00  0.00     0.005 A 
ENDROOT
BRANCH   6   7
HETATM    7  N1  UNL     1       9.977   3.089  -0.911  1.00  0.00    -0.303 NA
HETATM    8  H5  UNL     1      10.448   3.221  -0.021  1.00  0.00     0.124 HD
HETATM    9  H6  UNL     1      10.581   2.668  -1.609  1.00  0.00     0.124 HD
ENDBRANCH   6   7
BRANCH   3  10
HETATM   10  O1  UNL     1       7.098   7.368  -2.971  1.00  0.00    -0.361 OA
HETATM   11  H7  UNL     1       7.339   8.181  -2.499  1.00  0.00     0.217 HD
ENDBRANCH   3  10
TORSDOF 2
ENDMDL
MODEL 4
REMARK VINA RESULT:      -4.2      2.125      2.540
REMARK  2 active torsions:
REMARK  status: ('A' for Active; 'I' for Inactive)
REMARK    1  A    between atoms: C3_3  and  O1_8 
REMARK    2  A    between atoms: C6_6  and  N1_7 
ROOT
HETATM    1  C1  UNL     1       7.908   7.774  -1.252  1.00  0.00     0.026 A 
HETATM    2  C2  UNL     1       8.440   6.571  -0.781  1.00  0.00     0.038 A 
HETATM    3  C3  UNL     1       9.381   5.891  -1.541  1.00  0.00     0.065 A 
HETATM    4  C4  UNL     1       9.811   6.404  -2.759  1.00  0.00     0.038 A 
HETATM    5  C5  UNL     1       9.273   7.608  -3.225  1.00  0.00     0.026 A 
HETATM    6  C6  UNL     1       8.281   8.277  -2.502  1.00  0.00     0.005 A 
ENDROOT
BRANCH   6   7
HETATM    7  N1  UNL     1       7.837   9.538  -2.916  1.00  0.00    -0.303 NA
HETATM    8  H5  UNL     1       7.563   9.573  -3.894  1.00  0.00     0.124 HD
HETATM    9  H6  UNL     1       8.460  10.297  -2.662  1.00  0.00     0.124 HD
ENDBRANCH   6   7
BRANCH   3  10
HETATM   10  O1  UNL     1       9.878   4.723  -1.045  1.00  0.00    -0.361 OA
HETATM   11  H7  UNL     1       9.201   4.034  -1.140  1.00  0.00     0.217 HD
ENDBRANCH   3  10
TORSDOF 2
ENDMDL
MODEL 5
REMARK VINA RESULT:      -4.2      2.936      3.434
REMARK  2 active torsions:
REMARK  status: ('A' for Active; 'I' for Inactive)
REMARK    1  A    between atoms: C3_3  and  O1_8 
REMARK    2  A    between atoms: C6_6  and  N1_7 
ROOT
HETATM    1  C1  UNL     1       9.246   6.524  -3.939  1.00  0.00     0.026 A 
HETATM    2  C2  UNL     1      10.076   7.623  -3.706  1.00  0.00     0.038 A 
HETATM    3  C3  UNL     1       9.687   8.599  -2.800  1.00  0.00     0.065 A 
HETATM    4  C4  UNL     1       8.486   8.485  -2.109  1.00  0.00     0.038 A 
HETATM    5  C5  UNL     1       7.659   7.383  -2.348  1.00  0.00     0.026 A 
HETATM    6  C6  UNL     1       8.007   6.419  -3.300  1.00  0.00     0.005 A 
ENDROOT
BRANCH   6   7
HETATM    7  N1  UNL     1       7.234   5.262  -3.446  1.00  0.00    -0.303 NA
HETATM    8  H5  UNL     1       7.600   4.460  -2.942  1.00  0.00     0.124 HD
HETATM    9  H6  UNL     1       7.004   5.040  -4.409  1.00  0.00     0.124 HD
ENDBRANCH   6   7
BRANCH   3  10
HETATM   10  O1  UNL     1      10.526   9.654  -2.598  1.00  0.00    -0.361 OA
HETATM   11  H7  UNL     1      11.035   9.495  -1.788  1.00  0.00     0.217 HD
ENDBRANCH   3  10
TORSDOF 2
ENDMDL
MODEL 6
REMARK VINA RESULT:      -4.2      3.009      3.546
REMARK  2 active torsions:
REMARK  status: ('A' for Active; 'I' for Inactive)
REMARK    1  A    between atoms: C3_3  and  O1_8 
REMARK    2  A    between atoms: C6_6  and  N1_7 
ROOT
HETATM    1  C1  UNL     1       8.424   6.703  -0.812  1.00  0.00     0.026 A 
HETATM    2  C2  UNL     1       7.925   7.914  -1.297  1.00  0.00     0.038 A 
HETATM    3  C3  UNL     1       8.318   8.368  -2.548  1.00  0.00     0.065 A 
HETATM    4  C4  UNL     1       9.192   7.621  -3.330  1.00  0.00     0.038 A 
HETATM    5  C5  UNL     1       9.688   6.411  -2.837  1.00  0.00     0.026 A 
HETATM    6  C6  UNL     1       9.350   5.965  -1.556  1.00  0.00     0.005 A 
ENDROOT
BRANCH   6   7
HETATM    7  N1  UNL     1       9.756   4.699  -1.120  1.00  0.00    -0.303 NA
HETATM    8  H5  UNL     1       9.001   4.021  -1.075  1.00  0.00     0.124 HD
HETATM    9  H6  UNL     1      10.310   4.716  -0.270  1.00  0.00     0.124 HD
ENDBRANCH   6   7
BRANCH   3  10
HETATM   10  O1  UNL     1       7.806   9.553  -2.987  1.00  0.00    -0.361 OA
HETATM   11  H7  UNL     1       7.533   9.448  -3.913  1.00  0.00     0.217 HD
ENDBRANCH   3  10
TORSDOF 2
ENDMDL
MODEL 7
REMARK VINA RESULT:      -4.1      2.346      2.947
REMARK  2 active torsions:
REMARK  status: ('A' for Active; 'I' for Inactive)
REMARK    1  A    between atoms: C3_3  and  O1_8 
REMARK    2  A    between atoms: C6_6  and  N1_7 
ROOT
HETATM    1  C1  UNL     1       8.468   8.361  -2.082  1.00  0.00     0.026 A 
HETATM    2  C2  UNL     1       7.648   7.261  -2.345  1.00  0.00     0.038 A 
HETATM    3  C3  UNL     1       8.017   6.345  -3.319  1.00  0.00     0.065 A 
HETATM    4  C4  UNL     1       9.205   6.503  -4.025  1.00  0.00     0.038 A 
HETATM    5  C5  UNL     1      10.020   7.606  -3.757  1.00  0.00     0.026 A 
HETATM    6  C6  UNL     1       9.636   8.572  -2.821  1.00  0.00     0.005 A 
ENDROOT
BRANCH   6   7
HETATM    7  N1  UNL     1      10.513   9.606  -2.475  1.00  0.00    -0.303 NA
HETATM    8  H5  UNL     1      10.317  10.482  -2.950  1.00  0.00     0.124 HD
HETATM    9  H6  UNL     1      11.492   9.349  -2.528  1.00  0.00     0.124 HD
ENDBRANCH   6   7
BRANCH   3  10
HETATM   10  O1  UNL     1       7.192   5.284  -3.544  1.00  0.00    -0.361 OA
HETATM   11  H7  UNL     1       6.426   5.357  -2.953  1.00  0.00     0.217 HD
ENDBRANCH   3  10
TORSDOF 2
ENDMDL
MODEL 8
REMARK VINA RESULT:      -4.1      1.885      2.100
REMARK  2 active torsions:
REMARK  status: ('A' for Active; 'I' for Inactive)
REMARK    1  A    between atoms: C3_3  and  O1_8 
REMARK    2  A    between atoms: C6_6  and  N1_7 
ROOT
HETATM    1  C1  UNL     1       9.716   7.297  -3.071  1.00  0.00     0.026 A 
HETATM    2  C2  UNL     1      10.101   6.059  -2.552  1.00  0.00     0.038 A 
HETATM    3  C3  UNL     1       9.467   5.560  -1.423  1.00  0.00     0.065 A 
HETATM    4  C4  UNL     1       8.442   6.274  -0.812  1.00  0.00     0.038 A 
HETATM    5  C5  UNL     1       8.064   7.514  -1.336  1.00  0.00     0.026 A 
HETATM    6  C6  UNL     1       8.730   8.060  -2.438  1.00  0.00     0.005 A 
ENDROOT
BRANCH   6   7
HETATM    7  N1  UNL     1       8.267   9.242  -3.026  1.00  0.00    -0.303 NA
HETATM    8  H5  UNL     1       7.273   9.232  -3.234  1.00  0.00     0.124 HD
HETATM    9  H6  UNL     1       8.823   9.553  -3.816  1.00  0.00     0.124 HD
ENDBRANCH   6   7
BRANCH   3  10
HETATM   10  O1  UNL     1       9.868   4.347  -0.949  1.00  0.00    -0.361 OA
HETATM   11  H7  UNL     1      10.683   4.089  -1.409  1.00  0.00     0.217 HD
ENDBRANCH   3  10
TORSDOF 2
ENDMDL
MODEL 9
REMARK VINA RESULT:      -4.1      3.233      3.750
REMARK  2 active torsions:
REMARK  status: ('A' for Active; 'I' for Inactive)
REMARK    1  A    between atoms: C3_3  and  O1_8 
REMARK    2  A    between atoms: C6_6  and  N1_7 
ROOT
HETATM    1  C1  UNL     1       8.237   5.675  -2.522  1.00  0.00     0.026 A 
HETATM    2  C2  UNL     1       8.487   6.725  -3.408  1.00  0.00     0.038 A 
HETATM    3  C3  UNL     1       8.582   8.023  -2.925  1.00  0.00     0.065 A 
HETATM    4  C4  UNL     1       8.447   8.285  -1.566  1.00  0.00     0.038 A 
HETATM    5  C5  UNL     1       8.196   7.228  -0.686  1.00  0.00     0.026 A 
HETATM    6  C6  UNL     1       8.039   5.922  -1.160  1.00  0.00     0.005 A 
ENDROOT
BRANCH   6   7
HETATM    7  N1  UNL     1       7.907   4.857  -0.262  1.00  0.00    -0.303 NA
HETATM    8  H5  UNL     1       7.577   3.999  -0.692  1.00  0.00     0.124 HD
HETATM    9  H6  UNL     1       7.390   5.091   0.579  1.00  0.00     0.124 HD
ENDBRANCH   6   7
BRANCH   3  10
HETATM   10  O1  UNL     1       8.830   9.020  -3.821  1.00  0.00    -0.361 OA
HETATM   11  H7  UNL     1       9.693   8.859  -4.233  1.00  0.00     0.217 HD
ENDBRANCH   3  10
TORSDOF 2
ENDMDL
MODEL 10
REMARK VINA RESULT:      -4.1      2.363      2.734
REMARK  2 active torsions:
REMARK  status: ('A' for Active; 'I' for Inactive)
REMARK    1  A    between atoms: C3_3  and  O1_8 
REMARK    2  A    between atoms: C6_6  and  N1_7 
ROOT
HETATM    1  C1  UNL     1      10.017   7.585  -3.663  1.00  0.00     0.026 A 
HETATM    2  C2  UNL     1       9.176   6.510  -3.957  1.00  0.00     0.038 A 
HETATM    3  C3  UNL     1       7.982   6.363  -3.266  1.00  0.00     0.065 A 
HETATM    4  C4  UNL     1       7.607   7.285  -2.295  1.00  0.00     0.038 A 
HETATM    5  C5  UNL     1       8.455   8.358  -2.005  1.00  0.00     0.026 A 
HETATM    6  C6  UNL     1       9.690   8.491  -2.649  1.00  0.00     0.005 A 
ENDROOT
BRANCH   6   7
HETATM    7  N1  UNL     1      10.475   9.630  -2.440  1.00  0.00    -0.303 NA
HETATM    8  H5  UNL     1      11.406   9.425  -2.090  1.00  0.00     0.124 HD
HETATM    9  H6  UNL     1      10.011  10.355  -1.902  1.00  0.00     0.124 HD
ENDBRANCH   6   7
BRANCH   3  10
HETATM   10  O1  UNL     1       7.187   5.302  -3.583  1.00  0.00    -0.361 OA
HETATM   11  H7  UNL     1       7.189   5.191  -4.547  1.00  0.00     0.217 HD
ENDBRANCH   3  10
TORSDOF 2
ENDMDL
MODEL 11
REMARK VINA RESULT:      -4.0      1.581      1.876
REMARK  2 active torsions:
REMARK  status: ('A' for Active; 'I' for Inactive)
REMARK    1  A    between atoms: C3_3  and  O1_8 
REMARK    2  A    between atoms: C6_6  and  N1_7 
ROOT
HETATM    1  C1  UNL     1      10.347   6.240  -4.182  1.00  0.00     0.026 A 
HETATM    2  C2  UNL     1      10.087   5.451  -3.059  1.00  0.00     0.038 A 
HETATM    3  C3  UNL     1       9.501   6.021  -1.938  1.00  0.00     0.065 A 
HETATM    4  C4  UNL     1       9.156   7.368  -1.928  1.00  0.00     0.038 A 
HETATM    5  C5  UNL     1       9.421   8.153  -3.054  1.00  0.00     0.026 A 
HETATM    6  C6  UNL     1      10.064   7.609  -4.171  1.00  0.00     0.005 A 
ENDROOT
BRANCH   6   7
HETATM    7  N1  UNL     1      10.217   8.370  -5.336  1.00  0.00    -0.303 NA
HETATM    8  H5  UNL     1      10.043   9.361  -5.201  1.00  0.00     0.124 HD
HETATM    9  H6  UNL     1       9.721   7.996  -6.138  1.00  0.00     0.124 HD
ENDBRANCH   6   7
BRANCH   3  10
HETATM   10  O1  UNL     1       9.260   5.218  -0.864  1.00  0.00    -0.361 OA
HETATM   11  H7  UNL     1       8.673   4.497  -1.143  1.00  0.00     0.217 HD
ENDBRANCH   3  10
TORSDOF 2
ENDMDL
MODEL 12
REMARK VINA RESULT:      -4.0      2.357      2.638
REMARK  2 active torsions:
REMARK  status: ('A' for Active; 'I' for Inactive)
REMARK    1  A    between atoms: C3_3  and  O1_8 
REMARK    2  A    between atoms: C6_6  and  N1_7 
ROOT
HETATM    1  C1  UNL     1      10.056   5.769  -2.400  1.00  0.00     0.026 A 
HETATM    2  C2  UNL     1       9.481   6.909  -1.834  1.00  0.00     0.038 A 
HETATM    3  C3  UNL     1       8.446   6.775  -0.920  1.00  0.00     0.065 A 
HETATM    4  C4  UNL     1       7.986   5.516  -0.550  1.00  0.00     0.038 A 
HETATM    5  C5  UNL     1       8.565   4.380  -1.122  1.00  0.00     0.026 A 
HETATM    6  C6  UNL     1       9.569   4.496  -2.088  1.00  0.00     0.005 A 
ENDROOT
BRANCH   6   7
HETATM    7  N1  UNL     1      10.223   3.354  -2.566  1.00  0.00    -0.303 NA
HETATM    8  H5  UNL     1      11.043   3.098  -2.025  1.00  0.00     0.124 HD
HETATM    9  H6  UNL     1      10.409   3.374  -3.563  1.00  0.00     0.124 HD
ENDBRANCH   6   7
BRANCH   3  10
HETATM   10  O1  UNL     1       7.914   7.911  -0.388  1.00  0.00    -0.361 OA
HETATM   11  H7  UNL     1       8.639   8.489  -0.101  1.00  0.00     0.217 HD
ENDBRANCH   3  10
TORSDOF 2
ENDMDL
MODEL 13
REMARK VINA RESULT:      -3.9      1.771      2.222
REMARK  2 active torsions:
REMARK  status: ('A' for Active; 'I' for Inactive)
REMARK    1  A    between atoms: C3_3  and  O1_8 
REMARK    2  A    between atoms: C6_6  and  N1_7 
ROOT
HETATM    1  C1  UNL     1       8.953   8.598  -3.172  1.00  0.00     0.026 A 
HETATM    2  C2  UNL     1       8.452   8.168  -1.942  1.00  0.00     0.038 A 
HETATM    3  C3  UNL     1       8.695   6.869  -1.517  1.00  0.00     0.065 A 
HETATM    4  C4  UNL     1       9.446   5.997  -2.297  1.00  0.00     0.038 A 
HETATM    5  C5  UNL     1       9.943   6.435  -3.529  1.00  0.00     0.026 A 
HETATM    6  C6  UNL     1       9.659   7.720  -4.000  1.00  0.00     0.005 A 
ENDROOT
BRANCH   6   7
HETATM    7  N1  UNL     1      10.259   8.188  -5.175  1.00  0.00    -0.303 NA
HETATM    8  H5  UNL     1      10.754   7.470  -5.694  1.00  0.00     0.124 HD
HETATM    9  H6  UNL     1      10.817   9.025  -5.046  1.00  0.00     0.124 HD
ENDBRANCH   6   7
BRANCH   3  10
HETATM   10  O1  UNL     1       8.191   6.488  -0.309  1.00  0.00    -0.361 OA
HETATM   11  H7  UNL     1       8.573   5.628  -0.072  1.00  0.00     0.217 HD
ENDBRANCH   3  10
TORSDOF 2
ENDMDL
MODEL 14
REMARK VINA RESULT:      -3.8      2.547      3.044
REMARK  2 active torsions:
REMARK  status: ('A' for Active; 'I' for Inactive)
REMARK    1  A    between atoms: C3_3  and  O1_8 
REMARK    2  A    between atoms: C6_6  and  N1_7 
ROOT
HETATM    1  C1  UNL     1      10.255   6.169  -2.212  1.00  0.00     0.026 A 
HETATM    2  C2  UNL     1       8.869   6.264  -2.360  1.00  0.00     0.038 A 
HETATM    3  C3  UNL     1       8.297   7.477  -2.714  1.00  0.00     0.065 A 
HETATM    4  C4  UNL     1       9.091   8.596  -2.940  1.00  0.00     0.038 A 
HETATM    5  C5  UNL     1      10.477   8.494  -2.789  1.00  0.00     0.026 A 
HETATM    6  C6  UNL     1      11.068   7.296  -2.376  1.00  0.00     0.005 A 
ENDROOT
BRANCH   6   7
HETATM    7  N1  UNL     1      12.461   7.171  -2.343  1.00  0.00    -0.303 NA
HETATM    8  H5  UNL     1      12.784   6.323  -1.888  1.00  0.00     0.124 HD
HETATM    9  H6  UNL     1      12.939   7.998  -2.003  1.00  0.00     0.124 HD
ENDBRANCH   6   7
BRANCH   3  10
HETATM   10  O1  UNL     1       6.942   7.528  -2.851  1.00  0.00    -0.361 OA
HETATM   11  H7  UNL     1       6.634   6.676  -3.199  1.00  0.00     0.217 HD
ENDBRANCH   3  10
TORSDOF 2
ENDMDL
MODEL 15
REMARK VINA RESULT:      -3.8      2.755      3.323
REMARK  2 active torsions:
REMARK  status: ('A' for Active; 'I' for Inactive)
REMARK    1  A    between atoms: C3_3  and  O1_8 
REMARK    2  A    between atoms: C6_6  and  N1_7 
ROOT
HETATM    1  C1  UNL     1       9.047   8.012  -3.250  1.00  0.00     0.026 A 
HETATM    2  C2  UNL     1       9.772   7.172  -4.098  1.00  0.00     0.038 A 
HETATM    3  C3  UNL     1      10.210   5.939  -3.636  1.00  0.00     0.065 A 
HETATM    4  C4  UNL     1       9.919   5.525  -2.341  1.00  0.00     0.038 A 
HETATM    5  C5  UNL     1       9.195   6.371  -1.497  1.00  0.00     0.026 A 
HETATM    6  C6  UNL     1       8.796   7.642  -1.925  1.00  0.00     0.005 A 
ENDROOT
BRANCH   6   7
HETATM    7  N1  UNL     1       7.971   8.431  -1.117  1.00  0.00    -0.303 NA
HETATM    8  H5  UNL     1       8.472   9.141  -0.591  1.00  0.00     0.124 HD
HETATM    9  H6  UNL     1       7.334   7.898  -0.534  1.00  0.00     0.124 HD
ENDBRANCH   6   7
BRANCH   3  10
HETATM   10  O1  UNL     1      10.911   5.147  -4.495  1.00  0.00    -0.361 OA
HETATM   11  H7  UNL     1      11.804   5.514  -4.595  1.00  0.00     0.217 HD
ENDBRANCH   3  10
TORSDOF 2
ENDMDL
MODEL 16
REMARK VINA RESULT:      -3.8      2.408      2.841
REMARK  2 active torsions:
REMARK  status: ('A' for Active; 'I' for Inactive)
REMARK    1  A    between atoms: C3_3  and  O1_8 
REMARK    2  A    between atoms: C6_6  and  N1_7 
ROOT
HETATM    1  C1  UNL     1       9.668   8.067  -3.858  1.00  0.00     0.026 A 
HETATM    2  C2  UNL     1       8.914   8.909  -3.038  1.00  0.00     0.038 A 
HETATM    3  C3  UNL     1       7.862   8.388  -2.298  1.00  0.00     0.065 A 
HETATM    4  C4  UNL     1       7.562   7.031  -2.353  1.00  0.00     0.038 A 
HETATM    5  C5  UNL     1       8.320   6.195  -3.177  1.00  0.00     0.026 A 
HETATM    6  C6  UNL     1       9.346   6.711  -3.975  1.00  0.00     0.005 A 
ENDROOT
BRANCH   6   7
HETATM    7  N1  UNL     1      10.174   5.850  -4.704  1.00  0.00    -0.303 NA
HETATM    8  H5  UNL     1      10.979   6.311  -5.116  1.00  0.00     0.124 HD
HETATM    9  H6  UNL     1       9.677   5.270  -5.371  1.00  0.00     0.124 HD
ENDBRANCH   6   7
BRANCH   3  10
HETATM   10  O1  UNL     1       7.153   9.242  -1.507  1.00  0.00    -0.361 OA
HETATM   11  H7  UNL     1       7.280   8.984  -0.580  1.00  0.00     0.217 HD
ENDBRANCH   3  10
TORSDOF 2
ENDMDL
MODEL 17
REMARK VINA RESULT:      -3.7      3.048      3.568
REMARK  2 active torsions:
REMARK  status: ('A' for Active; 'I' for Inactive)
REMARK    1  A    between atoms: C3_3  and  O1_8 
REMARK    2  A    between atoms: C6_6  and  N1_7 
ROOT
HETATM    1  C1  UNL     1       9.416   8.466  -2.528  1.00  0.00     0.026 A 
HETATM    2  C2  UNL     1      10.751   8.244  -2.873  1.00  0.00     0.038 A 
HETATM    3  C3  UNL     1      11.091   7.129  -3.625  1.00  0.00     0.065 A 
HETATM    4  C4  UNL     1      10.111   6.239  -4.053  1.00  0.00     0.038 A 
HETATM    5  C5  UNL     1       8.777   6.468  -3.703  1.00  0.00     0.026 A 
HETATM    6  C6  UNL     1       8.424   7.554  -2.896  1.00  0.00     0.005 A 
ENDROOT
BRANCH   6   7
HETATM    7  N1  UNL     1       7.076   7.840  -2.651  1.00  0.00    -0.303 NA
HETATM    8  H5  UNL     1       6.474   7.023  -2.675  1.00  0.00     0.124 HD
HETATM    9  H6  UNL     1       6.711   8.605  -3.209  1.00  0.00     0.124 HD
ENDBRANCH   6   7
BRANCH   3  10
HETATM   10  O1  UNL     1      12.403   6.948  -3.944  1.00  0.00    -0.361 OA
HETATM   11  H7  UNL     1      12.872   6.628  -3.156  1.00  0.00     0.217 HD
ENDBRANCH   3  10
TORSDOF 2
ENDMDL
MODEL 18
REMARK VINA RESULT:      -3.7      3.505      4.506
REMARK  2 active torsions:
REMARK  status: ('A' for Active; 'I' for Inactive)
REMARK    1  A    between atoms: C3_3  and  O1_8 
REMARK    2  A    between atoms: C6_6  and  N1_7 
ROOT
HETATM    1  C1  UNL     1       9.947   6.102  -3.680  1.00  0.00     0.026 A 
HETATM    2  C2  UNL     1      10.415   6.871  -4.748  1.00  0.00     0.038 A 
HETATM    3  C3  UNL     1      11.389   7.834  -4.527  1.00  0.00     0.065 A 
HETATM    4  C4  UNL     1      11.916   8.030  -3.255  1.00  0.00     0.038 A 
HETATM    5  C5  UNL     1      11.442   7.257  -2.191  1.00  0.00     0.026 A 
HETATM    6  C6  UNL     1      10.419   6.322  -2.383  1.00  0.00     0.005 A 
ENDROOT
BRANCH   6   7
HETATM    7  N1  UNL     1      10.036   5.472  -1.339  1.00  0.00    -0.303 NA
HETATM    8  H5  UNL     1      10.818   5.097  -0.811  1.00  0.00     0.124 HD
HETATM    9  H6  UNL     1       9.376   4.754  -1.616  1.00  0.00     0.124 HD
ENDBRANCH   6   7
BRANCH   3  10
HETATM   10  O1  UNL     1      11.821   8.562  -5.595  1.00  0.00    -0.361 OA
HETATM   11  H7  UNL     1      11.279   9.364  -5.663  1.00  0.00     0.217 HD
ENDBRANCH   3  10
TORSDOF 2
ENDMDL
MODEL 19
REMARK VINA RESULT:      -3.4      4.098      5.012
REMARK  2 active torsions:
REMARK  status: ('A' for Active; 'I' for Inactive)
REMARK    1  A    between atoms: C3_3  and  O1_8 
REMARK    2  A    between atoms: C6_6  and  N1_7 
ROOT
HETATM    1  C1  UNL     1      11.986   7.595  -2.279  1.00  0.00     0.026 A 
HETATM    2  C2  UNL     1      10.881   7.646  -3.132  1.00  0.00     0.038 A 
HETATM    3  C3  UNL     1      11.074   7.703  -4.505  1.00  0.00     0.065 A 
HETATM    4  C4  UNL     1      12.357   7.696  -5.040  1.00  0.00     0.038 A 
HETATM    5  C5  UNL     1      13.458   7.647  -4.181  1.00  0.00     0.026 A 
HETATM    6  C6  UNL     1      13.285   7.647  -2.793  1.00  0.00     0.005 A 
ENDROOT
BRANCH   6   7
HETATM    7  N1  UNL     1      14.386   7.478  -1.946  1.00  0.00    -0.303 NA
HETATM    8  H5  UNL     1      15.264   7.792  -2.349  1.00  0.00     0.124 HD
HETATM    9  H6  UNL     1      14.456   6.549  -1.544  1.00  0.00     0.124 HD
ENDBRANCH   6   7
BRANCH   3  10
HETATM   10  O1  UNL     1       9.970   7.748  -5.303  1.00  0.00    -0.361 OA
HETATM   11  H7  UNL     1      10.229   7.499  -6.204  1.00  0.00     0.217 HD
ENDBRANCH   3  10
TORSDOF 2
ENDMDL
MODEL 20
REMARK VINA RESULT:      -3.4      2.043      2.255
REMARK  2 active torsions:
REMARK  status: ('A' for Active; 'I' for Inactive)
REMARK    1  A    between atoms: C3_3  and  O1_8 
REMARK    2  A    between atoms: C6_6  and  N1_7 
ROOT
HETATM    1  C1  UNL     1       8.883   5.917  -2.668  1.00  0.00     0.026 A 
HETATM    2  C2  UNL     1       8.423   6.210  -1.382  1.00  0.00     0.038 A 
HETATM    3  C3  UNL     1       8.351   7.530  -0.961  1.00  0.00     0.065 A 
HETATM    4  C4  UNL     1       8.718   8.565  -1.813  1.00  0.00     0.038 A 
HETATM    5  C5  UNL     1       9.179   8.265  -3.099  1.00  0.00     0.026 A 
HETATM    6  C6  UNL     1       9.314   6.938  -3.520  1.00  0.00     0.005 A 
ENDROOT
BRANCH   6   7
HETATM    7  N1  UNL     1       9.661   6.651  -4.845  1.00  0.00    -0.303 NA
HETATM    8  H5  UNL     1       9.335   7.344  -5.511  1.00  0.00     0.124 HD
HETATM    9  H6  UNL     1       9.438   5.704  -5.132  1.00  0.00     0.124 HD
ENDBRANCH   6   7
BRANCH   3  10
HETATM   10  O1  UNL     1       7.894   7.774   0.299  1.00  0.00    -0.361 OA
HETATM   11  H7  UNL     1       7.733   8.727   0.391  1.00  0.00     0.217 HD
ENDBRANCH   3  10
TORSDOF 2
ENDMDL
