MODEL 1
REMARK VINA RESULT:      -6.4      0.000      0.000
REMARK  27 active torsions:
REMARK  status: ('A' for Active; 'I' for Inactive)
REMARK    1  A    between atoms: C2_2  and  S1_4 
REMARK    2  A    between atoms: S1_4  and  C3_5 
REMARK    3  A    between atoms: C3_5  and  C4_6 
REMARK    4  A    between atoms: C4_6  and  N1_7 
REMARK       I    between atoms: N1_7  and  C5_8 
REMARK    5  A    between atoms: C5_8  and  C6_10 
REMARK    6  A    between atoms: C6_10  and  C7_11 
REMARK    7  A    between atoms: C7_11  and  N2_12 
REMARK       I    between atoms: N2_12  and  C8_13 
REMARK    8  A    between atoms: C8_13  and  C9_15 
REMARK    9  A    between atoms: C9_15  and  C10_16 
REMARK   10  A    between atoms: C9_15  and  O17_54 
REMARK   11  A    between atoms: C10_16  and  C13_19 
REMARK   12  A    between atoms: C13_19  and  O4_20 
REMARK   13  A    between atoms: O4_20  and  P1_21 
REMARK   14  A    between atoms: P1_21  and  O6_23 
REMARK   15  A    between atoms: P1_21  and  O7_24 
REMARK   16  A    between atoms: O7_24  and  P2_25 
REMARK   17  A    between atoms: P2_25  and  O9_27 
REMARK   18  A    between atoms: P2_25  and  O10_28 
REMARK   19  A    between atoms: O10_28  and  C14_29 
REMARK   20  A    between atoms: C14_29  and  C15_30 
REMARK   21  A    between atoms: C16_31  and  O13_49 
REMARK   22  A    between atoms: C17_32  and  O12_48 
REMARK   23  A    between atoms: C18_33  and  N3_35 
REMARK   24  A    between atoms: C21_40  and  N7_47 
REMARK   25  A    between atoms: O13_49  and  P3_50 
REMARK   26  A    between atoms: P3_50  and  O15_52 
REMARK   27  A    between atoms: P3_50  and  O16_53 
ROOT
HETATM    1  C1  UNL     1       9.006   6.197  -3.828  1.00  0.00     0.104 C 
HETATM    2  C2  UNL     1       9.352   6.147  -2.371  1.00  0.00     0.182 C 
HETATM    3  O1  UNL     1      10.506   6.088  -1.954  1.00  0.00    -0.286 OA
ENDROOT
BRANCH   2   4
HETATM    4  S1  UNL     1       7.962   6.137  -1.295  1.00  0.00    -0.091 SA
BRANCH   4   5
HETATM    5  C3  UNL     1       8.098   7.805  -0.575  1.00  0.00     0.102 C 
BRANCH   5   6
HETATM    6  C4  UNL     1       8.409   8.861  -1.638  1.00  0.00     0.133 C 
BRANCH   6   7
HETATM    7  N1  UNL     1       9.423   9.803  -1.211  1.00  0.00    -0.360 N 
HETATM    8  C5  UNL     1      10.607   9.951  -1.894  1.00  0.00     0.219 C 
HETATM    9  O2  UNL     1      10.910   9.247  -2.850  1.00  0.00    -0.274 OA
HETATM   10  H8  UNL     1       9.247  10.369  -0.391  1.00  0.00     0.162 HD
BRANCH   8  11
HETATM   11  C6  UNL     1      11.503  11.026  -1.316  1.00  0.00     0.122 C 
BRANCH  11  12
HETATM   12  C7  UNL     1      10.725  12.004  -0.436  1.00  0.00     0.132 C 
BRANCH  12  13
HETATM   13  N2  UNL     1      11.183  12.018   0.938  1.00  0.00    -0.358 N 
HETATM   14  C8  UNL     1      11.010  13.146   1.718  1.00  0.00     0.247 C 
HETATM   15  O3  UNL     1      10.582  14.197   1.259  1.00  0.00    -0.271 OA
HETATM   16  H13 UNL     1      11.172  11.117   1.413  1.00  0.00     0.162 HD
BRANCH  14  17
HETATM   17  C9  UNL     1      11.376  12.968   3.199  1.00  0.00     0.219 C 
BRANCH  17  18
HETATM   18  C10 UNL     1      12.887  12.734   3.464  1.00  0.00     0.009 C 
HETATM   19  C11 UNL     1      13.332  13.306   4.818  1.00  0.00     0.020 C 
HETATM   20  C12 UNL     1      13.239  11.232   3.444  1.00  0.00     0.020 C 
BRANCH  18  21
HETATM   21  C13 UNL     1      13.640  13.464   2.315  1.00  0.00     0.192 C 
BRANCH  21  22
HETATM   22  O4  UNL     1      14.158  12.567   1.355  1.00  0.00    -0.296 OA
BRANCH  22  23
HETATM   23  P1  UNL     1      14.887  13.053   0.012  1.00  0.00     0.401 P 
HETATM   24  O5  UNL     1      16.157  13.809   0.245  1.00  0.00    -0.631 OA
BRANCH  23  25
HETATM   25  O6  UNL     1      13.793  13.869  -0.842  1.00  0.00    -0.307 OA
HETATM   26  H23 UNL     1      13.029  14.118  -0.307  1.00  0.00     0.222 HD
ENDBRANCH  23  25
BRANCH  23  27
HETATM   27  O7  UNL     1      15.048  11.738  -0.868  1.00  0.00    -0.195 OA
BRANCH  27  28
HETATM   28  P2  UNL     1      15.360  11.885  -2.423  1.00  0.00     0.401 P 
HETATM   29  O8  UNL     1      14.187  12.003  -3.340  1.00  0.00    -0.631 OA
BRANCH  28  30
HETATM   30  O9  UNL     1      16.359  13.129  -2.481  1.00  0.00    -0.307 OA
HETATM   31  H24 UNL     1      17.094  13.027  -3.133  1.00  0.00     0.222 HD
ENDBRANCH  28  30
BRANCH  28  32
HETATM   32  O10 UNL     1      16.368  10.685  -2.731  1.00  0.00    -0.294 OA
BRANCH  32  33
HETATM   33  C14 UNL     1      16.340  10.048  -3.981  1.00  0.00     0.215 C 
BRANCH  33  34
HETATM   34  C15 UNL     1      15.908   8.607  -3.716  1.00  0.00     0.180 C 
HETATM   35  C16 UNL     1      14.423   8.568  -3.381  1.00  0.00     0.197 C 
HETATM   36  C17 UNL     1      14.362   8.027  -1.965  1.00  0.00     0.199 C 
HETATM   37  C18 UNL     1      15.663   7.225  -1.870  1.00  0.00     0.262 C 
HETATM   38  O11 UNL     1      16.616   8.002  -2.628  1.00  0.00    -0.353 OA
BRANCH  35  39
HETATM   39  O13 UNL     1      13.783   7.703  -4.314  1.00  0.00    -0.286 OA
BRANCH  39  40
HETATM   40  P3  UNL     1      13.115   8.423  -5.575  1.00  0.00     0.391 P 
HETATM   41  O14 UNL     1      13.748   8.063  -6.880  1.00  0.00    -0.632 OA
BRANCH  40  42
HETATM   42  O15 UNL     1      13.184   9.954  -5.116  1.00  0.00    -0.307 OA
HETATM   43  H36 UNL     1      13.620  10.506  -5.808  1.00  0.00     0.222 HD
ENDBRANCH  40  42
BRANCH  40  44
HETATM   44  O16 UNL     1      11.581   8.054  -5.373  1.00  0.00    -0.307 OA
HETATM   45  H37 UNL     1      11.342   7.205  -5.778  1.00  0.00     0.222 HD
ENDBRANCH  40  44
ENDBRANCH  39  40
ENDBRANCH  35  39
BRANCH  36  46
HETATM   46  O12 UNL     1      13.138   7.318  -1.757  1.00  0.00    -0.388 OA
HETATM   47  H35 UNL     1      12.862   7.506  -0.828  1.00  0.00     0.210 HD
ENDBRANCH  36  46
BRANCH  37  48
HETATM   48  N3  UNL     1      16.141   7.101  -0.507  1.00  0.00    -0.297 N 
HETATM   49  C19 UNL     1      16.172   5.962   0.262  1.00  0.00     0.188 A 
HETATM   50  N4  UNL     1      16.782   6.152   1.411  1.00  0.00    -0.346 N 
HETATM   51  C20 UNL     1      17.171   7.480   1.384  1.00  0.00     0.116 A 
HETATM   52  H4  UNL     1      16.935   5.473   2.157  1.00  0.00     0.167 HD
HETATM   53  C21 UNL     1      17.895   8.280   2.285  1.00  0.00     0.109 A 
HETATM   54  C23 UNL     1      16.746   8.090   0.218  1.00  0.00     0.142 A 
HETATM   55  N5  UNL     1      18.111   9.580   1.970  1.00  0.00    -0.341 N 
HETATM   56  C22 UNL     1      17.615  10.045   0.806  1.00  0.00     0.183 A 
HETATM   57  H5  UNL     1      18.635  10.190   2.597  1.00  0.00     0.167 HD
HETATM   58  N6  UNL     1      16.919   9.376  -0.135  1.00  0.00    -0.336 N 
HETATM   59  H6  UNL     1      16.570   9.789  -1.000  1.00  0.00     0.168 HD
BRANCH  53  60
HETATM   60  N7  UNL     1      18.394   7.810   3.490  1.00  0.00    -0.287 NA
HETATM   61  H33 UNL     1      18.143   6.847   3.700  1.00  0.00     0.125 HD
HETATM   62  H34 UNL     1      18.303   8.479   4.242  1.00  0.00     0.125 HD
ENDBRANCH  53  60
ENDBRANCH  37  48
ENDBRANCH  33  34
ENDBRANCH  32  33
ENDBRANCH  28  32
ENDBRANCH  27  28
ENDBRANCH  23  27
ENDBRANCH  22  23
ENDBRANCH  21  22
ENDBRANCH  18  21
ENDBRANCH  17  18
BRANCH  17  63
HETATM   63  O17 UNL     1      10.954  14.110   3.953  1.00  0.00    -0.385 OA
HETATM   64  H38 UNL     1      11.645  14.790   3.881  1.00  0.00     0.210 HD
ENDBRANCH  17  63
ENDBRANCH  14  17
ENDBRANCH  12  13
ENDBRANCH  11  12
ENDBRANCH   8  11
ENDBRANCH   6   7
ENDBRANCH   5   6
ENDBRANCH   4   5
ENDBRANCH   2   4
TORSDOF 27
ENDMDL
MODEL 2
REMARK VINA RESULT:      -6.0      3.070      6.960
REMARK  27 active torsions:
REMARK  status: ('A' for Active; 'I' for Inactive)
REMARK    1  A    between atoms: C2_2  and  S1_4 
REMARK    2  A    between atoms: S1_4  and  C3_5 
REMARK    3  A    between atoms: C3_5  and  C4_6 
REMARK    4  A    between atoms: C4_6  and  N1_7 
REMARK       I    between atoms: N1_7  and  C5_8 
REMARK    5  A    between atoms: C5_8  and  C6_10 
REMARK    6  A    between atoms: C6_10  and  C7_11 
REMARK    7  A    between atoms: C7_11  and  N2_12 
REMARK       I    between atoms: N2_12  and  C8_13 
REMARK    8  A    between atoms: C8_13  and  C9_15 
REMARK    9  A    between atoms: C9_15  and  C10_16 
REMARK   10  A    between atoms: C9_15  and  O17_54 
REMARK   11  A    between atoms: C10_16  and  C13_19 
REMARK   12  A    between atoms: C13_19  and  O4_20 
REMARK   13  A    between atoms: O4_20  and  P1_21 
REMARK   14  A    between atoms: P1_21  and  O6_23 
REMARK   15  A    between atoms: P1_21  and  O7_24 
REMARK   16  A    between atoms: O7_24  and  P2_25 
REMARK   17  A    between atoms: P2_25  and  O9_27 
REMARK   18  A    between atoms: P2_25  and  O10_28 
REMARK   19  A    between atoms: O10_28  and  C14_29 
REMARK   20  A    between atoms: C14_29  and  C15_30 
REMARK   21  A    between atoms: C16_31  and  O13_49 
REMARK   22  A    between atoms: C17_32  and  O12_48 
REMARK   23  A    between atoms: C18_33  and  N3_35 
REMARK   24  A    between atoms: C21_40  and  N7_47 
REMARK   25  A    between atoms: O13_49  and  P3_50 
REMARK   26  A    between atoms: P3_50  and  O15_52 
REMARK   27  A    between atoms: P3_50  and  O16_53 
ROOT
HETATM    1  C1  UNL     1       7.912  14.117  -0.646  1.00  0.00     0.104 C 
HETATM    2  C2  UNL     1       9.398  14.085  -0.831  1.00  0.00     0.182 C 
HETATM    3  O1  UNL     1      10.042  13.045  -0.945  1.00  0.00    -0.286 OA
ENDROOT
BRANCH   2   4
HETATM    4  S1  UNL     1      10.163  15.669  -0.832  1.00  0.00    -0.091 SA
BRANCH   4   5
HETATM    5  C3  UNL     1      11.265  15.497   0.608  1.00  0.00     0.102 C 
BRANCH   5   6
HETATM    6  C4  UNL     1      12.670  15.050   0.201  1.00  0.00     0.133 C 
BRANCH   6   7
HETATM    7  N1  UNL     1      12.792  13.610   0.101  1.00  0.00    -0.360 N 
HETATM    8  C5  UNL     1      13.206  12.843   1.165  1.00  0.00     0.219 C 
HETATM    9  O2  UNL     1      13.572  13.331   2.227  1.00  0.00    -0.274 OA
HETATM   10  H8  UNL     1      12.558  13.162  -0.775  1.00  0.00     0.162 HD
BRANCH   8  11
HETATM   11  C6  UNL     1      13.211  11.359   0.867  1.00  0.00     0.122 C 
BRANCH  11  12
HETATM   12  C7  UNL     1      14.117  10.588   1.827  1.00  0.00     0.132 C 
BRANCH  12  13
HETATM   13  N2  UNL     1      15.525  10.765   1.544  1.00  0.00    -0.358 N 
HETATM   14  C8  UNL     1      16.398  11.132   2.552  1.00  0.00     0.247 C 
HETATM   15  O3  UNL     1      16.008  11.432   3.674  1.00  0.00    -0.271 OA
HETATM   16  H13 UNL     1      15.898  10.187   0.794  1.00  0.00     0.162 HD
BRANCH  14  17
HETATM   17  C9  UNL     1      17.882  11.112   2.159  1.00  0.00     0.219 C 
BRANCH  17  18
HETATM   18  C10 UNL     1      18.634   9.813   2.553  1.00  0.00     0.009 C 
HETATM   19  C11 UNL     1      19.706  10.068   3.623  1.00  0.00     0.020 C 
HETATM   20  C12 UNL     1      17.666   8.742   3.094  1.00  0.00     0.020 C 
BRANCH  18  21
HETATM   21  C13 UNL     1      19.310   9.299   1.249  1.00  0.00     0.192 C 
BRANCH  21  22
HETATM   22  O4  UNL     1      18.397   8.643   0.392  1.00  0.00    -0.296 OA
BRANCH  22  23
HETATM   23  P1  UNL     1      18.667   7.182  -0.212  1.00  0.00     0.401 P 
HETATM   24  O5  UNL     1      18.824   6.112   0.822  1.00  0.00    -0.631 OA
BRANCH  23  25
HETATM   25  O6  UNL     1      19.926   7.315  -1.206  1.00  0.00    -0.307 OA
HETATM   26  H23 UNL     1      20.056   6.516  -1.733  1.00  0.00     0.222 HD
ENDBRANCH  23  25
BRANCH  23  27
HETATM   27  O7  UNL     1      17.481   6.940  -1.245  1.00  0.00    -0.195 OA
BRANCH  27  28
HETATM   28  P2  UNL     1      16.018   6.650  -0.684  1.00  0.00     0.401 P 
HETATM   29  O8  UNL     1      15.791   5.320  -0.044  1.00  0.00    -0.631 OA
BRANCH  28  30
HETATM   30  O9  UNL     1      15.742   7.892   0.280  1.00  0.00    -0.307 OA
HETATM   31  H24 UNL     1      16.223   7.849   1.142  1.00  0.00     0.222 HD
ENDBRANCH  28  30
BRANCH  28  32
HETATM   32  O10 UNL     1      15.058   7.008  -1.908  1.00  0.00    -0.294 OA
BRANCH  32  33
HETATM   33  C14 UNL     1      15.597   7.523  -3.098  1.00  0.00     0.215 C 
BRANCH  33  34
HETATM   34  C15 UNL     1      14.540   8.463  -3.674  1.00  0.00     0.180 C 
HETATM   35  C16 UNL     1      13.931   9.300  -2.557  1.00  0.00     0.197 C 
HETATM   36  C17 UNL     1      12.463   8.914  -2.545  1.00  0.00     0.199 C 
HETATM   37  C18 UNL     1      12.242   8.440  -3.984  1.00  0.00     0.262 C 
HETATM   38  O11 UNL     1      13.474   7.769  -4.331  1.00  0.00    -0.353 OA
BRANCH  35  39
HETATM   39  O13 UNL     1      14.122  10.673  -2.880  1.00  0.00    -0.286 OA
BRANCH  39  40
HETATM   40  P3  UNL     1      15.469  11.331  -2.324  1.00  0.00     0.391 P 
HETATM   41  O14 UNL     1      16.146  10.517  -1.269  1.00  0.00    -0.632 OA
BRANCH  40  42
HETATM   42  O15 UNL     1      14.945  12.786  -1.915  1.00  0.00    -0.307 OA
HETATM   43  H36 UNL     1      14.424  13.188  -2.650  1.00  0.00     0.222 HD
ENDBRANCH  40  42
BRANCH  40  44
HETATM   44  O16 UNL     1      16.268  11.600  -3.672  1.00  0.00    -0.307 OA
HETATM   45  H37 UNL     1      16.615  10.787  -4.073  1.00  0.00     0.222 HD
ENDBRANCH  40  44
ENDBRANCH  39  40
ENDBRANCH  35  39
BRANCH  36  46
HETATM   46  O12 UNL     1      11.667  10.009  -2.084  1.00  0.00    -0.388 OA
HETATM   47  H35 UNL     1      12.015  10.250  -1.193  1.00  0.00     0.210 HD
ENDBRANCH  36  46
BRANCH  37  48
HETATM   48  N3  UNL     1      11.149   7.496  -4.097  1.00  0.00    -0.297 N 
HETATM   49  C19 UNL     1      11.207   6.210  -4.581  1.00  0.00     0.188 A 
HETATM   50  N4  UNL     1      10.069   5.569  -4.433  1.00  0.00    -0.346 N 
HETATM   51  C20 UNL     1       9.231   6.483  -3.817  1.00  0.00     0.116 A 
HETATM   52  H4  UNL     1       9.851   4.612  -4.709  1.00  0.00     0.167 HD
HETATM   53  C21 UNL     1       7.906   6.401  -3.356  1.00  0.00     0.109 A 
HETATM   54  C23 UNL     1       9.876   7.694  -3.639  1.00  0.00     0.142 A 
HETATM   55  N5  UNL     1       7.346   7.499  -2.792  1.00  0.00    -0.341 N 
HETATM   56  C22 UNL     1       8.088   8.621  -2.706  1.00  0.00     0.183 A 
HETATM   57  H5  UNL     1       6.388   7.477  -2.443  1.00  0.00     0.167 HD
HETATM   58  N6  UNL     1       9.363   8.815  -3.102  1.00  0.00    -0.336 N 
HETATM   59  H6  UNL     1       9.870   9.695  -3.008  1.00  0.00     0.168 HD
BRANCH  53  60
HETATM   60  N7  UNL     1       7.134   5.255  -3.456  1.00  0.00    -0.287 NA
HETATM   61  H33 UNL     1       7.298   4.573  -2.718  1.00  0.00     0.125 HD
HETATM   62  H34 UNL     1       7.077   4.898  -4.401  1.00  0.00     0.125 HD
ENDBRANCH  53  60
ENDBRANCH  37  48
ENDBRANCH  33  34
ENDBRANCH  32  33
ENDBRANCH  28  32
ENDBRANCH  27  28
ENDBRANCH  23  27
ENDBRANCH  22  23
ENDBRANCH  21  22
ENDBRANCH  18  21
ENDBRANCH  17  18
BRANCH  17  63
HETATM   63  O17 UNL     1      18.021  11.307   0.747  1.00  0.00    -0.385 OA
HETATM   64  H38 UNL     1      18.871  11.749   0.586  1.00  0.00     0.210 HD
ENDBRANCH  17  63
ENDBRANCH  14  17
ENDBRANCH  12  13
ENDBRANCH  11  12
ENDBRANCH   8  11
ENDBRANCH   6   7
ENDBRANCH   5   6
ENDBRANCH   4   5
ENDBRANCH   2   4
TORSDOF 27
ENDMDL
MODEL 3
REMARK VINA RESULT:      -5.8      3.027      6.760
REMARK  27 active torsions:
REMARK  status: ('A' for Active; 'I' for Inactive)
REMARK    1  A    between atoms: C2_2  and  S1_4 
REMARK    2  A    between atoms: S1_4  and  C3_5 
REMARK    3  A    between atoms: C3_5  and  C4_6 
REMARK    4  A    between atoms: C4_6  and  N1_7 
REMARK       I    between atoms: N1_7  and  C5_8 
REMARK    5  A    between atoms: C5_8  and  C6_10 
REMARK    6  A    between atoms: C6_10  and  C7_11 
REMARK    7  A    between atoms: C7_11  and  N2_12 
REMARK       I    between atoms: N2_12  and  C8_13 
REMARK    8  A    between atoms: C8_13  and  C9_15 
REMARK    9  A    between atoms: C9_15  and  C10_16 
REMARK   10  A    between atoms: C9_15  and  O17_54 
REMARK   11  A    between atoms: C10_16  and  C13_19 
REMARK   12  A    between atoms: C13_19  and  O4_20 
REMARK   13  A    between atoms: O4_20  and  P1_21 
REMARK   14  A    between atoms: P1_21  and  O6_23 
REMARK   15  A    between atoms: P1_21  and  O7_24 
REMARK   16  A    between atoms: O7_24  and  P2_25 
REMARK   17  A    between atoms: P2_25  and  O9_27 
REMARK   18  A    between atoms: P2_25  and  O10_28 
REMARK   19  A    between atoms: O10_28  and  C14_29 
REMARK   20  A    between atoms: C14_29  and  C15_30 
REMARK   21  A    between atoms: C16_31  and  O13_49 
REMARK   22  A    between atoms: C17_32  and  O12_48 
REMARK   23  A    between atoms: C18_33  and  N3_35 
REMARK   24  A    between atoms: C21_40  and  N7_47 
REMARK   25  A    between atoms: O13_49  and  P3_50 
REMARK   26  A    between atoms: P3_50  and  O15_52 
REMARK   27  A    between atoms: P3_50  and  O16_53 
ROOT
HETATM    1  C1  UNL     1      19.435   8.737   0.021  1.00  0.00     0.104 C 
HETATM    2  C2  UNL     1      19.096   7.279  -0.058  1.00  0.00     0.182 C 
HETATM    3  O1  UNL     1      19.943   6.389  -0.051  1.00  0.00    -0.286 OA
ENDROOT
BRANCH   2   4
HETATM    4  S1  UNL     1      17.377   6.941  -0.202  1.00  0.00    -0.091 SA
BRANCH   4   5
HETATM    5  C3  UNL     1      17.075   6.110   1.391  1.00  0.00     0.102 C 
BRANCH   5   6
HETATM    6  C4  UNL     1      17.091   7.097   2.560  1.00  0.00     0.133 C 
BRANCH   6   7
HETATM    7  N1  UNL     1      16.474   8.365   2.230  1.00  0.00    -0.360 N 
HETATM    8  C5  UNL     1      16.235   9.325   3.186  1.00  0.00     0.219 C 
HETATM    9  O2  UNL     1      16.452   9.137   4.378  1.00  0.00    -0.274 OA
HETATM   10  H8  UNL     1      16.221   8.548   1.268  1.00  0.00     0.162 HD
BRANCH   8  11
HETATM   11  C6  UNL     1      15.636  10.596   2.624  1.00  0.00     0.122 C 
BRANCH  11  12
HETATM   12  C7  UNL     1      15.167  11.543   3.727  1.00  0.00     0.132 C 
BRANCH  12  13
HETATM   13  N2  UNL     1      13.993  11.065   4.425  1.00  0.00    -0.358 N 
HETATM   14  C8  UNL     1      13.587  11.668   5.602  1.00  0.00     0.247 C 
HETATM   15  O3  UNL     1      14.255  12.533   6.154  1.00  0.00    -0.271 OA
HETATM   16  H13 UNL     1      13.268  10.659   3.836  1.00  0.00     0.162 HD
BRANCH  14  17
HETATM   17  C9  UNL     1      12.234  11.182   6.142  1.00  0.00     0.219 C 
BRANCH  17  18
HETATM   18  C10 UNL     1      11.079  12.206   5.997  1.00  0.00     0.009 C 
HETATM   19  C11 UNL     1       9.722  11.521   5.773  1.00  0.00     0.020 C 
HETATM   20  C12 UNL     1      10.958  13.102   7.247  1.00  0.00     0.020 C 
BRANCH  18  21
HETATM   21  C13 UNL     1      11.434  13.078   4.759  1.00  0.00     0.192 C 
BRANCH  21  22
HETATM   22  O4  UNL     1      11.086  12.451   3.541  1.00  0.00    -0.296 OA
BRANCH  22  23
HETATM   23  P1  UNL     1      11.537  13.017   2.110  1.00  0.00     0.401 P 
HETATM   24  O5  UNL     1      12.929  13.565   2.080  1.00  0.00    -0.631 OA
BRANCH  23  25
HETATM   25  O6  UNL     1      10.413  14.075   1.653  1.00  0.00    -0.307 OA
HETATM   26  H23 UNL     1      10.761  14.975   1.606  1.00  0.00     0.222 HD
ENDBRANCH  23  25
BRANCH  23  27
HETATM   27  O7  UNL     1      11.270  11.824   1.093  1.00  0.00    -0.195 OA
BRANCH  27  28
HETATM   28  P2  UNL     1      11.057  12.159  -0.450  1.00  0.00     0.401 P 
HETATM   29  O8  UNL     1       9.661  12.457  -0.891  1.00  0.00    -0.631 OA
BRANCH  28  30
HETATM   30  O9  UNL     1      12.090  13.348  -0.712  1.00  0.00    -0.307 OA
HETATM   31  H24 UNL     1      11.823  14.210  -0.309  1.00  0.00     0.222 HD
ENDBRANCH  28  30
BRANCH  28  32
HETATM   32  O10 UNL     1      11.788  10.961  -1.210  1.00  0.00    -0.294 OA
BRANCH  32  33
HETATM   33  C14 UNL     1      12.894  10.327  -0.622  1.00  0.00     0.215 C 
BRANCH  33  34
HETATM   34  C15 UNL     1      13.511   9.449  -1.710  1.00  0.00     0.180 C 
HETATM   35  C16 UNL     1      13.660  10.251  -2.996  1.00  0.00     0.197 C 
HETATM   36  C17 UNL     1      12.781   9.533  -4.001  1.00  0.00     0.199 C 
HETATM   37  C18 UNL     1      12.746   8.109  -3.440  1.00  0.00     0.262 C 
HETATM   38  O11 UNL     1      12.724   8.291  -2.007  1.00  0.00    -0.353 OA
BRANCH  35  39
HETATM   39  O13 UNL     1      15.033  10.230  -3.372  1.00  0.00    -0.286 OA
BRANCH  39  40
HETATM   40  P3  UNL     1      15.724  11.663  -3.540  1.00  0.00     0.391 P 
HETATM   41  O14 UNL     1      17.172  11.595  -3.901  1.00  0.00    -0.632 OA
BRANCH  40  42
HETATM   42  O15 UNL     1      15.338  12.346  -2.146  1.00  0.00    -0.307 OA
HETATM   43  H36 UNL     1      15.913  12.006  -1.420  1.00  0.00     0.222 HD
ENDBRANCH  40  42
BRANCH  40  44
HETATM   44  O16 UNL     1      14.740  12.367  -4.572  1.00  0.00    -0.307 OA
HETATM   45  H37 UNL     1      14.319  11.739  -5.180  1.00  0.00     0.222 HD
ENDBRANCH  40  44
ENDBRANCH  39  40
ENDBRANCH  35  39
BRANCH  36  46
HETATM   46  O12 UNL     1      13.296   9.705  -5.324  1.00  0.00    -0.388 OA
HETATM   47  H35 UNL     1      12.526   9.625  -5.935  1.00  0.00     0.210 HD
ENDBRANCH  36  46
BRANCH  37  48
HETATM   48  N3  UNL     1      11.556   7.383  -3.837  1.00  0.00    -0.297 N 
HETATM   49  C19 UNL     1      11.492   6.264  -4.634  1.00  0.00     0.188 A 
HETATM   50  N4  UNL     1      10.275   5.769  -4.702  1.00  0.00    -0.346 N 
HETATM   51  C20 UNL     1       9.513   6.607  -3.906  1.00  0.00     0.116 A 
HETATM   52  H4  UNL     1       9.962   4.951  -5.224  1.00  0.00     0.167 HD
HETATM   53  C21 UNL     1       8.157   6.596  -3.536  1.00  0.00     0.109 A 
HETATM   54  C23 UNL     1      10.287   7.634  -3.396  1.00  0.00     0.142 A 
HETATM   55  N5  UNL     1       7.696   7.585  -2.731  1.00  0.00    -0.341 N 
HETATM   56  C22 UNL     1       8.562   8.536  -2.329  1.00  0.00     0.183 A 
HETATM   57  H5  UNL     1       6.720   7.608  -2.438  1.00  0.00     0.167 HD
HETATM   58  N6  UNL     1       9.877   8.645  -2.610  1.00  0.00    -0.336 N 
HETATM   59  H6  UNL     1      10.480   9.395  -2.271  1.00  0.00     0.168 HD
BRANCH  53  60
HETATM   60  N7  UNL     1       7.260   5.629  -3.959  1.00  0.00    -0.287 NA
HETATM   61  H33 UNL     1       7.685   4.732  -4.183  1.00  0.00     0.125 HD
HETATM   62  H34 UNL     1       6.575   5.985  -4.613  1.00  0.00     0.125 HD
ENDBRANCH  53  60
ENDBRANCH  37  48
ENDBRANCH  33  34
ENDBRANCH  32  33
ENDBRANCH  28  32
ENDBRANCH  27  28
ENDBRANCH  23  27
ENDBRANCH  22  23
ENDBRANCH  21  22
ENDBRANCH  18  21
ENDBRANCH  17  18
BRANCH  17  63
HETATM   63  O17 UNL     1      11.849   9.968   5.487  1.00  0.00    -0.385 OA
HETATM   64  H38 UNL     1      12.647   9.428   5.359  1.00  0.00     0.210 HD
ENDBRANCH  17  63
ENDBRANCH  14  17
ENDBRANCH  12  13
ENDBRANCH  11  12
ENDBRANCH   8  11
ENDBRANCH   6   7
ENDBRANCH   5   6
ENDBRANCH   4   5
ENDBRANCH   2   4
TORSDOF 27
ENDMDL
MODEL 4
REMARK VINA RESULT:      -5.7      1.837      2.471
REMARK  27 active torsions:
REMARK  status: ('A' for Active; 'I' for Inactive)
REMARK    1  A    between atoms: C2_2  and  S1_4 
REMARK    2  A    between atoms: S1_4  and  C3_5 
REMARK    3  A    between atoms: C3_5  and  C4_6 
REMARK    4  A    between atoms: C4_6  and  N1_7 
REMARK       I    between atoms: N1_7  and  C5_8 
REMARK    5  A    between atoms: C5_8  and  C6_10 
REMARK    6  A    between atoms: C6_10  and  C7_11 
REMARK    7  A    between atoms: C7_11  and  N2_12 
REMARK       I    between atoms: N2_12  and  C8_13 
REMARK    8  A    between atoms: C8_13  and  C9_15 
REMARK    9  A    between atoms: C9_15  and  C10_16 
REMARK   10  A    between atoms: C9_15  and  O17_54 
REMARK   11  A    between atoms: C10_16  and  C13_19 
REMARK   12  A    between atoms: C13_19  and  O4_20 
REMARK   13  A    between atoms: O4_20  and  P1_21 
REMARK   14  A    between atoms: P1_21  and  O6_23 
REMARK   15  A    between atoms: P1_21  and  O7_24 
REMARK   16  A    between atoms: O7_24  and  P2_25 
REMARK   17  A    between atoms: P2_25  and  O9_27 
REMARK   18  A    between atoms: P2_25  and  O10_28 
REMARK   19  A    between atoms: O10_28  and  C14_29 
REMARK   20  A    between atoms: C14_29  and  C15_30 
REMARK   21  A    between atoms: C16_31  and  O13_49 
REMARK   22  A    between atoms: C17_32  and  O12_48 
REMARK   23  A    between atoms: C18_33  and  N3_35 
REMARK   24  A    between atoms: C21_40  and  N7_47 
REMARK   25  A    between atoms: O13_49  and  P3_50 
REMARK   26  A    between atoms: P3_50  and  O15_52 
REMARK   27  A    between atoms: P3_50  and  O16_53 
ROOT
HETATM    1  C1  UNL     1       7.938   6.328  -0.699  1.00  0.00     0.104 C 
HETATM    2  C2  UNL     1       8.171   4.852  -0.817  1.00  0.00     0.182 C 
HETATM    3  O1  UNL     1       7.537   4.016  -0.178  1.00  0.00    -0.286 OA
ENDROOT
BRANCH   2   4
HETATM    4  S1  UNL     1       9.464   4.409  -1.922  1.00  0.00    -0.091 SA
BRANCH   4   5
HETATM    5  C3  UNL     1       9.211   5.650  -3.232  1.00  0.00     0.102 C 
BRANCH   5   6
HETATM    6  C4  UNL     1      10.463   6.499  -3.462  1.00  0.00     0.133 C 
BRANCH   6   7
HETATM    7  N1  UNL     1      10.576   7.596  -2.523  1.00  0.00    -0.360 N 
HETATM    8  C5  UNL     1       9.973   8.811  -2.753  1.00  0.00     0.219 C 
HETATM    9  O2  UNL     1       9.376   9.065  -3.793  1.00  0.00    -0.274 OA
HETATM   10  H8  UNL     1      11.107   7.457  -1.674  1.00  0.00     0.162 HD
BRANCH   8  11
HETATM   11  C6  UNL     1      10.167   9.799  -1.624  1.00  0.00     0.122 C 
BRANCH  11  12
HETATM   12  C7  UNL     1      11.573  10.400  -1.628  1.00  0.00     0.132 C 
BRANCH  12  13
HETATM   13  N2  UNL     1      11.655  11.656  -0.911  1.00  0.00    -0.358 N 
HETATM   14  C8  UNL     1      12.047  12.808  -1.568  1.00  0.00     0.247 C 
HETATM   15  O3  UNL     1      12.448  12.795  -2.725  1.00  0.00    -0.271 OA
HETATM   16  H13 UNL     1      11.005  11.760  -0.135  1.00  0.00     0.162 HD
BRANCH  14  17
HETATM   17  C9  UNL     1      11.920  14.096  -0.740  1.00  0.00     0.219 C 
BRANCH  17  18
HETATM   18  C10 UNL     1      13.047  14.300   0.307  1.00  0.00     0.009 C 
HETATM   19  C11 UNL     1      13.521  15.760   0.369  1.00  0.00     0.020 C 
HETATM   20  C12 UNL     1      12.586  13.890   1.720  1.00  0.00     0.020 C 
BRANCH  18  21
HETATM   21  C13 UNL     1      14.222  13.388  -0.147  1.00  0.00     0.192 C 
BRANCH  21  22
HETATM   22  O4  UNL     1      15.169  14.082  -0.934  1.00  0.00    -0.296 OA
BRANCH  22  23
HETATM   23  P1  UNL     1      16.695  13.610  -1.077  1.00  0.00     0.401 P 
HETATM   24  O5  UNL     1      17.416  13.466   0.226  1.00  0.00    -0.631 OA
BRANCH  23  25
HETATM   25  O6  UNL     1      17.403  14.629  -2.103  1.00  0.00    -0.307 OA
HETATM   26  H23 UNL     1      18.146  15.093  -1.697  1.00  0.00     0.222 HD
ENDBRANCH  23  25
BRANCH  23  27
HETATM   27  O7  UNL     1      16.634  12.283  -1.953  1.00  0.00    -0.195 OA
BRANCH  27  28
HETATM   28  P2  UNL     1      17.891  11.895  -2.852  1.00  0.00     0.401 P 
HETATM   29  O8  UNL     1      18.094  12.680  -4.106  1.00  0.00    -0.631 OA
BRANCH  28  30
HETATM   30  O9  UNL     1      19.113  11.976  -1.828  1.00  0.00    -0.307 OA
HETATM   31  H24 UNL     1      19.241  11.159  -1.287  1.00  0.00     0.222 HD
ENDBRANCH  28  30
BRANCH  28  32
HETATM   32  O10 UNL     1      17.764  10.313  -3.032  1.00  0.00    -0.294 OA
BRANCH  32  33
HETATM   33  C14 UNL     1      17.563   9.766  -4.309  1.00  0.00     0.215 C 
BRANCH  33  34
HETATM   34  C15 UNL     1      16.840   8.437  -4.095  1.00  0.00     0.180 C 
HETATM   35  C16 UNL     1      15.337   8.673  -4.030  1.00  0.00     0.197 C 
HETATM   36  C17 UNL     1      14.937   8.226  -2.636  1.00  0.00     0.199 C 
HETATM   37  C18 UNL     1      16.037   7.218  -2.293  1.00  0.00     0.262 C 
HETATM   38  O11 UNL     1      17.230   7.777  -2.885  1.00  0.00    -0.353 OA
BRANCH  35  39
HETATM   39  O13 UNL     1      14.723   7.884  -5.043  1.00  0.00    -0.286 OA
BRANCH  39  40
HETATM   40  P3  UNL     1      13.922   8.699  -6.161  1.00  0.00     0.391 P 
HETATM   41  O14 UNL     1      14.264   8.298  -7.560  1.00  0.00    -0.632 OA
BRANCH  40  42
HETATM   42  O15 UNL     1      14.244  10.204  -5.722  1.00  0.00    -0.307 OA
HETATM   43  H36 UNL     1      14.390  10.774  -6.514  1.00  0.00     0.222 HD
ENDBRANCH  40  42
BRANCH  40  44
HETATM   44  O16 UNL     1      12.419   8.497  -5.684  1.00  0.00    -0.307 OA
HETATM   45  H37 UNL     1      12.348   8.304  -4.735  1.00  0.00     0.222 HD
ENDBRANCH  40  44
ENDBRANCH  39  40
ENDBRANCH  35  39
BRANCH  36  46
HETATM   46  O12 UNL     1      13.588   7.752  -2.635  1.00  0.00    -0.388 OA
HETATM   47  H35 UNL     1      13.639   6.771  -2.533  1.00  0.00     0.210 HD
ENDBRANCH  36  46
BRANCH  37  48
HETATM   48  N3  UNL     1      16.244   7.085  -0.864  1.00  0.00    -0.297 N 
HETATM   49  C19 UNL     1      16.116   5.943  -0.109  1.00  0.00     0.188 A 
HETATM   50  N4  UNL     1      16.496   6.125   1.137  1.00  0.00    -0.346 N 
HETATM   51  C20 UNL     1      16.894   7.449   1.191  1.00  0.00     0.116 A 
HETATM   52  H4  UNL     1      16.497   5.442   1.895  1.00  0.00     0.167 HD
HETATM   53  C21 UNL     1      17.438   8.239   2.218  1.00  0.00     0.109 A 
HETATM   54  C23 UNL     1      16.706   8.066  -0.032  1.00  0.00     0.142 A 
HETATM   55  N5  UNL     1      17.721   9.539   1.957  1.00  0.00    -0.341 N 
HETATM   56  C22 UNL     1      17.462  10.012   0.722  1.00  0.00     0.183 A 
HETATM   57  H5  UNL     1      18.119  10.142   2.676  1.00  0.00     0.167 HD
HETATM   58  N6  UNL     1      16.954   9.352  -0.339  1.00  0.00    -0.336 N 
HETATM   59  H6  UNL     1      16.781   9.771  -1.253  1.00  0.00     0.168 HD
BRANCH  53  60
HETATM   60  N7  UNL     1      17.692   7.762   3.494  1.00  0.00    -0.287 NA
HETATM   61  H33 UNL     1      17.219   8.275   4.235  1.00  0.00     0.125 HD
HETATM   62  H34 UNL     1      18.666   7.537   3.645  1.00  0.00     0.125 HD
ENDBRANCH  53  60
ENDBRANCH  37  48
ENDBRANCH  33  34
ENDBRANCH  32  33
ENDBRANCH  28  32
ENDBRANCH  27  28
ENDBRANCH  23  27
ENDBRANCH  22  23
ENDBRANCH  21  22
ENDBRANCH  18  21
ENDBRANCH  17  18
BRANCH  17  63
HETATM   63  O17 UNL     1      11.891  15.237  -1.604  1.00  0.00    -0.385 OA
HETATM   64  H38 UNL     1      12.689  15.215  -2.160  1.00  0.00     0.210 HD
ENDBRANCH  17  63
ENDBRANCH  14  17
ENDBRANCH  12  13
ENDBRANCH  11  12
ENDBRANCH   8  11
ENDBRANCH   6   7
ENDBRANCH   5   6
ENDBRANCH   4   5
ENDBRANCH   2   4
TORSDOF 27
ENDMDL
MODEL 5
REMARK VINA RESULT:      -5.6      3.400      6.473
REMARK  27 active torsions:
REMARK  status: ('A' for Active; 'I' for Inactive)
REMARK    1  A    between atoms: C2_2  and  S1_4 
REMARK    2  A    between atoms: S1_4  and  C3_5 
REMARK    3  A    between atoms: C3_5  and  C4_6 
REMARK    4  A    between atoms: C4_6  and  N1_7 
REMARK       I    between atoms: N1_7  and  C5_8 
REMARK    5  A    between atoms: C5_8  and  C6_10 
REMARK    6  A    between atoms: C6_10  and  C7_11 
REMARK    7  A    between atoms: C7_11  and  N2_12 
REMARK       I    between atoms: N2_12  and  C8_13 
REMARK    8  A    between atoms: C8_13  and  C9_15 
REMARK    9  A    between atoms: C9_15  and  C10_16 
REMARK   10  A    between atoms: C9_15  and  O17_54 
REMARK   11  A    between atoms: C10_16  and  C13_19 
REMARK   12  A    between atoms: C13_19  and  O4_20 
REMARK   13  A    between atoms: O4_20  and  P1_21 
REMARK   14  A    between atoms: P1_21  and  O6_23 
REMARK   15  A    between atoms: P1_21  and  O7_24 
REMARK   16  A    between atoms: O7_24  and  P2_25 
REMARK   17  A    between atoms: P2_25  and  O9_27 
REMARK   18  A    between atoms: P2_25  and  O10_28 
REMARK   19  A    between atoms: O10_28  and  C14_29 
REMARK   20  A    between atoms: C14_29  and  C15_30 
REMARK   21  A    between atoms: C16_31  and  O13_49 
REMARK   22  A    between atoms: C17_32  and  O12_48 
REMARK   23  A    between atoms: C18_33  and  N3_35 
REMARK   24  A    between atoms: C21_40  and  N7_47 
REMARK   25  A    between atoms: O13_49  and  P3_50 
REMARK   26  A    between atoms: P3_50  and  O15_52 
REMARK   27  A    between atoms: P3_50  and  O16_53 
ROOT
HETATM    1  C1  UNL     1       9.585  13.685  -0.622  1.00  0.00     0.104 C 
HETATM    2  C2  UNL     1      10.879  14.112  -1.245  1.00  0.00     0.182 C 
HETATM    3  O1  UNL     1      11.616  13.346  -1.862  1.00  0.00    -0.286 OA
ENDROOT
BRANCH   2   4
HETATM    4  S1  UNL     1      11.285  15.803  -0.985  1.00  0.00    -0.091 SA
BRANCH   4   5
HETATM    5  C3  UNL     1      11.222  15.876   0.834  1.00  0.00     0.102 C 
BRANCH   5   6
HETATM    6  C4  UNL     1      12.236  14.928   1.478  1.00  0.00     0.133 C 
BRANCH   6   7
HETATM    7  N1  UNL     1      11.792  14.421   2.760  1.00  0.00    -0.360 N 
HETATM    8  C5  UNL     1      11.428  13.106   2.931  1.00  0.00     0.219 C 
HETATM    9  O2  UNL     1      11.379  12.308   2.002  1.00  0.00    -0.274 OA
HETATM   10  H8  UNL     1      11.759  15.054   3.548  1.00  0.00     0.162 HD
BRANCH   8  11
HETATM   11  C6  UNL     1      11.050  12.770   4.358  1.00  0.00     0.122 C 
BRANCH  11  12
HETATM   12  C7  UNL     1      12.009  11.754   4.978  1.00  0.00     0.132 C 
BRANCH  12  13
HETATM   13  N2  UNL     1      13.293  11.705   4.312  1.00  0.00    -0.358 N 
HETATM   14  C8  UNL     1      13.899  10.489   4.056  1.00  0.00     0.247 C 
HETATM   15  O3  UNL     1      13.446   9.433   4.479  1.00  0.00    -0.271 OA
HETATM   16  H13 UNL     1      13.476  12.463   3.658  1.00  0.00     0.162 HD
BRANCH  14  17
HETATM   17  C9  UNL     1      15.166  10.570   3.190  1.00  0.00     0.219 C 
BRANCH  17  18
HETATM   18  C10 UNL     1      16.479  10.222   3.939  1.00  0.00     0.009 C 
HETATM   19  C11 UNL     1      17.583  11.258   3.680  1.00  0.00     0.020 C 
HETATM   20  C12 UNL     1      16.256  10.136   5.462  1.00  0.00     0.020 C 
BRANCH  18  21
HETATM   21  C13 UNL     1      16.926   8.835   3.394  1.00  0.00     0.192 C 
BRANCH  21  22
HETATM   22  O4  UNL     1      18.048   8.928   2.540  1.00  0.00    -0.296 OA
BRANCH  22  23
HETATM   23  P1  UNL     1      18.036   8.399   1.026  1.00  0.00     0.401 P 
HETATM   24  O5  UNL     1      19.337   7.816   0.572  1.00  0.00    -0.631 OA
BRANCH  23  25
HETATM   25  O6  UNL     1      17.516   9.618   0.112  1.00  0.00    -0.307 OA
HETATM   26  H23 UNL     1      17.103   9.307  -0.704  1.00  0.00     0.222 HD
ENDBRANCH  23  25
BRANCH  23  27
HETATM   27  O7  UNL     1      16.798   7.403   0.949  1.00  0.00    -0.195 OA
BRANCH  27  28
HETATM   28  P2  UNL     1      16.157   7.082  -0.474  1.00  0.00     0.401 P 
HETATM   29  O8  UNL     1      17.081   7.081  -1.648  1.00  0.00    -0.631 OA
BRANCH  28  30
HETATM   30  O9  UNL     1      15.409   5.692  -0.232  1.00  0.00    -0.307 OA
HETATM   31  H24 UNL     1      15.506   5.335   0.684  1.00  0.00     0.222 HD
ENDBRANCH  28  30
BRANCH  28  32
HETATM   32  O10 UNL     1      14.909   8.074  -0.568  1.00  0.00    -0.294 OA
BRANCH  32  33
HETATM   33  C14 UNL     1      14.711   8.845  -1.724  1.00  0.00     0.215 C 
BRANCH  33  34
HETATM   34  C15 UNL     1      14.323   7.864  -2.830  1.00  0.00     0.180 C 
HETATM   35  C16 UNL     1      14.473   8.535  -4.189  1.00  0.00     0.197 C 
HETATM   36  C17 UNL     1      13.072   8.541  -4.771  1.00  0.00     0.199 C 
HETATM   37  C18 UNL     1      12.419   7.358  -4.052  1.00  0.00     0.262 C 
HETATM   38  O11 UNL     1      12.972   7.402  -2.718  1.00  0.00    -0.353 OA
BRANCH  35  39
HETATM   39  O13 UNL     1      15.375   7.756  -4.968  1.00  0.00    -0.286 OA
BRANCH  39  40
HETATM   40  P3  UNL     1      16.724   8.494  -5.403  1.00  0.00     0.391 P 
HETATM   41  O14 UNL     1      17.053   8.343  -6.853  1.00  0.00    -0.632 OA
BRANCH  40  42
HETATM   42  O15 UNL     1      17.755   7.883  -4.343  1.00  0.00    -0.307 OA
HETATM   43  H36 UNL     1      18.563   7.544  -4.797  1.00  0.00     0.222 HD
ENDBRANCH  40  42
BRANCH  40  44
HETATM   44  O16 UNL     1      16.470   9.965  -4.855  1.00  0.00    -0.307 OA
HETATM   45  H37 UNL     1      15.548  10.115  -4.594  1.00  0.00     0.222 HD
ENDBRANCH  40  44
ENDBRANCH  39  40
ENDBRANCH  35  39
BRANCH  36  46
HETATM   46  O12 UNL     1      13.128   8.491  -6.199  1.00  0.00    -0.388 OA
HETATM   47  H35 UNL     1      14.075   8.346  -6.435  1.00  0.00     0.210 HD
ENDBRANCH  36  46
BRANCH  37  48
HETATM   48  N3  UNL     1      10.978   7.488  -3.963  1.00  0.00    -0.297 N 
HETATM   49  C19 UNL     1      10.033   6.732  -4.616  1.00  0.00     0.188 A 
HETATM   50  N4  UNL     1       8.810   7.015  -4.225  1.00  0.00    -0.346 N 
HETATM   51  C20 UNL     1       8.970   8.001  -3.267  1.00  0.00     0.116 A 
HETATM   52  H4  UNL     1       7.938   6.601  -4.554  1.00  0.00     0.167 HD
HETATM   53  C21 UNL     1       8.059   8.689  -2.447  1.00  0.00     0.109 A 
HETATM   54  C23 UNL     1      10.305   8.331  -3.123  1.00  0.00     0.142 A 
HETATM   55  N5  UNL     1       8.535   9.630  -1.595  1.00  0.00    -0.341 N 
HETATM   56  C22 UNL     1       9.862   9.863  -1.580  1.00  0.00     0.183 A 
HETATM   57  H5  UNL     1       7.905  10.147  -0.982  1.00  0.00     0.167 HD
HETATM   58  N6  UNL     1      10.827   9.265  -2.308  1.00  0.00    -0.336 N 
HETATM   59  H6  UNL     1      11.820   9.489  -2.248  1.00  0.00     0.168 HD
BRANCH  53  60
HETATM   60  N7  UNL     1       6.691   8.464  -2.470  1.00  0.00    -0.287 NA
HETATM   61  H33 UNL     1       6.297   8.188  -1.573  1.00  0.00     0.125 HD
HETATM   62  H34 UNL     1       6.392   7.938  -3.280  1.00  0.00     0.125 HD
ENDBRANCH  53  60
ENDBRANCH  37  48
ENDBRANCH  33  34
ENDBRANCH  32  33
ENDBRANCH  28  32
ENDBRANCH  27  28
ENDBRANCH  23  27
ENDBRANCH  22  23
ENDBRANCH  21  22
ENDBRANCH  18  21
ENDBRANCH  17  18
BRANCH  17  63
HETATM   63  O17 UNL     1      15.044   9.702   2.058  1.00  0.00    -0.385 OA
HETATM   64  H38 UNL     1      15.897   9.694   1.591  1.00  0.00     0.210 HD
ENDBRANCH  17  63
ENDBRANCH  14  17
ENDBRANCH  12  13
ENDBRANCH  11  12
ENDBRANCH   8  11
ENDBRANCH   6   7
ENDBRANCH   5   6
ENDBRANCH   4   5
ENDBRANCH   2   4
TORSDOF 27
ENDMDL
MODEL 6
REMARK VINA RESULT:      -5.6      4.009      6.852
REMARK  27 active torsions:
REMARK  status: ('A' for Active; 'I' for Inactive)
REMARK    1  A    between atoms: C2_2  and  S1_4 
REMARK    2  A    between atoms: S1_4  and  C3_5 
REMARK    3  A    between atoms: C3_5  and  C4_6 
REMARK    4  A    between atoms: C4_6  and  N1_7 
REMARK       I    between atoms: N1_7  and  C5_8 
REMARK    5  A    between atoms: C5_8  and  C6_10 
REMARK    6  A    between atoms: C6_10  and  C7_11 
REMARK    7  A    between atoms: C7_11  and  N2_12 
REMARK       I    between atoms: N2_12  and  C8_13 
REMARK    8  A    between atoms: C8_13  and  C9_15 
REMARK    9  A    between atoms: C9_15  and  C10_16 
REMARK   10  A    between atoms: C9_15  and  O17_54 
REMARK   11  A    between atoms: C10_16  and  C13_19 
REMARK   12  A    between atoms: C13_19  and  O4_20 
REMARK   13  A    between atoms: O4_20  and  P1_21 
REMARK   14  A    between atoms: P1_21  and  O6_23 
REMARK   15  A    between atoms: P1_21  and  O7_24 
REMARK   16  A    between atoms: O7_24  and  P2_25 
REMARK   17  A    between atoms: P2_25  and  O9_27 
REMARK   18  A    between atoms: P2_25  and  O10_28 
REMARK   19  A    between atoms: O10_28  and  C14_29 
REMARK   20  A    between atoms: C14_29  and  C15_30 
REMARK   21  A    between atoms: C16_31  and  O13_49 
REMARK   22  A    between atoms: C17_32  and  O12_48 
REMARK   23  A    between atoms: C18_33  and  N3_35 
REMARK   24  A    between atoms: C21_40  and  N7_47 
REMARK   25  A    between atoms: O13_49  and  P3_50 
REMARK   26  A    between atoms: P3_50  and  O15_52 
REMARK   27  A    between atoms: P3_50  and  O16_53 
ROOT
HETATM    1  C1  UNL     1       6.764  14.140  -3.494  1.00  0.00     0.104 C 
HETATM    2  C2  UNL     1       7.511  14.278  -2.203  1.00  0.00     0.182 C 
HETATM    3  O1  UNL     1       7.799  13.323  -1.485  1.00  0.00    -0.286 OA
ENDROOT
BRANCH   2   4
HETATM    4  S1  UNL     1       7.914  15.934  -1.772  1.00  0.00    -0.091 SA
BRANCH   4   5
HETATM    5  C3  UNL     1       9.160  15.638  -0.476  1.00  0.00     0.102 C 
BRANCH   5   6
HETATM    6  C4  UNL     1      10.557  15.431  -1.065  1.00  0.00     0.133 C 
BRANCH   6   7
HETATM    7  N1  UNL     1      10.912  14.032  -1.184  1.00  0.00    -0.360 N 
HETATM    8  C5  UNL     1      12.176  13.578  -0.885  1.00  0.00     0.219 C 
HETATM    9  O2  UNL     1      13.093  14.332  -0.581  1.00  0.00    -0.274 OA
HETATM   10  H8  UNL     1      10.206  13.374  -1.488  1.00  0.00     0.162 HD
BRANCH   8  11
HETATM   11  C6  UNL     1      12.322  12.078  -1.021  1.00  0.00     0.122 C 
BRANCH  11  12
HETATM   12  C7  UNL     1      13.746  11.613  -0.719  1.00  0.00     0.132 C 
BRANCH  12  13
HETATM   13  N2  UNL     1      14.690  11.965  -1.758  1.00  0.00    -0.358 N 
HETATM   14  C8  UNL     1      15.905  12.539  -1.431  1.00  0.00     0.247 C 
HETATM   15  O3  UNL     1      16.178  12.878  -0.286  1.00  0.00    -0.271 OA
HETATM   16  H13 UNL     1      14.661  11.382  -2.592  1.00  0.00     0.162 HD
BRANCH  14  17
HETATM   17  C9  UNL     1      16.880  12.698  -2.606  1.00  0.00     0.219 C 
BRANCH  17  18
HETATM   18  C10 UNL     1      18.096  11.735  -2.567  1.00  0.00     0.009 C 
HETATM   19  C11 UNL     1      18.821  11.663  -3.919  1.00  0.00     0.020 C 
HETATM   20  C12 UNL     1      19.123  12.165  -1.499  1.00  0.00     0.020 C 
BRANCH  18  21
HETATM   21  C13 UNL     1      17.520  10.335  -2.207  1.00  0.00     0.192 C 
BRANCH  21  22
HETATM   22  O4  UNL     1      18.394   9.589  -1.384  1.00  0.00    -0.296 OA
BRANCH  22  23
HETATM   23  P1  UNL     1      18.706   8.035  -1.629  1.00  0.00     0.401 P 
HETATM   24  O5  UNL     1      19.444   7.375  -0.507  1.00  0.00    -0.631 OA
BRANCH  23  25
HETATM   25  O6  UNL     1      19.455   7.929  -3.050  1.00  0.00    -0.307 OA
HETATM   26  H23 UNL     1      20.081   7.194  -3.075  1.00  0.00     0.222 HD
ENDBRANCH  23  25
BRANCH  23  27
HETATM   27  O7  UNL     1      17.297   7.382  -1.974  1.00  0.00    -0.195 OA
BRANCH  27  28
HETATM   28  P2  UNL     1      16.252   7.141  -0.796  1.00  0.00     0.401 P 
HETATM   29  O8  UNL     1      15.829   5.730  -0.546  1.00  0.00    -0.631 OA
BRANCH  28  30
HETATM   30  O9  UNL     1      16.944   7.845   0.459  1.00  0.00    -0.307 OA
HETATM   31  H24 UNL     1      16.396   7.833   1.281  1.00  0.00     0.222 HD
ENDBRANCH  28  30
BRANCH  28  32
HETATM   32  O10 UNL     1      15.076   8.177  -1.104  1.00  0.00    -0.294 OA
BRANCH  32  33
HETATM   33  C14 UNL     1      13.891   7.735  -1.711  1.00  0.00     0.215 C 
BRANCH  33  34
HETATM   34  C15 UNL     1      13.588   8.730  -2.830  1.00  0.00     0.180 C 
HETATM   35  C16 UNL     1      12.609   8.112  -3.819  1.00  0.00     0.197 C 
HETATM   36  C17 UNL     1      13.371   8.057  -5.130  1.00  0.00     0.199 C 
HETATM   37  C18 UNL     1      14.393   9.184  -4.957  1.00  0.00     0.262 C 
HETATM   38  O11 UNL     1      14.756   9.124  -3.560  1.00  0.00    -0.353 OA
BRANCH  35  39
HETATM   39  O13 UNL     1      11.467   8.957  -3.897  1.00  0.00    -0.286 OA
BRANCH  39  40
HETATM   40  P3  UNL     1      10.060   8.241  -3.641  1.00  0.00     0.391 P 
HETATM   41  O14 UNL     1       8.938   9.193  -3.380  1.00  0.00    -0.632 OA
BRANCH  40  42
HETATM   42  O15 UNL     1      10.453   7.220  -2.473  1.00  0.00    -0.307 OA
HETATM   43  H36 UNL     1       9.845   7.322  -1.703  1.00  0.00     0.222 HD
ENDBRANCH  40  42
BRANCH  40  44
HETATM   44  O16 UNL     1       9.948   7.302  -4.919  1.00  0.00    -0.307 OA
HETATM   45  H37 UNL     1       9.963   7.798  -5.753  1.00  0.00     0.222 HD
ENDBRANCH  40  44
ENDBRANCH  39  40
ENDBRANCH  35  39
BRANCH  36  46
HETATM   46  O12 UNL     1      12.467   8.155  -6.234  1.00  0.00    -0.388 OA
HETATM   47  H35 UNL     1      11.820   8.864  -6.001  1.00  0.00     0.210 HD
ENDBRANCH  36  46
BRANCH  37  48
HETATM   48  N3  UNL     1      15.584   8.982  -5.757  1.00  0.00    -0.297 N 
HETATM   49  C19 UNL     1      16.806   8.519  -5.327  1.00  0.00     0.188 A 
HETATM   50  N4  UNL     1      17.644   8.328  -6.322  1.00  0.00    -0.346 N 
HETATM   51  C20 UNL     1      16.930   8.680  -7.453  1.00  0.00     0.116 A 
HETATM   52  H4  UNL     1      18.607   7.994  -6.271  1.00  0.00     0.167 HD
HETATM   53  C21 UNL     1      17.244   8.660  -8.823  1.00  0.00     0.109 A 
HETATM   54  C23 UNL     1      15.665   9.125  -7.114  1.00  0.00     0.142 A 
HETATM   55  N5  UNL     1      16.312   9.088  -9.709  1.00  0.00    -0.341 N 
HETATM   56  C22 UNL     1      15.127   9.517  -9.232  1.00  0.00     0.183 A 
HETATM   57  H5  UNL     1      16.503   9.084 -10.711  1.00  0.00     0.167 HD
HETATM   58  N6  UNL     1      14.712   9.573  -7.950  1.00  0.00    -0.336 N 
HETATM   59  H6  UNL     1      13.796   9.911  -7.653  1.00  0.00     0.168 HD
BRANCH  53  60
HETATM   60  N7  UNL     1      18.466   8.234  -9.319  1.00  0.00    -0.287 NA
HETATM   61  H33 UNL     1      18.460   8.007 -10.311  1.00  0.00     0.125 HD
HETATM   62  H34 UNL     1      18.935   7.581  -8.705  1.00  0.00     0.125 HD
ENDBRANCH  53  60
ENDBRANCH  37  48
ENDBRANCH  33  34
ENDBRANCH  32  33
ENDBRANCH  28  32
ENDBRANCH  27  28
ENDBRANCH  23  27
ENDBRANCH  22  23
ENDBRANCH  21  22
ENDBRANCH  18  21
ENDBRANCH  17  18
BRANCH  17  63
HETATM   63  O17 UNL     1      16.192  12.509  -3.847  1.00  0.00    -0.385 OA
HETATM   64  H38 UNL     1      16.592  11.749  -4.302  1.00  0.00     0.210 HD
ENDBRANCH  17  63
ENDBRANCH  14  17
ENDBRANCH  12  13
ENDBRANCH  11  12
ENDBRANCH   8  11
ENDBRANCH   6   7
ENDBRANCH   5   6
ENDBRANCH   4   5
ENDBRANCH   2   4
TORSDOF 27
ENDMDL
MODEL 7
REMARK VINA RESULT:      -5.5      2.649      6.922
REMARK  27 active torsions:
REMARK  status: ('A' for Active; 'I' for Inactive)
REMARK    1  A    between atoms: C2_2  and  S1_4 
REMARK    2  A    between atoms: S1_4  and  C3_5 
REMARK    3  A    between atoms: C3_5  and  C4_6 
REMARK    4  A    between atoms: C4_6  and  N1_7 
REMARK       I    between atoms: N1_7  and  C5_8 
REMARK    5  A    between atoms: C5_8  and  C6_10 
REMARK    6  A    between atoms: C6_10  and  C7_11 
REMARK    7  A    between atoms: C7_11  and  N2_12 
REMARK       I    between atoms: N2_12  and  C8_13 
REMARK    8  A    between atoms: C8_13  and  C9_15 
REMARK    9  A    between atoms: C9_15  and  C10_16 
REMARK   10  A    between atoms: C9_15  and  O17_54 
REMARK   11  A    between atoms: C10_16  and  C13_19 
REMARK   12  A    between atoms: C13_19  and  O4_20 
REMARK   13  A    between atoms: O4_20  and  P1_21 
REMARK   14  A    between atoms: P1_21  and  O6_23 
REMARK   15  A    between atoms: P1_21  and  O7_24 
REMARK   16  A    between atoms: O7_24  and  P2_25 
REMARK   17  A    between atoms: P2_25  and  O9_27 
REMARK   18  A    between atoms: P2_25  and  O10_28 
REMARK   19  A    between atoms: O10_28  and  C14_29 
REMARK   20  A    between atoms: C14_29  and  C15_30 
REMARK   21  A    between atoms: C16_31  and  O13_49 
REMARK   22  A    between atoms: C17_32  and  O12_48 
REMARK   23  A    between atoms: C18_33  and  N3_35 
REMARK   24  A    between atoms: C21_40  and  N7_47 
REMARK   25  A    between atoms: O13_49  and  P3_50 
REMARK   26  A    between atoms: P3_50  and  O15_52 
REMARK   27  A    between atoms: P3_50  and  O16_53 
ROOT
HETATM    1  C1  UNL     1       7.544   4.421  -0.712  1.00  0.00     0.104 C 
HETATM    2  C2  UNL     1       8.505   4.652  -1.838  1.00  0.00     0.182 C 
HETATM    3  O1  UNL     1       9.604   4.108  -1.909  1.00  0.00    -0.286 OA
ENDROOT
BRANCH   2   4
HETATM    4  S1  UNL     1       7.947   5.804  -3.043  1.00  0.00    -0.091 SA
BRANCH   4   5
HETATM    5  C3  UNL     1       7.345   7.140  -1.960  1.00  0.00     0.102 C 
BRANCH   5   6
HETATM    6  C4  UNL     1       7.838   8.513  -2.420  1.00  0.00     0.133 C 
BRANCH   6   7
HETATM    7  N1  UNL     1       9.262   8.537  -2.684  1.00  0.00    -0.360 N 
HETATM    8  C5  UNL     1      10.101   9.426  -2.054  1.00  0.00     0.219 C 
HETATM    9  O2  UNL     1       9.689  10.299  -1.298  1.00  0.00    -0.274 OA
HETATM   10  H8  UNL     1       9.645   7.874  -3.345  1.00  0.00     0.162 HD
BRANCH   8  11
HETATM   11  C6  UNL     1      11.556   9.247  -2.429  1.00  0.00     0.122 C 
BRANCH  11  12
HETATM   12  C7  UNL     1      11.918   7.775  -2.622  1.00  0.00     0.132 C 
BRANCH  12  13
HETATM   13  N2  UNL     1      13.097   7.379  -1.880  1.00  0.00    -0.358 N 
HETATM   14  C8  UNL     1      14.357   7.587  -2.411  1.00  0.00     0.247 C 
HETATM   15  O3  UNL     1      14.523   7.994  -3.554  1.00  0.00    -0.271 OA
HETATM   16  H13 UNL     1      13.008   7.410  -0.867  1.00  0.00     0.162 HD
BRANCH  14  17
HETATM   17  C9  UNL     1      15.518   7.286  -1.452  1.00  0.00     0.219 C 
BRANCH  17  18
HETATM   18  C10 UNL     1      16.207   8.545  -0.863  1.00  0.00     0.009 C 
HETATM   19  C11 UNL     1      16.866   8.261   0.496  1.00  0.00     0.020 C 
HETATM   20  C12 UNL     1      17.292   9.092  -1.812  1.00  0.00     0.020 C 
BRANCH  18  21
HETATM   21  C13 UNL     1      15.082   9.604  -0.687  1.00  0.00     0.192 C 
BRANCH  21  22
HETATM   22  O4  UNL     1      15.280  10.741  -1.503  1.00  0.00    -0.296 OA
BRANCH  22  23
HETATM   23  P1  UNL     1      14.234  11.954  -1.575  1.00  0.00     0.401 P 
HETATM   24  O5  UNL     1      13.517  12.067  -2.884  1.00  0.00    -0.631 OA
BRANCH  23  25
HETATM   25  O6  UNL     1      15.036  13.286  -1.157  1.00  0.00    -0.307 OA
HETATM   26  H23 UNL     1      15.981  13.212  -1.342  1.00  0.00     0.222 HD
ENDBRANCH  23  25
BRANCH  23  27
HETATM   27  O7  UNL     1      13.286  11.755  -0.313  1.00  0.00    -0.195 OA
BRANCH  27  28
HETATM   28  P2  UNL     1      12.185  12.861   0.005  1.00  0.00     0.401 P 
HETATM   29  O8  UNL     1      12.669  14.261   0.202  1.00  0.00    -0.631 OA
BRANCH  28  30
HETATM   30  O9  UNL     1      11.142  12.696  -1.193  1.00  0.00    -0.307 OA
HETATM   31  H24 UNL     1      11.486  12.173  -1.958  1.00  0.00     0.222 HD
ENDBRANCH  28  30
BRANCH  28  32
HETATM   32  O10 UNL     1      11.347  12.236   1.212  1.00  0.00    -0.294 OA
BRANCH  32  33
HETATM   33  C14 UNL     1      11.197  12.954   2.409  1.00  0.00     0.215 C 
BRANCH  33  34
HETATM   34  C15 UNL     1      11.540  11.982   3.536  1.00  0.00     0.180 C 
HETATM   35  C16 UNL     1      11.418  12.687   4.880  1.00  0.00     0.197 C 
HETATM   36  C17 UNL     1      12.817  12.644   5.465  1.00  0.00     0.199 C 
HETATM   37  C18 UNL     1      13.419  11.419   4.773  1.00  0.00     0.262 C 
HETATM   38  O11 UNL     1      12.870  11.459   3.437  1.00  0.00    -0.353 OA
BRANCH  35  39
HETATM   39  O13 UNL     1      10.482  11.964   5.674  1.00  0.00    -0.286 OA
BRANCH  39  40
HETATM   40  P3  UNL     1       9.356  12.848   6.387  1.00  0.00     0.391 P 
HETATM   41  O14 UNL     1       8.841  13.966   5.540  1.00  0.00    -0.632 OA
BRANCH  40  42
HETATM   42  O15 UNL     1      10.098  13.233   7.751  1.00  0.00    -0.307 OA
HETATM   43  H36 UNL     1       9.492  13.733   8.348  1.00  0.00     0.222 HD
ENDBRANCH  40  42
BRANCH  40  44
HETATM   44  O16 UNL     1       8.320  11.730   6.842  1.00  0.00    -0.307 OA
HETATM   45  H37 UNL     1       8.509  11.379   7.726  1.00  0.00     0.222 HD
ENDBRANCH  40  44
ENDBRANCH  39  40
ENDBRANCH  35  39
BRANCH  36  46
HETATM   46  O12 UNL     1      12.757  12.627   6.894  1.00  0.00    -0.388 OA
HETATM   47  H35 UNL     1      12.212  11.842   7.140  1.00  0.00     0.210 HD
ENDBRANCH  36  46
BRANCH  37  48
HETATM   48  N3  UNL     1      14.864  11.485   4.685  1.00  0.00    -0.297 N 
HETATM   49  C19 UNL     1      15.662  12.583   4.908  1.00  0.00     0.188 A 
HETATM   50  N4  UNL     1      16.942  12.284   4.873  1.00  0.00    -0.346 N 
HETATM   51  C20 UNL     1      16.977  10.925   4.618  1.00  0.00     0.116 A 
HETATM   52  H4  UNL     1      17.734  12.914   5.003  1.00  0.00     0.167 HD
HETATM   53  C21 UNL     1      18.032  10.003   4.503  1.00  0.00     0.109 A 
HETATM   54  C23 UNL     1      15.697  10.424   4.460  1.00  0.00     0.142 A 
HETATM   55  N5  UNL     1      17.736   8.708   4.232  1.00  0.00    -0.341 N 
HETATM   56  C22 UNL     1      16.441   8.368   4.080  1.00  0.00     0.183 A 
HETATM   57  H5  UNL     1      18.475   8.010   4.145  1.00  0.00     0.167 HD
HETATM   58  N6  UNL     1      15.351   9.156   4.175  1.00  0.00    -0.336 N 
HETATM   59  H6  UNL     1      14.391   8.834   4.048  1.00  0.00     0.168 HD
BRANCH  53  60
HETATM   60  N7  UNL     1      19.366  10.351   4.644  1.00  0.00    -0.287 NA
HETATM   61  H33 UNL     1      19.998   9.843   4.029  1.00  0.00     0.125 HD
HETATM   62  H34 UNL     1      19.649  10.447   5.610  1.00  0.00     0.125 HD
ENDBRANCH  53  60
ENDBRANCH  37  48
ENDBRANCH  33  34
ENDBRANCH  32  33
ENDBRANCH  28  32
ENDBRANCH  27  28
ENDBRANCH  23  27
ENDBRANCH  22  23
ENDBRANCH  21  22
ENDBRANCH  18  21
ENDBRANCH  17  18
BRANCH  17  63
HETATM   63  O17 UNL     1      15.063   6.468  -0.369  1.00  0.00    -0.385 OA
HETATM   64  H38 UNL     1      15.532   5.618  -0.415  1.00  0.00     0.210 HD
ENDBRANCH  17  63
ENDBRANCH  14  17
ENDBRANCH  12  13
ENDBRANCH  11  12
ENDBRANCH   8  11
ENDBRANCH   6   7
ENDBRANCH   5   6
ENDBRANCH   4   5
ENDBRANCH   2   4
TORSDOF 27
ENDMDL
MODEL 8
REMARK VINA RESULT:      -5.5      2.987      5.461
REMARK  27 active torsions:
REMARK  status: ('A' for Active; 'I' for Inactive)
REMARK    1  A    between atoms: C2_2  and  S1_4 
REMARK    2  A    between atoms: S1_4  and  C3_5 
REMARK    3  A    between atoms: C3_5  and  C4_6 
REMARK    4  A    between atoms: C4_6  and  N1_7 
REMARK       I    between atoms: N1_7  and  C5_8 
REMARK    5  A    between atoms: C5_8  and  C6_10 
REMARK    6  A    between atoms: C6_10  and  C7_11 
REMARK    7  A    between atoms: C7_11  and  N2_12 
REMARK       I    between atoms: N2_12  and  C8_13 
REMARK    8  A    between atoms: C8_13  and  C9_15 
REMARK    9  A    between atoms: C9_15  and  C10_16 
REMARK   10  A    between atoms: C9_15  and  O17_54 
REMARK   11  A    between atoms: C10_16  and  C13_19 
REMARK   12  A    between atoms: C13_19  and  O4_20 
REMARK   13  A    between atoms: O4_20  and  P1_21 
REMARK   14  A    between atoms: P1_21  and  O6_23 
REMARK   15  A    between atoms: P1_21  and  O7_24 
REMARK   16  A    between atoms: O7_24  and  P2_25 
REMARK   17  A    between atoms: P2_25  and  O9_27 
REMARK   18  A    between atoms: P2_25  and  O10_28 
REMARK   19  A    between atoms: O10_28  and  C14_29 
REMARK   20  A    between atoms: C14_29  and  C15_30 
REMARK   21  A    between atoms: C16_31  and  O13_49 
REMARK   22  A    between atoms: C17_32  and  O12_48 
REMARK   23  A    between atoms: C18_33  and  N3_35 
REMARK   24  A    between atoms: C21_40  and  N7_47 
REMARK   25  A    between atoms: O13_49  and  P3_50 
REMARK   26  A    between atoms: P3_50  and  O15_52 
REMARK   27  A    between atoms: P3_50  and  O16_53 
ROOT
HETATM    1  C1  UNL     1       8.232   6.948  -0.479  1.00  0.00     0.104 C 
HETATM    2  C2  UNL     1       8.264   5.476  -0.755  1.00  0.00     0.182 C 
HETATM    3  O1  UNL     1       7.588   4.658  -0.135  1.00  0.00    -0.286 OA
ENDROOT
BRANCH   2   4
HETATM    4  S1  UNL     1       9.386   5.000  -2.023  1.00  0.00    -0.091 SA
BRANCH   4   5
HETATM    5  C3  UNL     1       8.721   5.961  -3.421  1.00  0.00     0.102 C 
BRANCH   5   6
HETATM    6  C4  UNL     1       9.832   6.627  -4.234  1.00  0.00     0.133 C 
BRANCH   6   7
HETATM    7  N1  UNL     1      10.834   7.259  -3.400  1.00  0.00    -0.360 N 
HETATM    8  C5  UNL     1      10.683   8.546  -2.937  1.00  0.00     0.219 C 
HETATM    9  O2  UNL     1       9.742   9.259  -3.264  1.00  0.00    -0.274 OA
HETATM   10  H8  UNL     1      11.660   6.733  -3.149  1.00  0.00     0.162 HD
BRANCH   8  11
HETATM   11  C6  UNL     1      11.814   8.995  -2.038  1.00  0.00     0.122 C 
BRANCH  11  12
HETATM   12  C7  UNL     1      12.332  10.381  -2.422  1.00  0.00     0.132 C 
BRANCH  12  13
HETATM   13  N2  UNL     1      12.852  11.125  -1.294  1.00  0.00    -0.358 N 
HETATM   14  C8  UNL     1      12.634  12.487  -1.197  1.00  0.00     0.247 C 
HETATM   15  O3  UNL     1      12.109  13.128  -2.099  1.00  0.00    -0.271 OA
HETATM   16  H13 UNL     1      12.930  10.603  -0.423  1.00  0.00     0.162 HD
BRANCH  14  17
HETATM   17  C9  UNL     1      13.082  13.119   0.129  1.00  0.00     0.219 C 
BRANCH  17  18
HETATM   18  C10 UNL     1      11.926  13.424   1.118  1.00  0.00     0.009 C 
HETATM   19  C11 UNL     1      11.113  14.656   0.695  1.00  0.00     0.020 C 
HETATM   20  C12 UNL     1      10.956  12.232   1.239  1.00  0.00     0.020 C 
BRANCH  18  21
HETATM   21  C13 UNL     1      12.602  13.692   2.494  1.00  0.00     0.192 C 
BRANCH  21  22
HETATM   22  O4  UNL     1      12.658  12.533   3.301  1.00  0.00    -0.296 OA
BRANCH  22  23
HETATM   23  P1  UNL     1      13.706  12.358   4.502  1.00  0.00     0.401 P 
HETATM   24  O5  UNL     1      13.220  11.484   5.615  1.00  0.00    -0.631 OA
BRANCH  23  25
HETATM   25  O6  UNL     1      14.124  13.839   4.974  1.00  0.00    -0.307 OA
HETATM   26  H23 UNL     1      13.409  14.283   5.446  1.00  0.00     0.222 HD
ENDBRANCH  23  25
BRANCH  23  27
HETATM   27  O7  UNL     1      15.049  11.864   3.806  1.00  0.00    -0.195 OA
BRANCH  27  28
HETATM   28  P2  UNL     1      15.320  10.299   3.680  1.00  0.00     0.401 P 
HETATM   29  O8  UNL     1      16.084   9.654   4.790  1.00  0.00    -0.631 OA
BRANCH  28  30
HETATM   30  O9  UNL     1      13.862   9.691   3.453  1.00  0.00    -0.307 OA
HETATM   31  H24 UNL     1      13.809   9.032   2.719  1.00  0.00     0.222 HD
ENDBRANCH  28  30
BRANCH  28  32
HETATM   32  O10 UNL     1      15.940  10.131   2.218  1.00  0.00    -0.294 OA
BRANCH  32  33
HETATM   33  C14 UNL     1      16.779   9.043   1.931  1.00  0.00     0.215 C 
BRANCH  33  34
HETATM   34  C15 UNL     1      17.452   9.363   0.598  1.00  0.00     0.180 C 
HETATM   35  C16 UNL     1      17.056  10.762   0.143  1.00  0.00     0.197 C 
HETATM   36  C17 UNL     1      16.321  10.546  -1.166  1.00  0.00     0.199 C 
HETATM   37  C18 UNL     1      16.908   9.219  -1.651  1.00  0.00     0.262 C 
HETATM   38  O11 UNL     1      17.094   8.448  -0.443  1.00  0.00    -0.353 OA
BRANCH  35  39
HETATM   39  O13 UNL     1      18.247  11.523  -0.029  1.00  0.00    -0.286 OA
BRANCH  39  40
HETATM   40  P3  UNL     1      18.256  12.957   0.679  1.00  0.00     0.391 P 
HETATM   41  O14 UNL     1      19.556  13.298   1.333  1.00  0.00    -0.632 OA
BRANCH  40  42
HETATM   42  O15 UNL     1      16.965  12.837   1.615  1.00  0.00    -0.307 OA
HETATM   43  H36 UNL     1      16.804  13.683   2.098  1.00  0.00     0.222 HD
ENDBRANCH  40  42
BRANCH  40  44
HETATM   44  O16 UNL     1      17.759  13.896  -0.504  1.00  0.00    -0.307 OA
HETATM   45  H37 UNL     1      16.996  14.441  -0.257  1.00  0.00     0.222 HD
ENDBRANCH  40  44
ENDBRANCH  39  40
ENDBRANCH  35  39
BRANCH  36  46
HETATM   46  O12 UNL     1      16.479  11.685  -2.017  1.00  0.00    -0.388 OA
HETATM   47  H35 UNL     1      17.242  12.197  -1.657  1.00  0.00     0.210 HD
ENDBRANCH  36  46
BRANCH  37  48
HETATM   48  N3  UNL     1      16.007   8.500  -2.529  1.00  0.00    -0.297 N 
HETATM   49  C19 UNL     1      15.425   7.275  -2.300  1.00  0.00     0.188 A 
HETATM   50  N4  UNL     1      14.557   6.953  -3.235  1.00  0.00    -0.346 N 
HETATM   51  C20 UNL     1      14.574   8.024  -4.110  1.00  0.00     0.116 A 
HETATM   52  H4  UNL     1      13.996   6.104  -3.299  1.00  0.00     0.167 HD
HETATM   53  C21 UNL     1      13.848   8.311  -5.280  1.00  0.00     0.109 A 
HETATM   54  C23 UNL     1      15.497   8.972  -3.706  1.00  0.00     0.142 A 
HETATM   55  N5  UNL     1      14.106   9.468  -5.937  1.00  0.00    -0.341 N 
HETATM   56  C22 UNL     1      15.053  10.287  -5.438  1.00  0.00     0.183 A 
HETATM   57  H5  UNL     1      13.597   9.711  -6.786  1.00  0.00     0.167 HD
HETATM   58  N6  UNL     1      15.802  10.124  -4.328  1.00  0.00    -0.336 N 
HETATM   59  H6  UNL     1      16.506  10.787  -4.003  1.00  0.00     0.168 HD
BRANCH  53  60
HETATM   60  N7  UNL     1      12.884   7.465  -5.805  1.00  0.00    -0.287 NA
HETATM   61  H33 UNL     1      11.935   7.829  -5.755  1.00  0.00     0.125 HD
HETATM   62  H34 UNL     1      13.017   6.499  -5.534  1.00  0.00     0.125 HD
ENDBRANCH  53  60
ENDBRANCH  37  48
ENDBRANCH  33  34
ENDBRANCH  32  33
ENDBRANCH  28  32
ENDBRANCH  27  28
ENDBRANCH  23  27
ENDBRANCH  22  23
ENDBRANCH  21  22
ENDBRANCH  18  21
ENDBRANCH  17  18
BRANCH  17  63
HETATM   63  O17 UNL     1      14.029  12.269   0.785  1.00  0.00    -0.385 OA
HETATM   64  H38 UNL     1      14.515  12.803   1.435  1.00  0.00     0.210 HD
ENDBRANCH  17  63
ENDBRANCH  14  17
ENDBRANCH  12  13
ENDBRANCH  11  12
ENDBRANCH   8  11
ENDBRANCH   6   7
ENDBRANCH   5   6
ENDBRANCH   4   5
ENDBRANCH   2   4
TORSDOF 27
ENDMDL
MODEL 9
REMARK VINA RESULT:      -5.4      3.686      7.371
REMARK  27 active torsions:
REMARK  status: ('A' for Active; 'I' for Inactive)
REMARK    1  A    between atoms: C2_2  and  S1_4 
REMARK    2  A    between atoms: S1_4  and  C3_5 
REMARK    3  A    between atoms: C3_5  and  C4_6 
REMARK    4  A    between atoms: C4_6  and  N1_7 
REMARK       I    between atoms: N1_7  and  C5_8 
REMARK    5  A    between atoms: C5_8  and  C6_10 
REMARK    6  A    between atoms: C6_10  and  C7_11 
REMARK    7  A    between atoms: C7_11  and  N2_12 
REMARK       I    between atoms: N2_12  and  C8_13 
REMARK    8  A    between atoms: C8_13  and  C9_15 
REMARK    9  A    between atoms: C9_15  and  C10_16 
REMARK   10  A    between atoms: C9_15  and  O17_54 
REMARK   11  A    between atoms: C10_16  and  C13_19 
REMARK   12  A    between atoms: C13_19  and  O4_20 
REMARK   13  A    between atoms: O4_20  and  P1_21 
REMARK   14  A    between atoms: P1_21  and  O6_23 
REMARK   15  A    between atoms: P1_21  and  O7_24 
REMARK   16  A    between atoms: O7_24  and  P2_25 
REMARK   17  A    between atoms: P2_25  and  O9_27 
REMARK   18  A    between atoms: P2_25  and  O10_28 
REMARK   19  A    between atoms: O10_28  and  C14_29 
REMARK   20  A    between atoms: C14_29  and  C15_30 
REMARK   21  A    between atoms: C16_31  and  O13_49 
REMARK   22  A    between atoms: C17_32  and  O12_48 
REMARK   23  A    between atoms: C18_33  and  N3_35 
REMARK   24  A    between atoms: C21_40  and  N7_47 
REMARK   25  A    between atoms: O13_49  and  P3_50 
REMARK   26  A    between atoms: P3_50  and  O15_52 
REMARK   27  A    between atoms: P3_50  and  O16_53 
ROOT
HETATM    1  C1  UNL     1       7.518  13.451  -1.206  1.00  0.00     0.104 C 
HETATM    2  C2  UNL     1       8.948  13.815  -0.946  1.00  0.00     0.182 C 
HETATM    3  O1  UNL     1       9.843  12.983  -0.819  1.00  0.00    -0.286 OA
ENDROOT
BRANCH   2   4
HETATM    4  S1  UNL     1       9.241  15.542  -0.795  1.00  0.00    -0.091 SA
BRANCH   4   5
HETATM    5  C3  UNL     1      10.708  15.529   0.285  1.00  0.00     0.102 C 
BRANCH   5   6
HETATM    6  C4  UNL     1      11.997  15.775  -0.502  1.00  0.00     0.133 C 
BRANCH   6   7
HETATM    7  N1  UNL     1      13.160  15.191   0.133  1.00  0.00    -0.360 N 
HETATM    8  C5  UNL     1      13.714  14.013  -0.311  1.00  0.00     0.219 C 
HETATM    9  O2  UNL     1      13.215  13.349  -1.212  1.00  0.00    -0.274 OA
HETATM   10  H8  UNL     1      13.577  15.671   0.920  1.00  0.00     0.162 HD
BRANCH   8  11
HETATM   11  C6  UNL     1      14.954  13.607   0.454  1.00  0.00     0.122 C 
BRANCH  11  12
HETATM   12  C7  UNL     1      15.845  12.669  -0.359  1.00  0.00     0.132 C 
BRANCH  12  13
HETATM   13  N2  UNL     1      16.901  13.360  -1.068  1.00  0.00    -0.358 N 
HETATM   14  C8  UNL     1      16.960  13.314  -2.448  1.00  0.00     0.247 C 
HETATM   15  O3  UNL     1      16.212  12.605  -3.109  1.00  0.00    -0.271 OA
HETATM   16  H13 UNL     1      17.256  14.200  -0.614  1.00  0.00     0.162 HD
BRANCH  14  17
HETATM   17  C9  UNL     1      18.018  14.232  -3.079  1.00  0.00     0.219 C 
BRANCH  17  18
HETATM   18  C10 UNL     1      19.483  13.776  -2.850  1.00  0.00     0.009 C 
HETATM   19  C11 UNL     1      20.432  14.311  -3.933  1.00  0.00     0.020 C 
HETATM   20  C12 UNL     1      20.014  14.244  -1.480  1.00  0.00     0.020 C 
BRANCH  18  21
HETATM   21  C13 UNL     1      19.459  12.221  -2.900  1.00  0.00     0.192 C 
BRANCH  21  22
HETATM   22  O4  UNL     1      19.444  11.724  -4.223  1.00  0.00    -0.296 OA
BRANCH  22  23
HETATM   23  P1  UNL     1      19.282  10.167  -4.567  1.00  0.00     0.401 P 
HETATM   24  O5  UNL     1      19.689   9.249  -3.457  1.00  0.00    -0.631 OA
BRANCH  23  25
HETATM   25  O6  UNL     1      20.072   9.910  -5.945  1.00  0.00    -0.307 OA
HETATM   26  H23 UNL     1      20.686   9.167  -5.877  1.00  0.00     0.222 HD
ENDBRANCH  23  25
BRANCH  23  27
HETATM   27  O7  UNL     1      17.772  10.006  -5.041  1.00  0.00    -0.195 OA
BRANCH  27  28
HETATM   28  P2  UNL     1      17.409   8.852  -6.078  1.00  0.00     0.401 P 
HETATM   29  O8  UNL     1      17.661   9.136  -7.522  1.00  0.00    -0.631 OA
BRANCH  28  30
HETATM   30  O9  UNL     1      18.207   7.589  -5.513  1.00  0.00    -0.307 OA
HETATM   31  H24 UNL     1      17.905   6.723  -5.882  1.00  0.00     0.222 HD
ENDBRANCH  28  30
BRANCH  28  32
HETATM   32  O10 UNL     1      15.912   8.447  -5.697  1.00  0.00    -0.294 OA
BRANCH  32  33
HETATM   33  C14 UNL     1      14.860   9.346  -5.933  1.00  0.00     0.215 C 
BRANCH  33  34
HETATM   34  C15 UNL     1      14.101   9.472  -4.614  1.00  0.00     0.180 C 
HETATM   35  C16 UNL     1      14.712   8.539  -3.577  1.00  0.00     0.197 C 
HETATM   36  C17 UNL     1      13.598   7.569  -3.229  1.00  0.00     0.199 C 
HETATM   37  C18 UNL     1      12.346   8.384  -3.560  1.00  0.00     0.262 C 
HETATM   38  O11 UNL     1      12.713   9.142  -4.733  1.00  0.00    -0.353 OA
BRANCH  35  39
HETATM   39  O13 UNL     1      15.109   9.323  -2.457  1.00  0.00    -0.286 OA
BRANCH  39  40
HETATM   40  P3  UNL     1      16.423   8.822  -1.696  1.00  0.00     0.391 P 
HETATM   41  O14 UNL     1      16.158   8.278  -0.330  1.00  0.00    -0.632 OA
BRANCH  40  42
HETATM   42  O15 UNL     1      17.349  10.122  -1.809  1.00  0.00    -0.307 OA
HETATM   43  H36 UNL     1      17.797  10.156  -2.688  1.00  0.00     0.222 HD
ENDBRANCH  40  42
BRANCH  40  44
HETATM   44  O16 UNL     1      17.053   7.835  -2.772  1.00  0.00    -0.307 OA
HETATM   45  H37 UNL     1      16.672   7.949  -3.657  1.00  0.00     0.222 HD
ENDBRANCH  40  44
ENDBRANCH  39  40
ENDBRANCH  35  39
BRANCH  36  46
HETATM   46  O12 UNL     1      13.745   7.106  -1.884  1.00  0.00    -0.388 OA
HETATM   47  H35 UNL     1      14.244   6.257  -1.936  1.00  0.00     0.210 HD
ENDBRANCH  36  46
BRANCH  37  48
HETATM   48  N3  UNL     1      11.207   7.548  -3.882  1.00  0.00    -0.297 N 
HETATM   49  C19 UNL     1      11.212   6.380  -4.608  1.00  0.00     0.188 A 
HETATM   50  N4  UNL     1      10.035   5.793  -4.616  1.00  0.00    -0.346 N 
HETATM   51  C20 UNL     1       9.228   6.618  -3.853  1.00  0.00     0.116 A 
HETATM   52  H4  UNL     1       9.775   4.923  -5.081  1.00  0.00     0.167 HD
HETATM   53  C21 UNL     1       7.885   6.528  -3.449  1.00  0.00     0.109 A 
HETATM   54  C23 UNL     1       9.931   7.729  -3.425  1.00  0.00     0.142 A 
HETATM   55  N5  UNL     1       7.366   7.527  -2.694  1.00  0.00    -0.341 N 
HETATM   56  C22 UNL     1       8.165   8.563  -2.371  1.00  0.00     0.183 A 
HETATM   57  H5  UNL     1       6.397   7.495  -2.379  1.00  0.00     0.167 HD
HETATM   58  N6  UNL     1       9.461   8.753  -2.691  1.00  0.00    -0.336 N 
HETATM   59  H6  UNL     1      10.013   9.566  -2.413  1.00  0.00     0.168 HD
BRANCH  53  60
HETATM   60  N7  UNL     1       7.055   5.472  -3.791  1.00  0.00    -0.287 NA
HETATM   61  H33 UNL     1       6.166   5.753  -4.197  1.00  0.00     0.125 HD
HETATM   62  H34 UNL     1       7.025   4.749  -3.084  1.00  0.00     0.125 HD
ENDBRANCH  53  60
ENDBRANCH  37  48
ENDBRANCH  33  34
ENDBRANCH  32  33
ENDBRANCH  28  32
ENDBRANCH  27  28
ENDBRANCH  23  27
ENDBRANCH  22  23
ENDBRANCH  21  22
ENDBRANCH  18  21
ENDBRANCH  17  18
BRANCH  17  63
HETATM   63  O17 UNL     1      17.793  14.347  -4.488  1.00  0.00    -0.385 OA
HETATM   64  H38 UNL     1      16.859  14.144  -4.662  1.00  0.00     0.210 HD
ENDBRANCH  17  63
ENDBRANCH  14  17
ENDBRANCH  12  13
ENDBRANCH  11  12
ENDBRANCH   8  11
ENDBRANCH   6   7
ENDBRANCH   5   6
ENDBRANCH   4   5
ENDBRANCH   2   4
TORSDOF 27
ENDMDL
MODEL 10
REMARK VINA RESULT:      -5.3      3.925      7.818
REMARK  27 active torsions:
REMARK  status: ('A' for Active; 'I' for Inactive)
REMARK    1  A    between atoms: C2_2  and  S1_4 
REMARK    2  A    between atoms: S1_4  and  C3_5 
REMARK    3  A    between atoms: C3_5  and  C4_6 
REMARK    4  A    between atoms: C4_6  and  N1_7 
REMARK       I    between atoms: N1_7  and  C5_8 
REMARK    5  A    between atoms: C5_8  and  C6_10 
REMARK    6  A    between atoms: C6_10  and  C7_11 
REMARK    7  A    between atoms: C7_11  and  N2_12 
REMARK       I    between atoms: N2_12  and  C8_13 
REMARK    8  A    between atoms: C8_13  and  C9_15 
REMARK    9  A    between atoms: C9_15  and  C10_16 
REMARK   10  A    between atoms: C9_15  and  O17_54 
REMARK   11  A    between atoms: C10_16  and  C13_19 
REMARK   12  A    between atoms: C13_19  and  O4_20 
REMARK   13  A    between atoms: O4_20  and  P1_21 
REMARK   14  A    between atoms: P1_21  and  O6_23 
REMARK   15  A    between atoms: P1_21  and  O7_24 
REMARK   16  A    between atoms: O7_24  and  P2_25 
REMARK   17  A    between atoms: P2_25  and  O9_27 
REMARK   18  A    between atoms: P2_25  and  O10_28 
REMARK   19  A    between atoms: O10_28  and  C14_29 
REMARK   20  A    between atoms: C14_29  and  C15_30 
REMARK   21  A    between atoms: C16_31  and  O13_49 
REMARK   22  A    between atoms: C17_32  and  O12_48 
REMARK   23  A    between atoms: C18_33  and  N3_35 
REMARK   24  A    between atoms: C21_40  and  N7_47 
REMARK   25  A    between atoms: O13_49  and  P3_50 
REMARK   26  A    between atoms: P3_50  and  O15_52 
REMARK   27  A    between atoms: P3_50  and  O16_53 
ROOT
HETATM    1  C1  UNL     1      20.143  14.960   7.465  1.00  0.00     0.104 C 
HETATM    2  C2  UNL     1      19.203  13.800   7.587  1.00  0.00     0.182 C 
HETATM    3  O1  UNL     1      18.005  13.872   7.324  1.00  0.00    -0.286 OA
ENDROOT
BRANCH   2   4
HETATM    4  S1  UNL     1      19.947  12.323   8.182  1.00  0.00    -0.091 SA
BRANCH   4   5
HETATM    5  C3  UNL     1      19.334  11.131   6.948  1.00  0.00     0.102 C 
BRANCH   5   6
HETATM    6  C4  UNL     1      18.210  10.257   7.509  1.00  0.00     0.133 C 
BRANCH   6   7
HETATM    7  N1  UNL     1      16.996  11.005   7.767  1.00  0.00    -0.360 N 
HETATM    8  C5  UNL     1      15.929  10.974   6.900  1.00  0.00     0.219 C 
HETATM    9  O2  UNL     1      15.967  10.384   5.827  1.00  0.00    -0.274 OA
HETATM   10  H8  UNL     1      16.935  11.556   8.613  1.00  0.00     0.162 HD
BRANCH   8  11
HETATM   11  C6  UNL     1      14.741  11.778   7.384  1.00  0.00     0.122 C 
BRANCH  11  12
HETATM   12  C7  UNL     1      13.438  11.321   6.729  1.00  0.00     0.132 C 
BRANCH  12  13
HETATM   13  N2  UNL     1      13.388  11.599   5.310  1.00  0.00    -0.358 N 
HETATM   14  C8  UNL     1      12.204  11.447   4.611  1.00  0.00     0.247 C 
HETATM   15  O3  UNL     1      11.201  10.967   5.125  1.00  0.00    -0.271 OA
HETATM   16  H13 UNL     1      14.034  12.312   4.980  1.00  0.00     0.162 HD
BRANCH  14  17
HETATM   17  C9  UNL     1      12.245  11.943   3.158  1.00  0.00     0.219 C 
BRANCH  17  18
HETATM   18  C10 UNL     1      12.096  13.479   2.999  1.00  0.00     0.009 C 
HETATM   19  C11 UNL     1      11.416  14.123   4.216  1.00  0.00     0.020 C 
HETATM   20  C12 UNL     1      13.464  14.162   2.803  1.00  0.00     0.020 C 
BRANCH  18  21
HETATM   21  C13 UNL     1      11.216  13.694   1.734  1.00  0.00     0.192 C 
BRANCH  21  22
HETATM   22  O4  UNL     1      11.610  12.868   0.657  1.00  0.00    -0.296 OA
BRANCH  22  23
HETATM   23  P1  UNL     1      11.579  13.354  -0.870  1.00  0.00     0.401 P 
HETATM   24  O5  UNL     1      12.449  14.538  -1.153  1.00  0.00    -0.631 OA
BRANCH  23  25
HETATM   25  O6  UNL     1      10.032  13.579  -1.255  1.00  0.00    -0.307 OA
HETATM   26  H23 UNL     1       9.769  13.049  -2.018  1.00  0.00     0.222 HD
ENDBRANCH  23  25
BRANCH  23  27
HETATM   27  O7  UNL     1      11.924  12.056  -1.722  1.00  0.00    -0.195 OA
BRANCH  27  28
HETATM   28  P2  UNL     1      13.452  11.652  -1.924  1.00  0.00     0.401 P 
HETATM   29  O8  UNL     1      14.150  12.217  -3.117  1.00  0.00    -0.631 OA
BRANCH  28  30
HETATM   30  O9  UNL     1      14.123  12.046  -0.530  1.00  0.00    -0.307 OA
HETATM   31  H24 UNL     1      14.334  11.273   0.050  1.00  0.00     0.222 HD
ENDBRANCH  28  30
BRANCH  28  32
HETATM   32  O10 UNL     1      13.448  10.059  -1.808  1.00  0.00    -0.294 OA
BRANCH  32  33
HETATM   33  C14 UNL     1      14.644   9.341  -1.962  1.00  0.00     0.215 C 
BRANCH  33  34
HETATM   34  C15 UNL     1      14.321   8.168  -2.886  1.00  0.00     0.180 C 
HETATM   35  C16 UNL     1      14.458   8.603  -4.339  1.00  0.00     0.197 C 
HETATM   36  C17 UNL     1      13.068   8.439  -4.922  1.00  0.00     0.199 C 
HETATM   37  C18 UNL     1      12.463   7.364  -4.016  1.00  0.00     0.262 C 
HETATM   38  O11 UNL     1      12.993   7.663  -2.706  1.00  0.00    -0.353 OA
BRANCH  35  39
HETATM   39  O13 UNL     1      15.409   7.750  -4.968  1.00  0.00    -0.286 OA
BRANCH  39  40
HETATM   40  P3  UNL     1      16.584   8.492  -5.758  1.00  0.00     0.391 P 
HETATM   41  O14 UNL     1      17.095   9.716  -5.069  1.00  0.00    -0.632 OA
BRANCH  40  42
HETATM   42  O15 UNL     1      15.906   8.680  -7.195  1.00  0.00    -0.307 OA
HETATM   43  H36 UNL     1      15.547   7.822  -7.526  1.00  0.00     0.222 HD
ENDBRANCH  40  42
BRANCH  40  44
HETATM   44  O16 UNL     1      17.607   7.298  -5.994  1.00  0.00    -0.307 OA
HETATM   45  H37 UNL     1      17.190   6.425  -5.926  1.00  0.00     0.222 HD
ENDBRANCH  40  44
ENDBRANCH  39  40
ENDBRANCH  35  39
BRANCH  36  46
HETATM   46  O12 UNL     1      13.148   8.149  -6.320  1.00  0.00    -0.388 OA
HETATM   47  H35 UNL     1      13.057   9.013  -6.789  1.00  0.00     0.210 HD
ENDBRANCH  36  46
BRANCH  37  48
HETATM   48  N3  UNL     1      11.016   7.434  -3.959  1.00  0.00    -0.297 N 
HETATM   49  C19 UNL     1      10.119   6.632  -4.626  1.00  0.00     0.188 A 
HETATM   50  N4  UNL     1       8.876   6.867  -4.265  1.00  0.00    -0.346 N 
HETATM   51  C20 UNL     1       8.973   7.866  -3.313  1.00  0.00     0.116 A 
HETATM   52  H4  UNL     1       8.030   6.413  -4.609  1.00  0.00     0.167 HD
HETATM   53  C21 UNL     1       8.016   8.522  -2.519  1.00  0.00     0.109 A 
HETATM   54  C23 UNL     1      10.289   8.254  -3.143  1.00  0.00     0.142 A 
HETATM   55  N5  UNL     1       8.432   9.489  -1.666  1.00  0.00    -0.341 N 
HETATM   56  C22 UNL     1       9.748   9.779  -1.624  1.00  0.00     0.183 A 
HETATM   57  H5  UNL     1       7.768   9.984  -1.072  1.00  0.00     0.167 HD
HETATM   58  N6  UNL     1      10.753   9.216  -2.325  1.00  0.00    -0.336 N 
HETATM   59  H6  UNL     1      11.734   9.483  -2.245  1.00  0.00     0.168 HD
BRANCH  53  60
HETATM   60  N7  UNL     1       6.660   8.238  -2.570  1.00  0.00    -0.287 NA
HETATM   61  H33 UNL     1       6.130   8.583  -1.772  1.00  0.00     0.125 HD
HETATM   62  H34 UNL     1       6.466   7.293  -2.872  1.00  0.00     0.125 HD
ENDBRANCH  53  60
ENDBRANCH  37  48
ENDBRANCH  33  34
ENDBRANCH  32  33
ENDBRANCH  28  32
ENDBRANCH  27  28
ENDBRANCH  23  27
ENDBRANCH  22  23
ENDBRANCH  21  22
ENDBRANCH  18  21
ENDBRANCH  17  18
BRANCH  17  63
HETATM   63  O17 UNL     1      13.468  11.538   2.533  1.00  0.00    -0.385 OA
HETATM   64  H38 UNL     1      13.512  10.567   2.558  1.00  0.00     0.210 HD
ENDBRANCH  17  63
ENDBRANCH  14  17
ENDBRANCH  12  13
ENDBRANCH  11  12
ENDBRANCH   8  11
ENDBRANCH   6   7
ENDBRANCH   5   6
ENDBRANCH   4   5
ENDBRANCH   2   4
TORSDOF 27
ENDMDL
MODEL 11
REMARK VINA RESULT:      -5.2      3.532      7.177
REMARK  27 active torsions:
REMARK  status: ('A' for Active; 'I' for Inactive)
REMARK    1  A    between atoms: C2_2  and  S1_4 
REMARK    2  A    between atoms: S1_4  and  C3_5 
REMARK    3  A    between atoms: C3_5  and  C4_6 
REMARK    4  A    between atoms: C4_6  and  N1_7 
REMARK       I    between atoms: N1_7  and  C5_8 
REMARK    5  A    between atoms: C5_8  and  C6_10 
REMARK    6  A    between atoms: C6_10  and  C7_11 
REMARK    7  A    between atoms: C7_11  and  N2_12 
REMARK       I    between atoms: N2_12  and  C8_13 
REMARK    8  A    between atoms: C8_13  and  C9_15 
REMARK    9  A    between atoms: C9_15  and  C10_16 
REMARK   10  A    between atoms: C9_15  and  O17_54 
REMARK   11  A    between atoms: C10_16  and  C13_19 
REMARK   12  A    between atoms: C13_19  and  O4_20 
REMARK   13  A    between atoms: O4_20  and  P1_21 
REMARK   14  A    between atoms: P1_21  and  O6_23 
REMARK   15  A    between atoms: P1_21  and  O7_24 
REMARK   16  A    between atoms: O7_24  and  P2_25 
REMARK   17  A    between atoms: P2_25  and  O9_27 
REMARK   18  A    between atoms: P2_25  and  O10_28 
REMARK   19  A    between atoms: O10_28  and  C14_29 
REMARK   20  A    between atoms: C14_29  and  C15_30 
REMARK   21  A    between atoms: C16_31  and  O13_49 
REMARK   22  A    between atoms: C17_32  and  O12_48 
REMARK   23  A    between atoms: C18_33  and  N3_35 
REMARK   24  A    between atoms: C21_40  and  N7_47 
REMARK   25  A    between atoms: O13_49  and  P3_50 
REMARK   26  A    between atoms: P3_50  and  O15_52 
REMARK   27  A    between atoms: P3_50  and  O16_53 
ROOT
HETATM    1  C1  UNL     1      19.301  10.786   2.503  1.00  0.00     0.104 C 
HETATM    2  C2  UNL     1      17.882  10.323   2.368  1.00  0.00     0.182 C 
HETATM    3  O1  UNL     1      17.442   9.782   1.357  1.00  0.00    -0.286 OA
ENDROOT
BRANCH   2   4
HETATM    4  S1  UNL     1      16.875  10.654   3.772  1.00  0.00    -0.091 SA
BRANCH   4   5
HETATM    5  C3  UNL     1      18.005  10.146   5.108  1.00  0.00     0.102 C 
BRANCH   5   6
HETATM    6  C4  UNL     1      17.444   8.974   5.915  1.00  0.00     0.133 C 
BRANCH   6   7
HETATM    7  N1  UNL     1      16.367   9.369   6.799  1.00  0.00    -0.360 N 
HETATM    8  C5  UNL     1      15.873   8.521   7.763  1.00  0.00     0.219 C 
HETATM    9  O2  UNL     1      16.254   7.362   7.879  1.00  0.00    -0.274 OA
HETATM   10  H8  UNL     1      15.976  10.297   6.706  1.00  0.00     0.162 HD
BRANCH   8  11
HETATM   11  C6  UNL     1      14.790   9.147   8.615  1.00  0.00     0.122 C 
BRANCH  11  12
HETATM   12  C7  UNL     1      14.861  10.673   8.597  1.00  0.00     0.132 C 
BRANCH  12  13
HETATM   13  N2  UNL     1      13.757  11.285   7.888  1.00  0.00    -0.358 N 
HETATM   14  C8  UNL     1      13.991  12.035   6.750  1.00  0.00     0.247 C 
HETATM   15  O3  UNL     1      15.122  12.309   6.370  1.00  0.00    -0.271 OA
HETATM   16  H13 UNL     1      12.871  10.787   7.944  1.00  0.00     0.162 HD
BRANCH  14  17
HETATM   17  C9  UNL     1      12.726  12.476   5.998  1.00  0.00     0.219 C 
BRANCH  17  18
HETATM   18  C10 UNL     1      12.143  11.405   5.039  1.00  0.00     0.009 C 
HETATM   19  C11 UNL     1      13.174  10.325   4.682  1.00  0.00     0.020 C 
HETATM   20  C12 UNL     1      10.914  10.705   5.653  1.00  0.00     0.020 C 
BRANCH  18  21
HETATM   21  C13 UNL     1      11.722  12.170   3.751  1.00  0.00     0.192 C 
BRANCH  21  22
HETATM   22  O4  UNL     1      12.382  11.689   2.598  1.00  0.00    -0.296 OA
BRANCH  22  23
HETATM   23  P1  UNL     1      12.255  12.394   1.164  1.00  0.00     0.401 P 
HETATM   24  O5  UNL     1      13.072  13.639   1.020  1.00  0.00    -0.631 OA
BRANCH  23  25
HETATM   25  O6  UNL     1      10.684  12.613   0.890  1.00  0.00    -0.307 OA
HETATM   26  H23 UNL     1      10.211  12.876   1.690  1.00  0.00     0.222 HD
ENDBRANCH  23  25
BRANCH  23  27
HETATM   27  O7  UNL     1      12.596  11.250   0.112  1.00  0.00    -0.195 OA
BRANCH  27  28
HETATM   28  P2  UNL     1      14.094  10.717   0.013  1.00  0.00     0.401 P 
HETATM   29  O8  UNL     1      15.164  11.739  -0.196  1.00  0.00    -0.631 OA
BRANCH  28  30
HETATM   30  O9  UNL     1      14.267   9.857   1.347  1.00  0.00    -0.307 OA
HETATM   31  H24 UNL     1      14.270  10.395   2.176  1.00  0.00     0.222 HD
ENDBRANCH  28  30
BRANCH  28  32
HETATM   32  O10 UNL     1      14.018   9.553  -1.079  1.00  0.00    -0.294 OA
BRANCH  32  33
HETATM   33  C14 UNL     1      14.855   9.591  -2.205  1.00  0.00     0.215 C 
BRANCH  33  34
HETATM   34  C15 UNL     1      14.514   8.352  -3.031  1.00  0.00     0.180 C 
HETATM   35  C16 UNL     1      14.625   8.677  -4.515  1.00  0.00     0.197 C 
HETATM   36  C17 UNL     1      13.223   8.472  -5.059  1.00  0.00     0.199 C 
HETATM   37  C18 UNL     1      12.634   7.470  -4.062  1.00  0.00     0.262 C 
HETATM   38  O11 UNL     1      13.189   7.866  -2.789  1.00  0.00    -0.353 OA
BRANCH  35  39
HETATM   39  O13 UNL     1      15.562   7.776  -5.095  1.00  0.00    -0.286 OA
BRANCH  39  40
HETATM   40  P3  UNL     1      16.780   8.457  -5.877  1.00  0.00     0.391 P 
HETATM   41  O14 UNL     1      17.250   9.736  -5.263  1.00  0.00    -0.632 OA
BRANCH  40  42
HETATM   42  O15 UNL     1      16.184   8.522  -7.360  1.00  0.00    -0.307 OA
HETATM   43  H36 UNL     1      16.902   8.423  -8.029  1.00  0.00     0.222 HD
ENDBRANCH  40  42
BRANCH  40  44
HETATM   44  O16 UNL     1      17.816   7.253  -5.956  1.00  0.00    -0.307 OA
HETATM   45  H37 UNL     1      18.733   7.552  -6.065  1.00  0.00     0.222 HD
ENDBRANCH  40  44
ENDBRANCH  39  40
ENDBRANCH  35  39
BRANCH  36  46
HETATM   46  O12 UNL     1      13.277   8.077  -6.432  1.00  0.00    -0.388 OA
HETATM   47  H35 UNL     1      13.376   7.095  -6.436  1.00  0.00     0.210 HD
ENDBRANCH  36  46
BRANCH  37  48
HETATM   48  N3  UNL     1      11.189   7.548  -3.985  1.00  0.00    -0.297 N 
HETATM   49  C19 UNL     1      10.278   6.761  -4.650  1.00  0.00     0.188 A 
HETATM   50  N4  UNL     1       9.042   6.998  -4.268  1.00  0.00    -0.346 N 
HETATM   51  C20 UNL     1       9.158   7.983  -3.304  1.00  0.00     0.116 A 
HETATM   52  H4  UNL     1       8.188   6.554  -4.607  1.00  0.00     0.167 HD
HETATM   53  C21 UNL     1       8.216   8.633  -2.488  1.00  0.00     0.109 A 
HETATM   54  C23 UNL     1      10.479   8.361  -3.147  1.00  0.00     0.142 A 
HETATM   55  N5  UNL     1       8.650   9.586  -1.627  1.00  0.00    -0.341 N 
HETATM   56  C22 UNL     1       9.968   9.867  -1.598  1.00  0.00     0.183 A 
HETATM   57  H5  UNL     1       7.997  10.076  -1.016  1.00  0.00     0.167 HD
HETATM   58  N6  UNL     1      10.960   9.308  -2.322  1.00  0.00    -0.336 N 
HETATM   59  H6  UNL     1      11.944   9.568  -2.252  1.00  0.00     0.168 HD
BRANCH  53  60
HETATM   60  N7  UNL     1       6.858   8.358  -2.523  1.00  0.00    -0.287 NA
HETATM   61  H33 UNL     1       6.301   8.912  -1.876  1.00  0.00     0.125 HD
HETATM   62  H34 UNL     1       6.657   7.368  -2.565  1.00  0.00     0.125 HD
ENDBRANCH  53  60
ENDBRANCH  37  48
ENDBRANCH  33  34
ENDBRANCH  32  33
ENDBRANCH  28  32
ENDBRANCH  27  28
ENDBRANCH  23  27
ENDBRANCH  22  23
ENDBRANCH  21  22
ENDBRANCH  18  21
ENDBRANCH  17  18
BRANCH  17  63
HETATM   63  O17 UNL     1      11.706  12.855   6.929  1.00  0.00    -0.385 OA
HETATM   64  H38 UNL     1      11.599  12.133   7.571  1.00  0.00     0.210 HD
ENDBRANCH  17  63
ENDBRANCH  14  17
ENDBRANCH  12  13
ENDBRANCH  11  12
ENDBRANCH   8  11
ENDBRANCH   6   7
ENDBRANCH   5   6
ENDBRANCH   4   5
ENDBRANCH   2   4
TORSDOF 27
ENDMDL
MODEL 12
REMARK VINA RESULT:      -5.2      3.575      7.282
REMARK  27 active torsions:
REMARK  status: ('A' for Active; 'I' for Inactive)
REMARK    1  A    between atoms: C2_2  and  S1_4 
REMARK    2  A    between atoms: S1_4  and  C3_5 
REMARK    3  A    between atoms: C3_5  and  C4_6 
REMARK    4  A    between atoms: C4_6  and  N1_7 
REMARK       I    between atoms: N1_7  and  C5_8 
REMARK    5  A    between atoms: C5_8  and  C6_10 
REMARK    6  A    between atoms: C6_10  and  C7_11 
REMARK    7  A    between atoms: C7_11  and  N2_12 
REMARK       I    between atoms: N2_12  and  C8_13 
REMARK    8  A    between atoms: C8_13  and  C9_15 
REMARK    9  A    between atoms: C9_15  and  C10_16 
REMARK   10  A    between atoms: C9_15  and  O17_54 
REMARK   11  A    between atoms: C10_16  and  C13_19 
REMARK   12  A    between atoms: C13_19  and  O4_20 
REMARK   13  A    between atoms: O4_20  and  P1_21 
REMARK   14  A    between atoms: P1_21  and  O6_23 
REMARK   15  A    between atoms: P1_21  and  O7_24 
REMARK   16  A    between atoms: O7_24  and  P2_25 
REMARK   17  A    between atoms: P2_25  and  O9_27 
REMARK   18  A    between atoms: P2_25  and  O10_28 
REMARK   19  A    between atoms: O10_28  and  C14_29 
REMARK   20  A    between atoms: C14_29  and  C15_30 
REMARK   21  A    between atoms: C16_31  and  O13_49 
REMARK   22  A    between atoms: C17_32  and  O12_48 
REMARK   23  A    between atoms: C18_33  and  N3_35 
REMARK   24  A    between atoms: C21_40  and  N7_47 
REMARK   25  A    between atoms: O13_49  and  P3_50 
REMARK   26  A    between atoms: P3_50  and  O15_52 
REMARK   27  A    between atoms: P3_50  and  O16_53 
ROOT
HETATM    1  C1  UNL     1      19.427  10.638   1.623  1.00  0.00     0.104 C 
HETATM    2  C2  UNL     1      18.100  10.186   2.153  1.00  0.00     0.182 C 
HETATM    3  O1  UNL     1      17.357   9.419   1.546  1.00  0.00    -0.286 OA
ENDROOT
BRANCH   2   4
HETATM    4  S1  UNL     1      17.668  10.878   3.711  1.00  0.00    -0.091 SA
BRANCH   4   5
HETATM    5  C3  UNL     1      17.575   9.365   4.722  1.00  0.00     0.102 C 
BRANCH   5   6
HETATM    6  C4  UNL     1      16.138   8.854   4.851  1.00  0.00     0.133 C 
BRANCH   6   7
HETATM    7  N1  UNL     1      15.411   9.493   5.928  1.00  0.00    -0.360 N 
HETATM    8  C5  UNL     1      15.413   8.983   7.206  1.00  0.00     0.219 C 
HETATM    9  O2  UNL     1      15.957   7.923   7.492  1.00  0.00    -0.274 OA
HETATM   10  H8  UNL     1      14.897  10.342   5.732  1.00  0.00     0.162 HD
BRANCH   8  11
HETATM   11  C6  UNL     1      14.639   9.832   8.191  1.00  0.00     0.122 C 
BRANCH  11  12
HETATM   12  C7  UNL     1      14.803  11.325   7.910  1.00  0.00     0.132 C 
BRANCH  12  13
HETATM   13  N2  UNL     1      13.539  12.017   7.762  1.00  0.00    -0.358 N 
HETATM   14  C8  UNL     1      13.066  12.342   6.504  1.00  0.00     0.247 C 
HETATM   15  O3  UNL     1      13.735  12.172   5.493  1.00  0.00    -0.271 OA
HETATM   16  H13 UNL     1      12.848  11.825   8.485  1.00  0.00     0.162 HD
BRANCH  14  17
HETATM   17  C9  UNL     1      11.640  12.911   6.480  1.00  0.00     0.219 C 
BRANCH  17  18
HETATM   18  C10 UNL     1      10.628  12.074   5.654  1.00  0.00     0.009 C 
HETATM   19  C11 UNL     1      11.078  10.613   5.497  1.00  0.00     0.020 C 
HETATM   20  C12 UNL     1       9.230  12.073   6.305  1.00  0.00     0.020 C 
BRANCH  18  21
HETATM   21  C13 UNL     1      10.555  12.751   4.255  1.00  0.00     0.192 C 
BRANCH  21  22
HETATM   22  O4  UNL     1      11.441  12.163   3.325  1.00  0.00    -0.296 OA
BRANCH  22  23
HETATM   23  P1  UNL     1      11.917  12.905   1.986  1.00  0.00     0.401 P 
HETATM   24  O5  UNL     1      12.797  14.092   2.223  1.00  0.00    -0.631 OA
BRANCH  23  25
HETATM   25  O6  UNL     1      10.587  13.240   1.143  1.00  0.00    -0.307 OA
HETATM   26  H23 UNL     1      10.772  13.340   0.200  1.00  0.00     0.222 HD
ENDBRANCH  23  25
BRANCH  23  27
HETATM   27  O7  UNL     1      12.569  11.762   1.092  1.00  0.00    -0.195 OA
BRANCH  27  28
HETATM   28  P2  UNL     1      14.003  11.196   1.492  1.00  0.00     0.401 P 
HETATM   29  O8  UNL     1      15.124  12.181   1.561  1.00  0.00    -0.631 OA
BRANCH  28  30
HETATM   30  O9  UNL     1      13.725  10.429   2.864  1.00  0.00    -0.307 OA
HETATM   31  H24 UNL     1      13.499   9.473   2.754  1.00  0.00     0.222 HD
ENDBRANCH  28  30
BRANCH  28  32
HETATM   32  O10 UNL     1      14.220   9.960   0.504  1.00  0.00    -0.294 OA
BRANCH  32  33
HETATM   33  C14 UNL     1      13.960  10.104  -0.868  1.00  0.00     0.215 C 
BRANCH  33  34
HETATM   34  C15 UNL     1      14.063   8.704  -1.471  1.00  0.00     0.180 C 
HETATM   35  C16 UNL     1      14.723   8.780  -2.841  1.00  0.00     0.197 C 
HETATM   36  C17 UNL     1      13.667   8.274  -3.805  1.00  0.00     0.199 C 
HETATM   37  C18 UNL     1      12.808   7.383  -2.905  1.00  0.00     0.262 C 
HETATM   38  O11 UNL     1      12.788   8.072  -1.636  1.00  0.00    -0.353 OA
BRANCH  35  39
HETATM   39  O13 UNL     1      15.876   7.945  -2.822  1.00  0.00    -0.286 OA
BRANCH  39  40
HETATM   40  P3  UNL     1      17.280   8.707  -2.882  1.00  0.00     0.391 P 
HETATM   41  O14 UNL     1      18.277   8.063  -3.790  1.00  0.00    -0.632 OA
BRANCH  40  42
HETATM   42  O15 UNL     1      17.642   8.793  -1.326  1.00  0.00    -0.307 OA
HETATM   43  H36 UNL     1      17.902   7.907  -0.979  1.00  0.00     0.222 HD
ENDBRANCH  40  42
BRANCH  40  44
HETATM   44  O16 UNL     1      16.819  10.189  -3.229  1.00  0.00    -0.307 OA
HETATM   45  H37 UNL     1      17.514  10.707  -3.666  1.00  0.00     0.222 HD
ENDBRANCH  40  44
ENDBRANCH  39  40
ENDBRANCH  35  39
BRANCH  36  46
HETATM   46  O12 UNL     1      14.284   7.661  -4.940  1.00  0.00    -0.388 OA
HETATM   47  H35 UNL     1      14.532   8.395  -5.552  1.00  0.00     0.210 HD
ENDBRANCH  36  46
BRANCH  37  48
HETATM   48  N3  UNL     1      11.447   7.252  -3.387  1.00  0.00    -0.297 N 
HETATM   49  C19 UNL     1      10.924   7.769  -4.549  1.00  0.00     0.188 A 
HETATM   50  N4  UNL     1       9.690   7.367  -4.761  1.00  0.00    -0.346 N 
HETATM   51  C20 UNL     1       9.401   6.545  -3.686  1.00  0.00     0.116 A 
HETATM   52  H4  UNL     1       9.081   7.607  -5.544  1.00  0.00     0.167 HD
HETATM   53  C21 UNL     1       8.271   5.779  -3.349  1.00  0.00     0.109 A 
HETATM   54  C23 UNL     1      10.467   6.496  -2.807  1.00  0.00     0.142 A 
HETATM   55  N5  UNL     1       8.289   5.070  -2.194  1.00  0.00    -0.341 N 
HETATM   56  C22 UNL     1       9.391   5.136  -1.422  1.00  0.00     0.183 A 
HETATM   57  H5  UNL     1       7.489   4.500  -1.918  1.00  0.00     0.167 HD
HETATM   58  N6  UNL     1      10.530   5.823  -1.644  1.00  0.00    -0.336 N 
HETATM   59  H6  UNL     1      11.333   5.832  -1.015  1.00  0.00     0.168 HD
BRANCH  53  60
HETATM   60  N7  UNL     1       7.129   5.719  -4.133  1.00  0.00    -0.287 NA
HETATM   61  H33 UNL     1       6.281   5.490  -3.619  1.00  0.00     0.125 HD
HETATM   62  H34 UNL     1       7.277   5.235  -5.008  1.00  0.00     0.125 HD
ENDBRANCH  53  60
ENDBRANCH  37  48
ENDBRANCH  33  34
ENDBRANCH  32  33
ENDBRANCH  28  32
ENDBRANCH  27  28
ENDBRANCH  23  27
ENDBRANCH  22  23
ENDBRANCH  21  22
ENDBRANCH  18  21
ENDBRANCH  17  18
BRANCH  17  63
HETATM   63  O17 UNL     1      11.138  13.042   7.815  1.00  0.00    -0.385 OA
HETATM   64  H38 UNL     1      10.964  12.150   8.161  1.00  0.00     0.210 HD
ENDBRANCH  17  63
ENDBRANCH  14  17
ENDBRANCH  12  13
ENDBRANCH  11  12
ENDBRANCH   8  11
ENDBRANCH   6   7
ENDBRANCH   5   6
ENDBRANCH   4   5
ENDBRANCH   2   4
TORSDOF 27
ENDMDL
MODEL 13
REMARK VINA RESULT:      -5.2      2.732      6.189
REMARK  27 active torsions:
REMARK  status: ('A' for Active; 'I' for Inactive)
REMARK    1  A    between atoms: C2_2  and  S1_4 
REMARK    2  A    between atoms: S1_4  and  C3_5 
REMARK    3  A    between atoms: C3_5  and  C4_6 
REMARK    4  A    between atoms: C4_6  and  N1_7 
REMARK       I    between atoms: N1_7  and  C5_8 
REMARK    5  A    between atoms: C5_8  and  C6_10 
REMARK    6  A    between atoms: C6_10  and  C7_11 
REMARK    7  A    between atoms: C7_11  and  N2_12 
REMARK       I    between atoms: N2_12  and  C8_13 
REMARK    8  A    between atoms: C8_13  and  C9_15 
REMARK    9  A    between atoms: C9_15  and  C10_16 
REMARK   10  A    between atoms: C9_15  and  O17_54 
REMARK   11  A    between atoms: C10_16  and  C13_19 
REMARK   12  A    between atoms: C13_19  and  O4_20 
REMARK   13  A    between atoms: O4_20  and  P1_21 
REMARK   14  A    between atoms: P1_21  and  O6_23 
REMARK   15  A    between atoms: P1_21  and  O7_24 
REMARK   16  A    between atoms: O7_24  and  P2_25 
REMARK   17  A    between atoms: P2_25  and  O9_27 
REMARK   18  A    between atoms: P2_25  and  O10_28 
REMARK   19  A    between atoms: O10_28  and  C14_29 
REMARK   20  A    between atoms: C14_29  and  C15_30 
REMARK   21  A    between atoms: C16_31  and  O13_49 
REMARK   22  A    between atoms: C17_32  and  O12_48 
REMARK   23  A    between atoms: C18_33  and  N3_35 
REMARK   24  A    between atoms: C21_40  and  N7_47 
REMARK   25  A    between atoms: O13_49  and  P3_50 
REMARK   26  A    between atoms: P3_50  and  O15_52 
REMARK   27  A    between atoms: P3_50  and  O16_53 
ROOT
HETATM    1  C1  UNL     1      17.597   6.780   0.148  1.00  0.00     0.104 C 
HETATM    2  C2  UNL     1      18.307   7.762   1.029  1.00  0.00     0.182 C 
HETATM    3  O1  UNL     1      19.429   8.199   0.785  1.00  0.00    -0.286 OA
ENDROOT
BRANCH   2   4
HETATM    4  S1  UNL     1      17.416   8.216   2.475  1.00  0.00    -0.091 SA
BRANCH   4   5
HETATM    5  C3  UNL     1      16.484   9.650   1.845  1.00  0.00     0.102 C 
BRANCH   5   6
HETATM    6  C4  UNL     1      16.163  10.653   2.955  1.00  0.00     0.133 C 
BRANCH   6   7
HETATM    7  N1  UNL     1      14.790  10.564   3.409  1.00  0.00    -0.360 N 
HETATM    8  C5  UNL     1      14.452   9.907   4.569  1.00  0.00     0.219 C 
HETATM    9  O2  UNL     1      15.272   9.294   5.243  1.00  0.00    -0.274 OA
HETATM   10  H8  UNL     1      14.066  11.004   2.857  1.00  0.00     0.162 HD
BRANCH   8  11
HETATM   11  C6  UNL     1      12.975   9.979   4.890  1.00  0.00     0.122 C 
BRANCH  11  12
HETATM   12  C7  UNL     1      12.657  11.115   5.862  1.00  0.00     0.132 C 
BRANCH  12  13
HETATM   13  N2  UNL     1      12.103  12.282   5.208  1.00  0.00    -0.358 N 
HETATM   14  C8  UNL     1      12.928  13.321   4.820  1.00  0.00     0.247 C 
HETATM   15  O3  UNL     1      14.117  13.353   5.113  1.00  0.00    -0.271 OA
HETATM   16  H13 UNL     1      11.269  12.116   4.648  1.00  0.00     0.162 HD
BRANCH  14  17
HETATM   17  C9  UNL     1      12.242  14.411   3.983  1.00  0.00     0.219 C 
BRANCH  17  18
HETATM   18  C10 UNL     1      12.332  14.196   2.450  1.00  0.00     0.009 C 
HETATM   19  C11 UNL     1      11.610  12.916   2.003  1.00  0.00     0.020 C 
HETATM   20  C12 UNL     1      11.720  15.381   1.676  1.00  0.00     0.020 C 
BRANCH  18  21
HETATM   21  C13 UNL     1      13.848  14.082   2.122  1.00  0.00     0.192 C 
BRANCH  21  22
HETATM   22  O4  UNL     1      14.130  13.014   1.240  1.00  0.00    -0.296 OA
BRANCH  22  23
HETATM   23  P1  UNL     1      15.273  13.091   0.118  1.00  0.00     0.401 P 
HETATM   24  O5  UNL     1      16.641  13.366   0.656  1.00  0.00    -0.631 OA
BRANCH  23  25
HETATM   25  O6  UNL     1      14.778  14.162  -0.977  1.00  0.00    -0.307 OA
HETATM   26  H23 UNL     1      15.081  13.937  -1.866  1.00  0.00     0.222 HD
ENDBRANCH  23  25
BRANCH  23  27
HETATM   27  O7  UNL     1      15.139  11.731  -0.698  1.00  0.00    -0.195 OA
BRANCH  27  28
HETATM   28  P2  UNL     1      13.748  10.955  -0.678  1.00  0.00     0.401 P 
HETATM   29  O8  UNL     1      13.342  10.327   0.615  1.00  0.00    -0.631 OA
BRANCH  28  30
HETATM   30  O9  UNL     1      12.715  12.040  -1.228  1.00  0.00    -0.307 OA
HETATM   31  H24 UNL     1      11.776  11.732  -1.242  1.00  0.00     0.222 HD
ENDBRANCH  28  30
BRANCH  28  32
HETATM   32  O10 UNL     1      13.837   9.971  -1.933  1.00  0.00    -0.294 OA
BRANCH  32  33
HETATM   33  C14 UNL     1      14.935   9.108  -2.073  1.00  0.00     0.215 C 
BRANCH  33  34
HETATM   34  C15 UNL     1      14.527   8.063  -3.109  1.00  0.00     0.180 C 
HETATM   35  C16 UNL     1      14.608   8.663  -4.506  1.00  0.00     0.197 C 
HETATM   36  C17 UNL     1      13.185   8.609  -5.031  1.00  0.00     0.199 C 
HETATM   37  C18 UNL     1      12.588   7.453  -4.226  1.00  0.00     0.262 C 
HETATM   38  O11 UNL     1      13.192   7.579  -2.919  1.00  0.00    -0.353 OA
BRANCH  35  39
HETATM   39  O13 UNL     1      15.496   7.862  -5.279  1.00  0.00    -0.286 OA
BRANCH  39  40
HETATM   40  P3  UNL     1      16.816   8.601  -5.796  1.00  0.00     0.391 P 
HETATM   41  O14 UNL     1      16.911   8.694  -7.285  1.00  0.00    -0.632 OA
BRANCH  40  42
HETATM   42  O15 UNL     1      17.946   7.764  -5.033  1.00  0.00    -0.307 OA
HETATM   43  H36 UNL     1      18.803   7.812  -5.518  1.00  0.00     0.222 HD
ENDBRANCH  40  42
BRANCH  40  44
HETATM   44  O16 UNL     1      16.758   9.962  -4.976  1.00  0.00    -0.307 OA
HETATM   45  H37 UNL     1      17.619  10.218  -4.610  1.00  0.00     0.222 HD
ENDBRANCH  40  44
ENDBRANCH  39  40
ENDBRANCH  35  39
BRANCH  36  46
HETATM   46  O12 UNL     1      13.187   8.485  -6.456  1.00  0.00    -0.388 OA
HETATM   47  H35 UNL     1      12.249   8.337  -6.723  1.00  0.00     0.210 HD
ENDBRANCH  36  46
BRANCH  37  48
HETATM   48  N3  UNL     1      11.149   7.558  -4.086  1.00  0.00    -0.297 N 
HETATM   49  C19 UNL     1      10.194   6.805  -4.729  1.00  0.00     0.188 A 
HETATM   50  N4  UNL     1       8.981   7.058  -4.290  1.00  0.00    -0.346 N 
HETATM   51  C20 UNL     1       9.158   8.020  -3.310  1.00  0.00     0.116 A 
HETATM   52  H4  UNL     1       8.105   6.639  -4.601  1.00  0.00     0.167 HD
HETATM   53  C21 UNL     1       8.264   8.670  -2.442  1.00  0.00     0.109 A 
HETATM   54  C23 UNL     1      10.492   8.367  -3.201  1.00  0.00     0.142 A 
HETATM   55  N5  UNL     1       8.754   9.595  -1.580  1.00  0.00    -0.341 N 
HETATM   56  C22 UNL     1      10.078   9.849  -1.602  1.00  0.00     0.183 A 
HETATM   57  H5  UNL     1       8.137  10.085  -0.933  1.00  0.00     0.167 HD
HETATM   58  N6  UNL     1      11.026   9.286  -2.378  1.00  0.00    -0.336 N 
HETATM   59  H6  UNL     1      12.018   9.524  -2.344  1.00  0.00     0.168 HD
BRANCH  53  60
HETATM   60  N7  UNL     1       6.901   8.424  -2.426  1.00  0.00    -0.287 NA
HETATM   61  H33 UNL     1       6.327   9.252  -2.282  1.00  0.00     0.125 HD
HETATM   62  H34 UNL     1       6.655   7.601  -1.893  1.00  0.00     0.125 HD
ENDBRANCH  53  60
ENDBRANCH  37  48
ENDBRANCH  33  34
ENDBRANCH  32  33
ENDBRANCH  28  32
ENDBRANCH  27  28
ENDBRANCH  23  27
ENDBRANCH  22  23
ENDBRANCH  21  22
ENDBRANCH  18  21
ENDBRANCH  17  18
BRANCH  17  63
HETATM   63  O17 UNL     1      10.862  14.517   4.348  1.00  0.00    -0.385 OA
HETATM   64  H38 UNL     1      10.799  14.448   5.315  1.00  0.00     0.210 HD
ENDBRANCH  17  63
ENDBRANCH  14  17
ENDBRANCH  12  13
ENDBRANCH  11  12
ENDBRANCH   8  11
ENDBRANCH   6   7
ENDBRANCH   5   6
ENDBRANCH   4   5
ENDBRANCH   2   4
TORSDOF 27
ENDMDL
MODEL 14
REMARK VINA RESULT:      -5.0      3.287      6.892
REMARK  27 active torsions:
REMARK  status: ('A' for Active; 'I' for Inactive)
REMARK    1  A    between atoms: C2_2  and  S1_4 
REMARK    2  A    between atoms: S1_4  and  C3_5 
REMARK    3  A    between atoms: C3_5  and  C4_6 
REMARK    4  A    between atoms: C4_6  and  N1_7 
REMARK       I    between atoms: N1_7  and  C5_8 
REMARK    5  A    between atoms: C5_8  and  C6_10 
REMARK    6  A    between atoms: C6_10  and  C7_11 
REMARK    7  A    between atoms: C7_11  and  N2_12 
REMARK       I    between atoms: N2_12  and  C8_13 
REMARK    8  A    between atoms: C8_13  and  C9_15 
REMARK    9  A    between atoms: C9_15  and  C10_16 
REMARK   10  A    between atoms: C9_15  and  O17_54 
REMARK   11  A    between atoms: C10_16  and  C13_19 
REMARK   12  A    between atoms: C13_19  and  O4_20 
REMARK   13  A    between atoms: O4_20  and  P1_21 
REMARK   14  A    between atoms: P1_21  and  O6_23 
REMARK   15  A    between atoms: P1_21  and  O7_24 
REMARK   16  A    between atoms: O7_24  and  P2_25 
REMARK   17  A    between atoms: P2_25  and  O9_27 
REMARK   18  A    between atoms: P2_25  and  O10_28 
REMARK   19  A    between atoms: O10_28  and  C14_29 
REMARK   20  A    between atoms: C14_29  and  C15_30 
REMARK   21  A    between atoms: C16_31  and  O13_49 
REMARK   22  A    between atoms: C17_32  and  O12_48 
REMARK   23  A    between atoms: C18_33  and  N3_35 
REMARK   24  A    between atoms: C21_40  and  N7_47 
REMARK   25  A    between atoms: O13_49  and  P3_50 
REMARK   26  A    between atoms: P3_50  and  O15_52 
REMARK   27  A    between atoms: P3_50  and  O16_53 
ROOT
HETATM    1  C1  UNL     1      17.848   8.219   0.569  1.00  0.00     0.104 C 
HETATM    2  C2  UNL     1      19.090   8.932   1.012  1.00  0.00     0.182 C 
HETATM    3  O1  UNL     1      20.216   8.630   0.623  1.00  0.00    -0.286 OA
ENDROOT
BRANCH   2   4
HETATM    4  S1  UNL     1      18.810  10.221   2.174  1.00  0.00    -0.091 SA
BRANCH   4   5
HETATM    5  C3  UNL     1      18.434  11.600   1.044  1.00  0.00     0.102 C 
BRANCH   5   6
HETATM    6  C4  UNL     1      16.938  11.915   1.007  1.00  0.00     0.133 C 
BRANCH   6   7
HETATM    7  N1  UNL     1      16.394  12.203   2.318  1.00  0.00    -0.360 N 
HETATM    8  C5  UNL     1      16.232  13.493   2.768  1.00  0.00     0.219 C 
HETATM    9  O2  UNL     1      16.608  14.467   2.127  1.00  0.00    -0.274 OA
HETATM   10  H8  UNL     1      16.121  11.431   2.912  1.00  0.00     0.162 HD
BRANCH   8  11
HETATM   11  C6  UNL     1      15.597  13.574   4.139  1.00  0.00     0.122 C 
BRANCH  11  12
HETATM   12  C7  UNL     1      15.786  12.282   4.933  1.00  0.00     0.132 C 
BRANCH  12  13
HETATM   13  N2  UNL     1      14.564  11.520   5.076  1.00  0.00    -0.358 N 
HETATM   14  C8  UNL     1      13.724  11.745   6.152  1.00  0.00     0.247 C 
HETATM   15  O3  UNL     1      14.030  12.494   7.072  1.00  0.00    -0.271 OA
HETATM   16  H13 UNL     1      14.133  11.215   4.206  1.00  0.00     0.162 HD
BRANCH  14  17
HETATM   17  C9  UNL     1      12.383  11.000   6.089  1.00  0.00     0.219 C 
BRANCH  17  18
HETATM   18  C10 UNL     1      11.159  11.904   5.787  1.00  0.00     0.009 C 
HETATM   19  C11 UNL     1       9.902  11.086   5.460  1.00  0.00     0.020 C 
HETATM   20  C12 UNL     1      10.829  12.826   6.979  1.00  0.00     0.020 C 
BRANCH  18  21
HETATM   21  C13 UNL     1      11.558  12.765   4.554  1.00  0.00     0.192 C 
BRANCH  21  22
HETATM   22  O4  UNL     1      11.356  12.082   3.333  1.00  0.00    -0.296 OA
BRANCH  22  23
HETATM   23  P1  UNL     1      12.414  12.118   2.129  1.00  0.00     0.401 P 
HETATM   24  O5  UNL     1      13.591  11.215   2.322  1.00  0.00    -0.631 OA
BRANCH  23  25
HETATM   25  O6  UNL     1      12.810  13.662   1.905  1.00  0.00    -0.307 OA
HETATM   26  H23 UNL     1      13.286  13.797   1.075  1.00  0.00     0.222 HD
ENDBRANCH  23  25
BRANCH  23  27
HETATM   27  O7  UNL     1      11.558  11.825   0.821  1.00  0.00    -0.195 OA
BRANCH  27  28
HETATM   28  P2  UNL     1      12.213  12.100  -0.605  1.00  0.00     0.401 P 
HETATM   29  O8  UNL     1      11.430  12.943  -1.558  1.00  0.00    -0.631 OA
BRANCH  28  30
HETATM   30  O9  UNL     1      13.650  12.693  -0.240  1.00  0.00    -0.307 OA
HETATM   31  H24 UNL     1      13.931  12.525   0.692  1.00  0.00     0.222 HD
ENDBRANCH  28  30
BRANCH  28  32
HETATM   32  O10 UNL     1      12.620  10.648  -1.130  1.00  0.00    -0.294 OA
BRANCH  32  33
HETATM   33  C14 UNL     1      13.861  10.448  -1.753  1.00  0.00     0.215 C 
BRANCH  33  34
HETATM   34  C15 UNL     1      13.912   8.971  -2.140  1.00  0.00     0.180 C 
HETATM   35  C16 UNL     1      14.419   8.830  -3.569  1.00  0.00     0.197 C 
HETATM   36  C17 UNL     1      13.269   8.188  -4.323  1.00  0.00     0.199 C 
HETATM   37  C18 UNL     1      12.523   7.452  -3.207  1.00  0.00     0.262 C 
HETATM   38  O11 UNL     1      12.634   8.329  -2.065  1.00  0.00    -0.353 OA
BRANCH  35  39
HETATM   39  O13 UNL     1      15.576   8.000  -3.547  1.00  0.00    -0.286 OA
BRANCH  39  40
HETATM   40  P3  UNL     1      16.849   8.573  -4.327  1.00  0.00     0.391 P 
HETATM   41  O14 UNL     1      18.156   8.165  -3.728  1.00  0.00    -0.632 OA
BRANCH  40  42
HETATM   42  O15 UNL     1      16.503  10.134  -4.359  1.00  0.00    -0.307 OA
HETATM   43  H36 UNL     1      16.095  10.383  -5.222  1.00  0.00     0.222 HD
ENDBRANCH  40  42
BRANCH  40  44
HETATM   44  O16 UNL     1      16.543   8.104  -5.816  1.00  0.00    -0.307 OA
HETATM   45  H37 UNL     1      17.050   8.600  -6.478  1.00  0.00     0.222 HD
ENDBRANCH  40  44
ENDBRANCH  39  40
ENDBRANCH  35  39
BRANCH  36  46
HETATM   46  O12 UNL     1      13.766   7.403  -5.410  1.00  0.00    -0.388 OA
HETATM   47  H35 UNL     1      13.077   7.438  -6.116  1.00  0.00     0.210 HD
ENDBRANCH  36  46
BRANCH  37  48
HETATM   48  N3  UNL     1      11.120   7.257  -3.511  1.00  0.00    -0.297 N 
HETATM   49  C19 UNL     1      10.421   7.774  -4.577  1.00  0.00     0.188 A 
HETATM   50  N4  UNL     1       9.192   7.308  -4.641  1.00  0.00    -0.346 N 
HETATM   51  C20 UNL     1       9.091   6.443  -3.565  1.00  0.00     0.116 A 
HETATM   52  H4  UNL     1       8.474   7.533  -5.329  1.00  0.00     0.167 HD
HETATM   53  C21 UNL     1       8.058   5.607  -3.109  1.00  0.00     0.109 A 
HETATM   54  C23 UNL     1      10.265   6.433  -2.834  1.00  0.00     0.142 A 
HETATM   55  N5  UNL     1       8.265   4.870  -1.991  1.00  0.00    -0.341 N 
HETATM   56  C22 UNL     1       9.455   4.978  -1.366  1.00  0.00     0.183 A 
HETATM   57  H5  UNL     1       7.540   4.249  -1.631  1.00  0.00     0.167 HD
HETATM   58  N6  UNL     1      10.517   5.734  -1.713  1.00  0.00    -0.336 N 
HETATM   59  H6  UNL     1      11.394   5.772  -1.193  1.00  0.00     0.168 HD
BRANCH  53  60
HETATM   60  N7  UNL     1       6.827   5.503  -3.739  1.00  0.00    -0.287 NA
HETATM   61  H33 UNL     1       6.880   5.436  -4.753  1.00  0.00     0.125 HD
HETATM   62  H34 UNL     1       6.135   6.134  -3.359  1.00  0.00     0.125 HD
ENDBRANCH  53  60
ENDBRANCH  37  48
ENDBRANCH  33  34
ENDBRANCH  32  33
ENDBRANCH  28  32
ENDBRANCH  27  28
ENDBRANCH  23  27
ENDBRANCH  22  23
ENDBRANCH  21  22
ENDBRANCH  18  21
ENDBRANCH  17  18
BRANCH  17  63
HETATM   63  O17 UNL     1      12.439   9.966   5.100  1.00  0.00    -0.385 OA
HETATM   64  H38 UNL     1      12.118  10.335   4.260  1.00  0.00     0.210 HD
ENDBRANCH  17  63
ENDBRANCH  14  17
ENDBRANCH  12  13
ENDBRANCH  11  12
ENDBRANCH   8  11
ENDBRANCH   6   7
ENDBRANCH   5   6
ENDBRANCH   4   5
ENDBRANCH   2   4
TORSDOF 27
ENDMDL
MODEL 15
REMARK VINA RESULT:      -5.0      3.868      8.153
REMARK  27 active torsions:
REMARK  status: ('A' for Active; 'I' for Inactive)
REMARK    1  A    between atoms: C2_2  and  S1_4 
REMARK    2  A    between atoms: S1_4  and  C3_5 
REMARK    3  A    between atoms: C3_5  and  C4_6 
REMARK    4  A    between atoms: C4_6  and  N1_7 
REMARK       I    between atoms: N1_7  and  C5_8 
REMARK    5  A    between atoms: C5_8  and  C6_10 
REMARK    6  A    between atoms: C6_10  and  C7_11 
REMARK    7  A    between atoms: C7_11  and  N2_12 
REMARK       I    between atoms: N2_12  and  C8_13 
REMARK    8  A    between atoms: C8_13  and  C9_15 
REMARK    9  A    between atoms: C9_15  and  C10_16 
REMARK   10  A    between atoms: C9_15  and  O17_54 
REMARK   11  A    between atoms: C10_16  and  C13_19 
REMARK   12  A    between atoms: C13_19  and  O4_20 
REMARK   13  A    between atoms: O4_20  and  P1_21 
REMARK   14  A    between atoms: P1_21  and  O6_23 
REMARK   15  A    between atoms: P1_21  and  O7_24 
REMARK   16  A    between atoms: O7_24  and  P2_25 
REMARK   17  A    between atoms: P2_25  and  O9_27 
REMARK   18  A    between atoms: P2_25  and  O10_28 
REMARK   19  A    between atoms: O10_28  and  C14_29 
REMARK   20  A    between atoms: C14_29  and  C15_30 
REMARK   21  A    between atoms: C16_31  and  O13_49 
REMARK   22  A    between atoms: C17_32  and  O12_48 
REMARK   23  A    between atoms: C18_33  and  N3_35 
REMARK   24  A    between atoms: C21_40  and  N7_47 
REMARK   25  A    between atoms: O13_49  and  P3_50 
REMARK   26  A    between atoms: P3_50  and  O15_52 
REMARK   27  A    between atoms: P3_50  and  O16_53 
ROOT
HETATM    1  C1  UNL     1       7.825   8.824  -2.109  1.00  0.00     0.104 C 
HETATM    2  C2  UNL     1       7.840   7.566  -1.295  1.00  0.00     0.182 C 
HETATM    3  O1  UNL     1       8.108   7.541  -0.097  1.00  0.00    -0.286 OA
ENDROOT
BRANCH   2   4
HETATM    4  S1  UNL     1       7.478   6.107  -2.209  1.00  0.00    -0.091 SA
BRANCH   4   5
HETATM    5  C3  UNL     1       8.585   4.922  -1.379  1.00  0.00     0.102 C 
BRANCH   5   6
HETATM    6  C4  UNL     1       9.782   4.550  -2.257  1.00  0.00     0.133 C 
BRANCH   6   7
HETATM    7  N1  UNL     1      10.008   5.500  -3.327  1.00  0.00    -0.360 N 
HETATM    8  C5  UNL     1      10.788   6.618  -3.149  1.00  0.00     0.219 C 
HETATM    9  O2  UNL     1      11.269   6.921  -2.064  1.00  0.00    -0.274 OA
HETATM   10  H8  UNL     1       9.584   5.326  -4.229  1.00  0.00     0.162 HD
BRANCH   8  11
HETATM   11  C6  UNL     1      10.941   7.448  -4.406  1.00  0.00     0.122 C 
BRANCH  11  12
HETATM   12  C7  UNL     1      12.361   7.380  -4.966  1.00  0.00     0.132 C 
BRANCH  12  13
HETATM   13  N2  UNL     1      13.374   7.287  -3.935  1.00  0.00    -0.358 N 
HETATM   14  C8  UNL     1      14.679   7.654  -4.206  1.00  0.00     0.247 C 
HETATM   15  O3  UNL     1      15.052   7.952  -5.334  1.00  0.00    -0.271 OA
HETATM   16  H13 UNL     1      13.042   7.417  -2.982  1.00  0.00     0.162 HD
BRANCH  14  17
HETATM   17  C9  UNL     1      15.609   7.676  -2.983  1.00  0.00     0.219 C 
BRANCH  17  18
HETATM   18  C10 UNL     1      15.963   9.097  -2.471  1.00  0.00     0.009 C 
HETATM   19  C11 UNL     1      16.283  10.063  -3.621  1.00  0.00     0.020 C 
HETATM   20  C12 UNL     1      14.809   9.705  -1.648  1.00  0.00     0.020 C 
BRANCH  18  21
HETATM   21  C13 UNL     1      17.218   8.925  -1.568  1.00  0.00     0.192 C 
BRANCH  21  22
HETATM   22  O4  UNL     1      16.900   8.957  -0.192  1.00  0.00    -0.296 OA
BRANCH  22  23
HETATM   23  P1  UNL     1      17.351   7.810   0.834  1.00  0.00     0.401 P 
HETATM   24  O5  UNL     1      18.656   7.163   0.492  1.00  0.00    -0.631 OA
BRANCH  23  25
HETATM   25  O6  UNL     1      16.123   6.776   0.945  1.00  0.00    -0.307 OA
HETATM   26  H23 UNL     1      16.379   5.881   0.685  1.00  0.00     0.222 HD
ENDBRANCH  23  25
BRANCH  23  27
HETATM   27  O7  UNL     1      17.306   8.499   2.267  1.00  0.00    -0.195 OA
BRANCH  27  28
HETATM   28  P2  UNL     1      16.448   9.829   2.455  1.00  0.00     0.401 P 
HETATM   29  O8  UNL     1      17.084  11.110   2.024  1.00  0.00    -0.631 OA
BRANCH  28  30
HETATM   30  O9  UNL     1      15.082   9.494   1.700  1.00  0.00    -0.307 OA
HETATM   31  H24 UNL     1      14.488  10.274   1.575  1.00  0.00     0.222 HD
ENDBRANCH  28  30
BRANCH  28  32
HETATM   32  O10 UNL     1      15.967   9.766   3.976  1.00  0.00    -0.294 OA
BRANCH  32  33
HETATM   33  C14 UNL     1      16.573  10.587   4.940  1.00  0.00     0.215 C 
BRANCH  33  34
HETATM   34  C15 UNL     1      15.479  10.948   5.942  1.00  0.00     0.180 C 
HETATM   35  C16 UNL     1      14.653   9.712   6.272  1.00  0.00     0.197 C 
HETATM   36  C17 UNL     1      13.252  10.048   5.799  1.00  0.00     0.199 C 
HETATM   37  C18 UNL     1      13.249  11.578   5.861  1.00  0.00     0.262 C 
HETATM   38  O11 UNL     1      14.583  11.954   5.454  1.00  0.00    -0.353 OA
BRANCH  35  39
HETATM   39  O13 UNL     1      14.710   9.506   7.679  1.00  0.00    -0.286 OA
BRANCH  39  40
HETATM   40  P3  UNL     1      15.799   8.447   8.178  1.00  0.00     0.391 P 
HETATM   41  O14 UNL     1      16.478   7.713   7.067  1.00  0.00    -0.632 OA
BRANCH  40  42
HETATM   42  O15 UNL     1      14.931   7.588   9.211  1.00  0.00    -0.307 OA
HETATM   43  H36 UNL     1      15.157   6.630   9.145  1.00  0.00     0.222 HD
ENDBRANCH  40  42
BRANCH  40  44
HETATM   44  O16 UNL     1      16.703   9.348   9.126  1.00  0.00    -0.307 OA
HETATM   45  H37 UNL     1      16.182   9.894   9.736  1.00  0.00     0.222 HD
ENDBRANCH  40  44
ENDBRANCH  39  40
ENDBRANCH  35  39
BRANCH  36  46
HETATM   46  O12 UNL     1      12.282   9.357   6.590  1.00  0.00    -0.388 OA
HETATM   47  H35 UNL     1      12.148   9.901   7.403  1.00  0.00     0.210 HD
ENDBRANCH  36  46
BRANCH  37  48
HETATM   48  N3  UNL     1      12.298  12.170   4.941  1.00  0.00    -0.297 N 
HETATM   49  C19 UNL     1      11.093  12.756   5.255  1.00  0.00     0.188 A 
HETATM   50  N4  UNL     1      10.523  13.312   4.209  1.00  0.00    -0.346 N 
HETATM   51  C20 UNL     1      11.402  13.079   3.166  1.00  0.00     0.116 A 
HETATM   52  H4  UNL     1       9.631  13.806   4.173  1.00  0.00     0.167 HD
HETATM   53  C21 UNL     1      11.393  13.451   1.811  1.00  0.00     0.109 A 
HETATM   54  C23 UNL     1      12.487  12.339   3.598  1.00  0.00     0.142 A 
HETATM   55  N5  UNL     1      12.420  13.052   1.021  1.00  0.00    -0.341 N 
HETATM   56  C22 UNL     1      13.400  12.311   1.575  1.00  0.00     0.183 A 
HETATM   57  H5  UNL     1      12.450  13.305   0.034  1.00  0.00     0.167 HD
HETATM   58  N6  UNL     1      13.521  11.904   2.856  1.00  0.00    -0.336 N 
HETATM   59  H6  UNL     1      14.293  11.341   3.213  1.00  0.00     0.168 HD
BRANCH  53  60
HETATM   60  N7  UNL     1      10.380  14.200   1.232  1.00  0.00    -0.287 NA
HETATM   61  H33 UNL     1       9.489  14.148   1.721  1.00  0.00     0.125 HD
HETATM   62  H34 UNL     1      10.353  14.114   0.225  1.00  0.00     0.125 HD
ENDBRANCH  53  60
ENDBRANCH  37  48
ENDBRANCH  33  34
ENDBRANCH  32  33
ENDBRANCH  28  32
ENDBRANCH  27  28
ENDBRANCH  23  27
ENDBRANCH  22  23
ENDBRANCH  21  22
ENDBRANCH  18  21
ENDBRANCH  17  18
BRANCH  17  63
HETATM   63  O17 UNL     1      15.024   6.937  -1.906  1.00  0.00    -0.385 OA
HETATM   64  H38 UNL     1      15.665   6.910  -1.176  1.00  0.00     0.210 HD
ENDBRANCH  17  63
ENDBRANCH  14  17
ENDBRANCH  12  13
ENDBRANCH  11  12
ENDBRANCH   8  11
ENDBRANCH   6   7
ENDBRANCH   5   6
ENDBRANCH   4   5
ENDBRANCH   2   4
TORSDOF 27
ENDMDL
MODEL 16
REMARK VINA RESULT:      -5.0      3.595      8.310
REMARK  27 active torsions:
REMARK  status: ('A' for Active; 'I' for Inactive)
REMARK    1  A    between atoms: C2_2  and  S1_4 
REMARK    2  A    between atoms: S1_4  and  C3_5 
REMARK    3  A    between atoms: C3_5  and  C4_6 
REMARK    4  A    between atoms: C4_6  and  N1_7 
REMARK       I    between atoms: N1_7  and  C5_8 
REMARK    5  A    between atoms: C5_8  and  C6_10 
REMARK    6  A    between atoms: C6_10  and  C7_11 
REMARK    7  A    between atoms: C7_11  and  N2_12 
REMARK       I    between atoms: N2_12  and  C8_13 
REMARK    8  A    between atoms: C8_13  and  C9_15 
REMARK    9  A    between atoms: C9_15  and  C10_16 
REMARK   10  A    between atoms: C9_15  and  O17_54 
REMARK   11  A    between atoms: C10_16  and  C13_19 
REMARK   12  A    between atoms: C13_19  and  O4_20 
REMARK   13  A    between atoms: O4_20  and  P1_21 
REMARK   14  A    between atoms: P1_21  and  O6_23 
REMARK   15  A    between atoms: P1_21  and  O7_24 
REMARK   16  A    between atoms: O7_24  and  P2_25 
REMARK   17  A    between atoms: P2_25  and  O9_27 
REMARK   18  A    between atoms: P2_25  and  O10_28 
REMARK   19  A    between atoms: O10_28  and  C14_29 
REMARK   20  A    between atoms: C14_29  and  C15_30 
REMARK   21  A    between atoms: C16_31  and  O13_49 
REMARK   22  A    between atoms: C17_32  and  O12_48 
REMARK   23  A    between atoms: C18_33  and  N3_35 
REMARK   24  A    between atoms: C21_40  and  N7_47 
REMARK   25  A    between atoms: O13_49  and  P3_50 
REMARK   26  A    between atoms: P3_50  and  O15_52 
REMARK   27  A    between atoms: P3_50  and  O16_53 
ROOT
HETATM    1  C1  UNL     1       7.985   8.616  -1.534  1.00  0.00     0.104 C 
HETATM    2  C2  UNL     1       8.141   7.126  -1.500  1.00  0.00     0.182 C 
HETATM    3  O1  UNL     1       8.271   6.486  -0.460  1.00  0.00    -0.286 OA
ENDROOT
BRANCH   2   4
HETATM    4  S1  UNL     1       8.162   6.363  -3.084  1.00  0.00    -0.091 SA
BRANCH   4   5
HETATM    5  C3  UNL     1       9.832   5.636  -3.070  1.00  0.00     0.102 C 
BRANCH   5   6
HETATM    6  C4  UNL     1      10.797   6.408  -3.972  1.00  0.00     0.133 C 
BRANCH   6   7
HETATM    7  N1  UNL     1      10.948   7.792  -3.575  1.00  0.00    -0.360 N 
HETATM    8  C5  UNL     1      11.842   8.173  -2.601  1.00  0.00     0.219 C 
HETATM    9  O2  UNL     1      12.501   7.365  -1.959  1.00  0.00    -0.274 OA
HETATM   10  H8  UNL     1      10.383   8.495  -4.035  1.00  0.00     0.162 HD
BRANCH   8  11
HETATM   11  C6  UNL     1      11.883   9.669  -2.377  1.00  0.00     0.122 C 
BRANCH  11  12
HETATM   12  C7  UNL     1      13.095  10.314  -3.048  1.00  0.00     0.132 C 
BRANCH  12  13
HETATM   13  N2  UNL     1      14.184   9.385  -3.267  1.00  0.00    -0.358 N 
HETATM   14  C8  UNL     1      14.991   9.508  -4.383  1.00  0.00     0.247 C 
HETATM   15  O3  UNL     1      14.753  10.313  -5.274  1.00  0.00    -0.271 OA
HETATM   16  H13 UNL     1      14.608   9.001  -2.425  1.00  0.00     0.162 HD
BRANCH  14  17
HETATM   17  C9  UNL     1      16.210   8.574  -4.402  1.00  0.00     0.219 C 
BRANCH  17  18
HETATM   18  C10 UNL     1      17.520   9.216  -3.874  1.00  0.00     0.009 C 
HETATM   19  C11 UNL     1      18.617   8.170  -3.627  1.00  0.00     0.020 C 
HETATM   20  C12 UNL     1      18.075  10.262  -4.862  1.00  0.00     0.020 C 
BRANCH  18  21
HETATM   21  C13 UNL     1      17.146   9.908  -2.532  1.00  0.00     0.192 C 
BRANCH  21  22
HETATM   22  O4  UNL     1      16.647   8.994  -1.576  1.00  0.00    -0.296 OA
BRANCH  22  23
HETATM   23  P1  UNL     1      17.241   8.877  -0.091  1.00  0.00     0.401 P 
HETATM   24  O5  UNL     1      18.735   8.919  -0.025  1.00  0.00    -0.631 OA
BRANCH  23  25
HETATM   25  O6  UNL     1      16.598   7.555   0.564  1.00  0.00    -0.307 OA
HETATM   26  H23 UNL     1      15.657   7.474   0.366  1.00  0.00     0.222 HD
ENDBRANCH  23  25
BRANCH  23  27
HETATM   27  O7  UNL     1      16.507  10.020   0.736  1.00  0.00    -0.195 OA
BRANCH  27  28
HETATM   28  P2  UNL     1      14.991  10.369   0.390  1.00  0.00     0.401 P 
HETATM   29  O8  UNL     1      14.758  11.490  -0.570  1.00  0.00    -0.631 OA
BRANCH  28  30
HETATM   30  O9  UNL     1      14.392   8.968  -0.087  1.00  0.00    -0.307 OA
HETATM   31  H24 UNL     1      13.653   9.046  -0.739  1.00  0.00     0.222 HD
ENDBRANCH  28  30
BRANCH  28  32
HETATM   32  O10 UNL     1      14.292  10.517   1.818  1.00  0.00    -0.294 OA
BRANCH  32  33
HETATM   33  C14 UNL     1      15.071  10.499   2.986  1.00  0.00     0.215 C 
BRANCH  33  34
HETATM   34  C15 UNL     1      14.500  11.585   3.896  1.00  0.00     0.180 C 
HETATM   35  C16 UNL     1      15.060  11.425   5.303  1.00  0.00     0.197 C 
HETATM   36  C17 UNL     1      13.847  11.147   6.171  1.00  0.00     0.199 C 
HETATM   37  C18 UNL     1      12.719  11.797   5.366  1.00  0.00     0.262 C 
HETATM   38  O11 UNL     1      13.071  11.542   3.988  1.00  0.00    -0.353 OA
BRANCH  35  39
HETATM   39  O13 UNL     1      15.708  12.641   5.660  1.00  0.00    -0.286 OA
BRANCH  39  40
HETATM   40  P3  UNL     1      17.174  12.485   6.279  1.00  0.00     0.391 P 
HETATM   41  O14 UNL     1      17.906  11.275   5.796  1.00  0.00    -0.632 OA
BRANCH  40  42
HETATM   42  O15 UNL     1      16.851  12.580   7.843  1.00  0.00    -0.307 OA
HETATM   43  H36 UNL     1      16.043  12.059   8.064  1.00  0.00     0.222 HD
ENDBRANCH  40  42
BRANCH  40  44
HETATM   44  O16 UNL     1      17.807  13.907   5.953  1.00  0.00    -0.307 OA
HETATM   45  H37 UNL     1      17.156  14.626   5.989  1.00  0.00     0.222 HD
ENDBRANCH  40  44
ENDBRANCH  39  40
ENDBRANCH  35  39
BRANCH  36  46
HETATM   46  O12 UNL     1      14.067  11.628   7.499  1.00  0.00    -0.388 OA
HETATM   47  H35 UNL     1      13.175  11.812   7.880  1.00  0.00     0.210 HD
ENDBRANCH  36  46
BRANCH  37  48
HETATM   48  N3  UNL     1      11.427  11.199   5.635  1.00  0.00    -0.297 N 
HETATM   49  C19 UNL     1      11.149   9.862   5.804  1.00  0.00     0.188 A 
HETATM   50  N4  UNL     1       9.900   9.654   6.162  1.00  0.00    -0.346 N 
HETATM   51  C20 UNL     1       9.343  10.918   6.233  1.00  0.00     0.116 A 
HETATM   52  H4  UNL     1       9.445   8.760   6.346  1.00  0.00     0.167 HD
HETATM   53  C21 UNL     1       8.065  11.377   6.599  1.00  0.00     0.109 A 
HETATM   54  C23 UNL     1      10.266  11.882   5.872  1.00  0.00     0.142 A 
HETATM   55  N5  UNL     1       7.817  12.709   6.557  1.00  0.00    -0.341 N 
HETATM   56  C22 UNL     1       8.809  13.530   6.161  1.00  0.00     0.183 A 
HETATM   57  H5  UNL     1       6.903  13.079   6.818  1.00  0.00     0.167 HD
HETATM   58  N6  UNL     1      10.068  13.210   5.798  1.00  0.00    -0.336 N 
HETATM   59  H6  UNL     1      10.775  13.884   5.506  1.00  0.00     0.168 HD
BRANCH  53  60
HETATM   60  N7  UNL     1       7.037  10.535   6.993  1.00  0.00    -0.287 NA
HETATM   61  H33 UNL     1       6.114  10.825   6.677  1.00  0.00     0.125 HD
HETATM   62  H34 UNL     1       7.117  10.239   7.956  1.00  0.00     0.125 HD
ENDBRANCH  53  60
ENDBRANCH  37  48
ENDBRANCH  33  34
ENDBRANCH  32  33
ENDBRANCH  28  32
ENDBRANCH  27  28
ENDBRANCH  23  27
ENDBRANCH  22  23
ENDBRANCH  21  22
ENDBRANCH  18  21
ENDBRANCH  17  18
BRANCH  17  63
HETATM   63  O17 UNL     1      15.940   7.395  -3.635  1.00  0.00    -0.385 OA
HETATM   64  H38 UNL     1      16.574   7.362  -2.899  1.00  0.00     0.210 HD
ENDBRANCH  17  63
ENDBRANCH  14  17
ENDBRANCH  12  13
ENDBRANCH  11  12
ENDBRANCH   8  11
ENDBRANCH   6   7
ENDBRANCH   5   6
ENDBRANCH   4   5
ENDBRANCH   2   4
TORSDOF 27
ENDMDL
MODEL 17
REMARK VINA RESULT:      -4.9      3.220      7.968
REMARK  27 active torsions:
REMARK  status: ('A' for Active; 'I' for Inactive)
REMARK    1  A    between atoms: C2_2  and  S1_4 
REMARK    2  A    between atoms: S1_4  and  C3_5 
REMARK    3  A    between atoms: C3_5  and  C4_6 
REMARK    4  A    between atoms: C4_6  and  N1_7 
REMARK       I    between atoms: N1_7  and  C5_8 
REMARK    5  A    between atoms: C5_8  and  C6_10 
REMARK    6  A    between atoms: C6_10  and  C7_11 
REMARK    7  A    between atoms: C7_11  and  N2_12 
REMARK       I    between atoms: N2_12  and  C8_13 
REMARK    8  A    between atoms: C8_13  and  C9_15 
REMARK    9  A    between atoms: C9_15  and  C10_16 
REMARK   10  A    between atoms: C9_15  and  O17_54 
REMARK   11  A    between atoms: C10_16  and  C13_19 
REMARK   12  A    between atoms: C13_19  and  O4_20 
REMARK   13  A    between atoms: O4_20  and  P1_21 
REMARK   14  A    between atoms: P1_21  and  O6_23 
REMARK   15  A    between atoms: P1_21  and  O7_24 
REMARK   16  A    between atoms: O7_24  and  P2_25 
REMARK   17  A    between atoms: P2_25  and  O9_27 
REMARK   18  A    between atoms: P2_25  and  O10_28 
REMARK   19  A    between atoms: O10_28  and  C14_29 
REMARK   20  A    between atoms: C14_29  and  C15_30 
REMARK   21  A    between atoms: C16_31  and  O13_49 
REMARK   22  A    between atoms: C17_32  and  O12_48 
REMARK   23  A    between atoms: C18_33  and  N3_35 
REMARK   24  A    between atoms: C21_40  and  N7_47 
REMARK   25  A    between atoms: O13_49  and  P3_50 
REMARK   26  A    between atoms: P3_50  and  O15_52 
REMARK   27  A    between atoms: P3_50  and  O16_53 
ROOT
HETATM    1  C1  UNL     1       9.400   5.197  -1.215  1.00  0.00     0.104 C 
HETATM    2  C2  UNL     1       8.293   5.227  -2.224  1.00  0.00     0.182 C 
HETATM    3  O1  UNL     1       7.455   4.335  -2.333  1.00  0.00    -0.286 OA
ENDROOT
BRANCH   2   4
HETATM    4  S1  UNL     1       8.310   6.636  -3.277  1.00  0.00    -0.091 SA
BRANCH   4   5
HETATM    5  C3  UNL     1       8.011   7.955  -2.057  1.00  0.00     0.102 C 
BRANCH   5   6
HETATM    6  C4  UNL     1       9.182   8.937  -1.981  1.00  0.00     0.133 C 
BRANCH   6   7
HETATM    7  N1  UNL     1      10.375   8.436  -2.632  1.00  0.00    -0.360 N 
HETATM    8  C5  UNL     1      11.522   9.190  -2.720  1.00  0.00     0.219 C 
HETATM    9  O2  UNL     1      11.581  10.350  -2.329  1.00  0.00    -0.274 OA
HETATM   10  H8  UNL     1      10.360   7.504  -3.025  1.00  0.00     0.162 HD
BRANCH   8  11
HETATM   11  C6  UNL     1      12.668   8.461  -3.389  1.00  0.00     0.122 C 
BRANCH  11  12
HETATM   12  C7  UNL     1      13.827   9.401  -3.718  1.00  0.00     0.132 C 
BRANCH  12  13
HETATM   13  N2  UNL     1      15.125   8.813  -3.461  1.00  0.00    -0.358 N 
HETATM   14  C8  UNL     1      16.144   8.940  -4.387  1.00  0.00     0.247 C 
HETATM   15  O3  UNL     1      15.963   9.439  -5.490  1.00  0.00    -0.271 OA
HETATM   16  H13 UNL     1      15.392   8.752  -2.480  1.00  0.00     0.162 HD
BRANCH  14  17
HETATM   17  C9  UNL     1      17.512   8.427  -3.915  1.00  0.00     0.219 C 
BRANCH  17  18
HETATM   18  C10 UNL     1      18.573   9.536  -3.692  1.00  0.00     0.009 C 
HETATM   19  C11 UNL     1      19.889   8.974  -3.135  1.00  0.00     0.020 C 
HETATM   20  C12 UNL     1      18.893  10.283  -5.003  1.00  0.00     0.020 C 
BRANCH  18  21
HETATM   21  C13 UNL     1      17.950  10.523  -2.664  1.00  0.00     0.192 C 
BRANCH  21  22
HETATM   22  O4  UNL     1      18.564  10.437  -1.394  1.00  0.00    -0.296 OA
BRANCH  22  23
HETATM   23  P1  UNL     1      17.739  10.181  -0.043  1.00  0.00     0.401 P 
HETATM   24  O5  UNL     1      18.462  10.589   1.202  1.00  0.00    -0.631 OA
BRANCH  23  25
HETATM   25  O6  UNL     1      17.290   8.635  -0.058  1.00  0.00    -0.307 OA
HETATM   26  H23 UNL     1      18.030   8.042   0.130  1.00  0.00     0.222 HD
ENDBRANCH  23  25
BRANCH  23  27
HETATM   27  O7  UNL     1      16.343  10.910  -0.270  1.00  0.00    -0.195 OA
BRANCH  27  28
HETATM   28  P2  UNL     1      15.036  10.298   0.405  1.00  0.00     0.401 P 
HETATM   29  O8  UNL     1      14.302   9.251  -0.368  1.00  0.00    -0.631 OA
BRANCH  28  30
HETATM   30  O9  UNL     1      15.556   9.809   1.833  1.00  0.00    -0.307 OA
HETATM   31  H24 UNL     1      16.462  10.129   2.064  1.00  0.00     0.222 HD
ENDBRANCH  28  30
BRANCH  28  32
HETATM   32  O10 UNL     1      14.183  11.580   0.826  1.00  0.00    -0.294 OA
BRANCH  32  33
HETATM   33  C14 UNL     1      13.018  11.428   1.595  1.00  0.00     0.215 C 
BRANCH  33  34
HETATM   34  C15 UNL     1      12.983  12.614   2.557  1.00  0.00     0.180 C 
HETATM   35  C16 UNL     1      13.964  12.381   3.698  1.00  0.00     0.197 C 
HETATM   36  C17 UNL     1      13.101  12.340   4.945  1.00  0.00     0.199 C 
HETATM   37  C18 UNL     1      11.884  13.168   4.522  1.00  0.00     0.262 C 
HETATM   38  O11 UNL     1      11.689  12.830   3.131  1.00  0.00    -0.353 OA
BRANCH  35  39
HETATM   39  O13 UNL     1      14.884  13.468   3.718  1.00  0.00    -0.286 OA
BRANCH  39  40
HETATM   40  P3  UNL     1      16.423  13.071   3.549  1.00  0.00     0.391 P 
HETATM   41  O14 UNL     1      17.365  13.995   4.250  1.00  0.00    -0.632 OA
BRANCH  40  42
HETATM   42  O15 UNL     1      16.533  12.970   1.956  1.00  0.00    -0.307 OA
HETATM   43  H36 UNL     1      15.931  13.621   1.523  1.00  0.00     0.222 HD
ENDBRANCH  40  42
BRANCH  40  44
HETATM   44  O16 UNL     1      16.408  11.548   4.007  1.00  0.00    -0.307 OA
HETATM   45  H37 UNL     1      15.806  11.384   4.750  1.00  0.00     0.222 HD
ENDBRANCH  40  44
ENDBRANCH  39  40
ENDBRANCH  35  39
BRANCH  36  46
HETATM   46  O12 UNL     1      13.844  12.797   6.078  1.00  0.00    -0.388 OA
HETATM   47  H35 UNL     1      13.565  13.731   6.235  1.00  0.00     0.210 HD
ENDBRANCH  36  46
BRANCH  37  48
HETATM   48  N3  UNL     1      10.688  12.815   5.260  1.00  0.00    -0.297 N 
HETATM   49  C19 UNL     1       9.655  13.649   5.617  1.00  0.00     0.188 A 
HETATM   50  N4  UNL     1       8.656  12.998   6.170  1.00  0.00    -0.346 N 
HETATM   51  C20 UNL     1       9.059  11.674   6.169  1.00  0.00     0.116 A 
HETATM   52  H4  UNL     1       7.779  13.382   6.522  1.00  0.00     0.167 HD
HETATM   53  C21 UNL     1       8.430  10.486   6.580  1.00  0.00     0.109 A 
HETATM   54  C23 UNL     1      10.332  11.552   5.644  1.00  0.00     0.142 A 
HETATM   55  N5  UNL     1       9.106   9.318   6.456  1.00  0.00    -0.341 N 
HETATM   56  C22 UNL     1      10.354   9.353   5.947  1.00  0.00     0.183 A 
HETATM   57  H5  UNL     1       8.681   8.435   6.740  1.00  0.00     0.167 HD
HETATM   58  N6  UNL     1      11.052  10.423   5.514  1.00  0.00    -0.336 N 
HETATM   59  H6  UNL     1      11.999  10.381   5.137  1.00  0.00     0.168 HD
BRANCH  53  60
HETATM   60  N7  UNL     1       7.153  10.446   7.117  1.00  0.00    -0.287 NA
HETATM   61  H33 UNL     1       6.804   9.507   7.296  1.00  0.00     0.125 HD
HETATM   62  H34 UNL     1       6.517  11.092   6.670  1.00  0.00     0.125 HD
ENDBRANCH  53  60
ENDBRANCH  37  48
ENDBRANCH  33  34
ENDBRANCH  32  33
ENDBRANCH  28  32
ENDBRANCH  27  28
ENDBRANCH  23  27
ENDBRANCH  22  23
ENDBRANCH  21  22
ENDBRANCH  18  21
ENDBRANCH  17  18
BRANCH  17  63
HETATM   63  O17 UNL     1      17.367   7.686  -2.698  1.00  0.00    -0.385 OA
HETATM   64  H38 UNL     1      16.485   7.278  -2.696  1.00  0.00     0.210 HD
ENDBRANCH  17  63
ENDBRANCH  14  17
ENDBRANCH  12  13
ENDBRANCH  11  12
ENDBRANCH   8  11
ENDBRANCH   6   7
ENDBRANCH   5   6
ENDBRANCH   4   5
ENDBRANCH   2   4
TORSDOF 27
ENDMDL
MODEL 18
REMARK VINA RESULT:      -4.9      3.432      6.647
REMARK  27 active torsions:
REMARK  status: ('A' for Active; 'I' for Inactive)
REMARK    1  A    between atoms: C2_2  and  S1_4 
REMARK    2  A    between atoms: S1_4  and  C3_5 
REMARK    3  A    between atoms: C3_5  and  C4_6 
REMARK    4  A    between atoms: C4_6  and  N1_7 
REMARK       I    between atoms: N1_7  and  C5_8 
REMARK    5  A    between atoms: C5_8  and  C6_10 
REMARK    6  A    between atoms: C6_10  and  C7_11 
REMARK    7  A    between atoms: C7_11  and  N2_12 
REMARK       I    between atoms: N2_12  and  C8_13 
REMARK    8  A    between atoms: C8_13  and  C9_15 
REMARK    9  A    between atoms: C9_15  and  C10_16 
REMARK   10  A    between atoms: C9_15  and  O17_54 
REMARK   11  A    between atoms: C10_16  and  C13_19 
REMARK   12  A    between atoms: C13_19  and  O4_20 
REMARK   13  A    between atoms: O4_20  and  P1_21 
REMARK   14  A    between atoms: P1_21  and  O6_23 
REMARK   15  A    between atoms: P1_21  and  O7_24 
REMARK   16  A    between atoms: O7_24  and  P2_25 
REMARK   17  A    between atoms: P2_25  and  O9_27 
REMARK   18  A    between atoms: P2_25  and  O10_28 
REMARK   19  A    between atoms: O10_28  and  C14_29 
REMARK   20  A    between atoms: C14_29  and  C15_30 
REMARK   21  A    between atoms: C16_31  and  O13_49 
REMARK   22  A    between atoms: C17_32  and  O12_48 
REMARK   23  A    between atoms: C18_33  and  N3_35 
REMARK   24  A    between atoms: C21_40  and  N7_47 
REMARK   25  A    between atoms: O13_49  and  P3_50 
REMARK   26  A    between atoms: P3_50  and  O15_52 
REMARK   27  A    between atoms: P3_50  and  O16_53 
ROOT
HETATM    1  C1  UNL     1       8.246   6.887  -0.779  1.00  0.00     0.104 C 
HETATM    2  C2  UNL     1       8.248   5.389  -0.810  1.00  0.00     0.182 C 
HETATM    3  O1  UNL     1       7.541   4.698  -0.081  1.00  0.00    -0.286 OA
ENDROOT
BRANCH   2   4
HETATM    4  S1  UNL     1       9.384   4.689  -1.956  1.00  0.00    -0.091 SA
BRANCH   4   5
HETATM    5  C3  UNL     1       9.144   5.809  -3.374  1.00  0.00     0.102 C 
BRANCH   5   6
HETATM    6  C4  UNL     1      10.466   6.135  -4.072  1.00  0.00     0.133 C 
BRANCH   6   7
HETATM    7  N1  UNL     1      11.278   7.072  -3.324  1.00  0.00    -0.360 N 
HETATM    8  C5  UNL     1      10.923   8.395  -3.197  1.00  0.00     0.219 C 
HETATM    9  O2  UNL     1       9.952   8.877  -3.769  1.00  0.00    -0.274 OA
HETATM   10  H8  UNL     1      12.122   6.738  -2.880  1.00  0.00     0.162 HD
BRANCH   8  11
HETATM   11  C6  UNL     1      11.876   9.190  -2.330  1.00  0.00     0.122 C 
BRANCH  11  12
HETATM   12  C7  UNL     1      11.164  10.315  -1.581  1.00  0.00     0.132 C 
BRANCH  12  13
HETATM   13  N2  UNL     1      12.042  11.414  -1.238  1.00  0.00    -0.358 N 
HETATM   14  C8  UNL     1      11.524  12.676  -1.013  1.00  0.00     0.247 C 
HETATM   15  O3  UNL     1      10.344  12.940  -1.206  1.00  0.00    -0.271 OA
HETATM   16  H13 UNL     1      12.884  11.158  -0.727  1.00  0.00     0.162 HD
BRANCH  14  17
HETATM   17  C9  UNL     1      12.536  13.703  -0.486  1.00  0.00     0.219 C 
BRANCH  17  18
HETATM   18  C10 UNL     1      12.236  14.228   0.943  1.00  0.00     0.009 C 
HETATM   19  C11 UNL     1      11.420  15.529   0.922  1.00  0.00     0.020 C 
HETATM   20  C12 UNL     1      11.453  13.190   1.773  1.00  0.00     0.020 C 
BRANCH  18  21
HETATM   21  C13 UNL     1      13.621  14.489   1.602  1.00  0.00     0.192 C 
BRANCH  21  22
HETATM   22  O4  UNL     1      14.002  13.453   2.484  1.00  0.00    -0.296 OA
BRANCH  22  23
HETATM   23  P1  UNL     1      15.529  13.166   2.882  1.00  0.00     0.401 P 
HETATM   24  O5  UNL     1      15.785  13.152   4.356  1.00  0.00    -0.631 OA
BRANCH  23  25
HETATM   25  O6  UNL     1      16.428  14.232   2.076  1.00  0.00    -0.307 OA
HETATM   26  H23 UNL     1      16.678  13.907   1.202  1.00  0.00     0.222 HD
ENDBRANCH  23  25
BRANCH  23  27
HETATM   27  O7  UNL     1      15.903  11.816   2.129  1.00  0.00    -0.195 OA
BRANCH  27  28
HETATM   28  P2  UNL     1      14.844  10.625   2.113  1.00  0.00     0.401 P 
HETATM   29  O8  UNL     1      13.748  10.708   1.101  1.00  0.00    -0.631 OA
BRANCH  28  30
HETATM   30  O9  UNL     1      15.759   9.323   1.976  1.00  0.00    -0.307 OA
HETATM   31  H24 UNL     1      15.327   8.492   2.291  1.00  0.00     0.222 HD
ENDBRANCH  28  30
BRANCH  28  32
HETATM   32  O10 UNL     1      14.381  10.499   3.636  1.00  0.00    -0.294 OA
BRANCH  32  33
HETATM   33  C14 UNL     1      13.018  10.572   3.963  1.00  0.00     0.215 C 
BRANCH  33  34
HETATM   34  C15 UNL     1      12.922  10.283   5.460  1.00  0.00     0.180 C 
HETATM   35  C16 UNL     1      13.019  11.586   6.243  1.00  0.00     0.197 C 
HETATM   36  C17 UNL     1      14.273  11.437   7.083  1.00  0.00     0.199 C 
HETATM   37  C18 UNL     1      14.398   9.917   7.211  1.00  0.00     0.262 C 
HETATM   38  O11 UNL     1      13.960   9.415   5.929  1.00  0.00    -0.353 OA
BRANCH  35  39
HETATM   39  O13 UNL     1      11.847  11.707   7.044  1.00  0.00    -0.286 OA
BRANCH  39  40
HETATM   40  P3  UNL     1      10.698  12.644   6.447  1.00  0.00     0.391 P 
HETATM   41  O14 UNL     1      11.168  13.556   5.361  1.00  0.00    -0.632 OA
BRANCH  40  42
HETATM   42  O15 UNL     1      10.134  13.315   7.785  1.00  0.00    -0.307 OA
HETATM   43  H36 UNL     1       9.286  13.787   7.608  1.00  0.00     0.222 HD
ENDBRANCH  40  42
BRANCH  40  44
HETATM   44  O16 UNL     1       9.580  11.576   6.079  1.00  0.00    -0.307 OA
HETATM   45  H37 UNL     1       8.684  11.875   6.304  1.00  0.00     0.222 HD
ENDBRANCH  40  44
ENDBRANCH  39  40
ENDBRANCH  35  39
BRANCH  36  46
HETATM   46  O12 UNL     1      14.151  12.190   8.293  1.00  0.00    -0.388 OA
HETATM   47  H35 UNL     1      14.952  11.983   8.831  1.00  0.00     0.210 HD
ENDBRANCH  36  46
BRANCH  37  48
HETATM   48  N3  UNL     1      15.764   9.488   7.437  1.00  0.00    -0.297 N 
HETATM   49  C19 UNL     1      16.250   8.805   8.527  1.00  0.00     0.188 A 
HETATM   50  N4  UNL     1      17.508   8.452   8.374  1.00  0.00    -0.346 N 
HETATM   51  C20 UNL     1      17.853   8.926   7.120  1.00  0.00     0.116 A 
HETATM   52  H4  UNL     1      18.098   7.942   9.031  1.00  0.00     0.167 HD
HETATM   53  C21 UNL     1      19.031   8.838   6.359  1.00  0.00     0.109 A 
HETATM   54  C23 UNL     1      16.793   9.604   6.546  1.00  0.00     0.142 A 
HETATM   55  N5  UNL     1      19.062   9.428   5.140  1.00  0.00    -0.341 N 
HETATM   56  C22 UNL     1      17.959  10.078   4.717  1.00  0.00     0.183 A 
HETATM   57  H5  UNL     1      19.898   9.383   4.557  1.00  0.00     0.167 HD
HETATM   58  N6  UNL     1      16.777  10.220   5.350  1.00  0.00    -0.336 N 
HETATM   59  H6  UNL     1      15.976  10.727   4.973  1.00  0.00     0.168 HD
BRANCH  53  60
HETATM   60  N7  UNL     1      20.173   8.184   6.795  1.00  0.00    -0.287 NA
HETATM   61  H33 UNL     1      20.787   8.754   7.372  1.00  0.00     0.125 HD
HETATM   62  H34 UNL     1      20.611   7.631   6.072  1.00  0.00     0.125 HD
ENDBRANCH  53  60
ENDBRANCH  37  48
ENDBRANCH  33  34
ENDBRANCH  32  33
ENDBRANCH  28  32
ENDBRANCH  27  28
ENDBRANCH  23  27
ENDBRANCH  22  23
ENDBRANCH  21  22
ENDBRANCH  18  21
ENDBRANCH  17  18
BRANCH  17  63
HETATM   63  O17 UNL     1      13.855  13.146  -0.498  1.00  0.00    -0.385 OA
HETATM   64  H38 UNL     1      14.365  13.563   0.217  1.00  0.00     0.210 HD
ENDBRANCH  17  63
ENDBRANCH  14  17
ENDBRANCH  12  13
ENDBRANCH  11  12
ENDBRANCH   8  11
ENDBRANCH   6   7
ENDBRANCH   5   6
ENDBRANCH   4   5
ENDBRANCH   2   4
TORSDOF 27
ENDMDL
MODEL 19
REMARK VINA RESULT:      -4.9      3.057      6.816
REMARK  27 active torsions:
REMARK  status: ('A' for Active; 'I' for Inactive)
REMARK    1  A    between atoms: C2_2  and  S1_4 
REMARK    2  A    between atoms: S1_4  and  C3_5 
REMARK    3  A    between atoms: C3_5  and  C4_6 
REMARK    4  A    between atoms: C4_6  and  N1_7 
REMARK       I    between atoms: N1_7  and  C5_8 
REMARK    5  A    between atoms: C5_8  and  C6_10 
REMARK    6  A    between atoms: C6_10  and  C7_11 
REMARK    7  A    between atoms: C7_11  and  N2_12 
REMARK       I    between atoms: N2_12  and  C8_13 
REMARK    8  A    between atoms: C8_13  and  C9_15 
REMARK    9  A    between atoms: C9_15  and  C10_16 
REMARK   10  A    between atoms: C9_15  and  O17_54 
REMARK   11  A    between atoms: C10_16  and  C13_19 
REMARK   12  A    between atoms: C13_19  and  O4_20 
REMARK   13  A    between atoms: O4_20  and  P1_21 
REMARK   14  A    between atoms: P1_21  and  O6_23 
REMARK   15  A    between atoms: P1_21  and  O7_24 
REMARK   16  A    between atoms: O7_24  and  P2_25 
REMARK   17  A    between atoms: P2_25  and  O9_27 
REMARK   18  A    between atoms: P2_25  and  O10_28 
REMARK   19  A    between atoms: O10_28  and  C14_29 
REMARK   20  A    between atoms: C14_29  and  C15_30 
REMARK   21  A    between atoms: C16_31  and  O13_49 
REMARK   22  A    between atoms: C17_32  and  O12_48 
REMARK   23  A    between atoms: C18_33  and  N3_35 
REMARK   24  A    between atoms: C21_40  and  N7_47 
REMARK   25  A    between atoms: O13_49  and  P3_50 
REMARK   26  A    between atoms: P3_50  and  O15_52 
REMARK   27  A    between atoms: P3_50  and  O16_53 
ROOT
HETATM    1  C1  UNL     1      17.295   8.231  -0.383  1.00  0.00     0.104 C 
HETATM    2  C2  UNL     1      18.761   8.444  -0.605  1.00  0.00     0.182 C 
HETATM    3  O1  UNL     1      19.360   8.032  -1.596  1.00  0.00    -0.286 OA
ENDROOT
BRANCH   2   4
HETATM    4  S1  UNL     1      19.575   9.303   0.695  1.00  0.00    -0.091 SA
BRANCH   4   5
HETATM    5  C3  UNL     1      19.664  10.974  -0.027  1.00  0.00     0.102 C 
BRANCH   5   6
HETATM    6  C4  UNL     1      18.451  11.824   0.353  1.00  0.00     0.133 C 
BRANCH   6   7
HETATM    7  N1  UNL     1      17.981  11.561   1.697  1.00  0.00    -0.360 N 
HETATM    8  C5  UNL     1      18.122  12.484   2.707  1.00  0.00     0.219 C 
HETATM    9  O2  UNL     1      18.719  13.544   2.555  1.00  0.00    -0.274 OA
HETATM   10  H8  UNL     1      17.533  10.676   1.891  1.00  0.00     0.162 HD
BRANCH   8  11
HETATM   11  C6  UNL     1      17.516  12.034   4.019  1.00  0.00     0.122 C 
BRANCH  11  12
HETATM   12  C7  UNL     1      17.269  10.526   4.047  1.00  0.00     0.132 C 
BRANCH  12  13
HETATM   13  N2  UNL     1      15.875  10.182   4.232  1.00  0.00    -0.358 N 
HETATM   14  C8  UNL     1      15.313  10.209   5.495  1.00  0.00     0.247 C 
HETATM   15  O3  UNL     1      15.982  10.403   6.502  1.00  0.00    -0.271 OA
HETATM   16  H13 UNL     1      15.264  10.392   3.446  1.00  0.00     0.162 HD
BRANCH  14  17
HETATM   17  C9  UNL     1      13.792   9.997   5.527  1.00  0.00     0.219 C 
BRANCH  17  18
HETATM   18  C10 UNL     1      12.959  11.305   5.462  1.00  0.00     0.009 C 
HETATM   19  C11 UNL     1      11.459  11.027   5.290  1.00  0.00     0.020 C 
HETATM   20  C12 UNL     1      13.142  12.155   6.735  1.00  0.00     0.020 C 
BRANCH  18  21
HETATM   21  C13 UNL     1      13.490  12.088   4.227  1.00  0.00     0.192 C 
BRANCH  21  22
HETATM   22  O4  UNL     1      13.081  11.507   3.005  1.00  0.00    -0.296 OA
BRANCH  22  23
HETATM   23  P1  UNL     1      13.807  11.816   1.609  1.00  0.00     0.401 P 
HETATM   24  O5  UNL     1      15.094  11.079   1.413  1.00  0.00    -0.631 OA
BRANCH  23  25
HETATM   25  O6  UNL     1      13.951  13.415   1.503  1.00  0.00    -0.307 OA
HETATM   26  H23 UNL     1      14.799  13.726   1.845  1.00  0.00     0.222 HD
ENDBRANCH  23  25
BRANCH  23  27
HETATM   27  O7  UNL     1      12.702  11.530   0.500  1.00  0.00    -0.195 OA
BRANCH  27  28
HETATM   28  P2  UNL     1      13.109  11.633  -1.037  1.00  0.00     0.401 P 
HETATM   29  O8  UNL     1      12.107  12.241  -1.963  1.00  0.00    -0.631 OA
BRANCH  28  30
HETATM   30  O9  UNL     1      14.507  12.403  -0.995  1.00  0.00    -0.307 OA
HETATM   31  H24 UNL     1      14.979  12.335  -0.129  1.00  0.00     0.222 HD
ENDBRANCH  28  30
BRANCH  28  32
HETATM   32  O10 UNL     1      13.596  10.158  -1.406  1.00  0.00    -0.294 OA
BRANCH  32  33
HETATM   33  C14 UNL     1      14.626   9.972  -2.342  1.00  0.00     0.215 C 
BRANCH  33  34
HETATM   34  C15 UNL     1      14.368   8.616  -2.997  1.00  0.00     0.180 C 
HETATM   35  C16 UNL     1      14.505   8.739  -4.508  1.00  0.00     0.197 C 
HETATM   36  C17 UNL     1      13.131   8.390  -5.048  1.00  0.00     0.199 C 
HETATM   37  C18 UNL     1      12.562   7.505  -3.936  1.00  0.00     0.262 C 
HETATM   38  O11 UNL     1      13.062   8.100  -2.717  1.00  0.00    -0.353 OA
BRANCH  35  39
HETATM   39  O13 UNL     1      15.501   7.817  -4.938  1.00  0.00    -0.286 OA
BRANCH  39  40
HETATM   40  P3  UNL     1      16.703   8.446  -5.783  1.00  0.00     0.391 P 
HETATM   41  O14 UNL     1      17.203   9.747  -5.244  1.00  0.00    -0.632 OA
BRANCH  40  42
HETATM   42  O15 UNL     1      16.068   8.448  -7.252  1.00  0.00    -0.307 OA
HETATM   43  H36 UNL     1      15.195   8.907  -7.254  1.00  0.00     0.222 HD
ENDBRANCH  40  42
BRANCH  40  44
HETATM   44  O16 UNL     1      17.725   7.228  -5.832  1.00  0.00    -0.307 OA
HETATM   45  H37 UNL     1      18.037   7.034  -6.730  1.00  0.00     0.222 HD
ENDBRANCH  40  44
ENDBRANCH  39  40
ENDBRANCH  35  39
BRANCH  36  46
HETATM   46  O12 UNL     1      13.242   7.814  -6.352  1.00  0.00    -0.388 OA
HETATM   47  H35 UNL     1      14.168   7.482  -6.431  1.00  0.00     0.210 HD
ENDBRANCH  36  46
BRANCH  37  48
HETATM   48  N3  UNL     1      11.114   7.518  -3.900  1.00  0.00    -0.297 N 
HETATM   49  C19 UNL     1      10.259   6.681  -4.579  1.00  0.00     0.188 A 
HETATM   50  N4  UNL     1       9.003   6.867  -4.235  1.00  0.00    -0.346 N 
HETATM   51  C20 UNL     1       9.046   7.870  -3.283  1.00  0.00     0.116 A 
HETATM   52  H4  UNL     1       8.180   6.380  -4.591  1.00  0.00     0.167 HD
HETATM   53  C21 UNL     1       8.052   8.488  -2.505  1.00  0.00     0.109 A 
HETATM   54  C23 UNL     1      10.344   8.310  -3.095  1.00  0.00     0.142 A 
HETATM   55  N5  UNL     1       8.418   9.471  -1.647  1.00  0.00    -0.341 N 
HETATM   56  C22 UNL     1       9.721   9.813  -1.586  1.00  0.00     0.183 A 
HETATM   57  H5  UNL     1       7.726   9.940  -1.062  1.00  0.00     0.167 HD
HETATM   58  N6  UNL     1      10.757   9.289  -2.271  1.00  0.00    -0.336 N 
HETATM   59  H6  UNL     1      11.726   9.595  -2.178  1.00  0.00     0.168 HD
BRANCH  53  60
HETATM   60  N7  UNL     1       6.710   8.151  -2.574  1.00  0.00    -0.287 NA
HETATM   61  H33 UNL     1       6.475   7.524  -3.341  1.00  0.00     0.125 HD
HETATM   62  H34 UNL     1       6.096   8.941  -2.427  1.00  0.00     0.125 HD
ENDBRANCH  53  60
ENDBRANCH  37  48
ENDBRANCH  33  34
ENDBRANCH  32  33
ENDBRANCH  28  32
ENDBRANCH  27  28
ENDBRANCH  23  27
ENDBRANCH  22  23
ENDBRANCH  21  22
ENDBRANCH  18  21
ENDBRANCH  17  18
BRANCH  17  63
HETATM   63  O17 UNL     1      13.390   9.148   4.447  1.00  0.00    -0.385 OA
HETATM   64  H38 UNL     1      13.314   9.693   3.647  1.00  0.00     0.210 HD
ENDBRANCH  17  63
ENDBRANCH  14  17
ENDBRANCH  12  13
ENDBRANCH  11  12
ENDBRANCH   8  11
ENDBRANCH   6   7
ENDBRANCH   5   6
ENDBRANCH   4   5
ENDBRANCH   2   4
TORSDOF 27
ENDMDL
MODEL 20
REMARK VINA RESULT:      -4.8      1.724      2.194
REMARK  27 active torsions:
REMARK  status: ('A' for Active; 'I' for Inactive)
REMARK    1  A    between atoms: C2_2  and  S1_4 
REMARK    2  A    between atoms: S1_4  and  C3_5 
REMARK    3  A    between atoms: C3_5  and  C4_6 
REMARK    4  A    between atoms: C4_6  and  N1_7 
REMARK       I    between atoms: N1_7  and  C5_8 
REMARK    5  A    between atoms: C5_8  and  C6_10 
REMARK    6  A    between atoms: C6_10  and  C7_11 
REMARK    7  A    between atoms: C7_11  and  N2_12 
REMARK       I    between atoms: N2_12  and  C8_13 
REMARK    8  A    between atoms: C8_13  and  C9_15 
REMARK    9  A    between atoms: C9_15  and  C10_16 
REMARK   10  A    between atoms: C9_15  and  O17_54 
REMARK   11  A    between atoms: C10_16  and  C13_19 
REMARK   12  A    between atoms: C13_19  and  O4_20 
REMARK   13  A    between atoms: O4_20  and  P1_21 
REMARK   14  A    between atoms: P1_21  and  O6_23 
REMARK   15  A    between atoms: P1_21  and  O7_24 
REMARK   16  A    between atoms: O7_24  and  P2_25 
REMARK   17  A    between atoms: P2_25  and  O9_27 
REMARK   18  A    between atoms: P2_25  and  O10_28 
REMARK   19  A    between atoms: O10_28  and  C14_29 
REMARK   20  A    between atoms: C14_29  and  C15_30 
REMARK   21  A    between atoms: C16_31  and  O13_49 
REMARK   22  A    between atoms: C17_32  and  O12_48 
REMARK   23  A    between atoms: C18_33  and  N3_35 
REMARK   24  A    between atoms: C21_40  and  N7_47 
REMARK   25  A    between atoms: O13_49  and  P3_50 
REMARK   26  A    between atoms: P3_50  and  O15_52 
REMARK   27  A    between atoms: P3_50  and  O16_53 
ROOT
HETATM    1  C1  UNL     1       7.546   5.067  -2.300  1.00  0.00     0.104 C 
HETATM    2  C2  UNL     1       8.637   5.687  -1.481  1.00  0.00     0.182 C 
HETATM    3  O1  UNL     1       9.685   5.108  -1.205  1.00  0.00    -0.286 OA
ENDROOT
BRANCH   2   4
HETATM    4  S1  UNL     1       8.279   7.310  -0.906  1.00  0.00    -0.091 SA
BRANCH   4   5
HETATM    5  C3  UNL     1       8.072   8.177  -2.495  1.00  0.00     0.102 C 
BRANCH   5   6
HETATM    6  C4  UNL     1       9.363   8.176  -3.317  1.00  0.00     0.133 C 
BRANCH   6   7
HETATM    7  N1  UNL     1      10.395   9.011  -2.739  1.00  0.00    -0.360 N 
HETATM    8  C5  UNL     1      11.646   8.519  -2.449  1.00  0.00     0.219 C 
HETATM    9  O2  UNL     1      11.938   7.336  -2.584  1.00  0.00    -0.274 OA
HETATM   10  H8  UNL     1      10.187   9.983  -2.553  1.00  0.00     0.162 HD
BRANCH   8  11
HETATM   11  C6  UNL     1      12.591   9.568  -1.904  1.00  0.00     0.122 C 
BRANCH  11  12
HETATM   12  C7  UNL     1      11.889  10.906  -1.675  1.00  0.00     0.132 C 
BRANCH  12  13
HETATM   13  N2  UNL     1      12.075  11.423  -0.336  1.00  0.00    -0.358 N 
HETATM   14  C8  UNL     1      12.707  12.637  -0.139  1.00  0.00     0.247 C 
HETATM   15  O3  UNL     1      13.231  13.255  -1.057  1.00  0.00    -0.271 OA
HETATM   16  H13 UNL     1      11.364  11.153   0.341  1.00  0.00     0.162 HD
BRANCH  14  17
HETATM   17  C9  UNL     1      12.681  13.150   1.309  1.00  0.00     0.219 C 
BRANCH  17  18
HETATM   18  C10 UNL     1      13.890  12.703   2.171  1.00  0.00     0.009 C 
HETATM   19  C11 UNL     1      13.655  12.949   3.669  1.00  0.00     0.020 C 
HETATM   20  C12 UNL     1      14.200  11.205   1.978  1.00  0.00     0.020 C 
BRANCH  18  21
HETATM   21  C13 UNL     1      15.098  13.555   1.686  1.00  0.00     0.192 C 
BRANCH  21  22
HETATM   22  O4  UNL     1      16.048  12.786   0.976  1.00  0.00    -0.296 OA
BRANCH  22  23
HETATM   23  P1  UNL     1      16.819  13.333  -0.319  1.00  0.00     0.401 P 
HETATM   24  O5  UNL     1      18.132  13.985  -0.021  1.00  0.00    -0.631 OA
BRANCH  23  25
HETATM   25  O6  UNL     1      15.786  14.284  -1.107  1.00  0.00    -0.307 OA
HETATM   26  H23 UNL     1      15.135  13.775  -1.607  1.00  0.00     0.222 HD
ENDBRANCH  23  25
BRANCH  23  27
HETATM   27  O7  UNL     1      16.904  12.087  -1.304  1.00  0.00    -0.195 OA
BRANCH  27  28
HETATM   28  P2  UNL     1      17.043  12.350  -2.869  1.00  0.00     0.401 P 
HETATM   29  O8  UNL     1      15.782  12.606  -3.627  1.00  0.00    -0.631 OA
BRANCH  28  30
HETATM   30  O9  UNL     1      18.103  13.541  -2.948  1.00  0.00    -0.307 OA
HETATM   31  H24 UNL     1      18.178  13.957  -3.841  1.00  0.00     0.222 HD
ENDBRANCH  28  30
BRANCH  28  32
HETATM   32  O10 UNL     1      17.933  11.130  -3.388  1.00  0.00    -0.294 OA
BRANCH  32  33
HETATM   33  C14 UNL     1      17.874  10.740  -4.735  1.00  0.00     0.215 C 
BRANCH  33  34
HETATM   34  C15 UNL     1      17.577   9.241  -4.733  1.00  0.00     0.180 C 
HETATM   35  C16 UNL     1      16.146   8.998  -5.195  1.00  0.00     0.197 C 
HETATM   36  C17 UNL     1      15.463   8.348  -4.008  1.00  0.00     0.199 C 
HETATM   37  C18 UNL     1      16.640   7.703  -3.271  1.00  0.00     0.262 C 
HETATM   38  O11 UNL     1      17.723   8.644  -3.439  1.00  0.00    -0.353 OA
BRANCH  35  39
HETATM   39  O13 UNL     1      16.189   8.137  -6.328  1.00  0.00    -0.286 OA
BRANCH  39  40
HETATM   40  P3  UNL     1      16.086   8.862  -7.750  1.00  0.00     0.391 P 
HETATM   41  O14 UNL     1      17.406   9.281  -8.310  1.00  0.00    -0.632 OA
BRANCH  40  42
HETATM   42  O15 UNL     1      15.021  10.010  -7.423  1.00  0.00    -0.307 OA
HETATM   43  H36 UNL     1      14.482   9.771  -6.631  1.00  0.00     0.222 HD
ENDBRANCH  40  42
BRANCH  40  44
HETATM   44  O16 UNL     1      15.235   7.806  -8.580  1.00  0.00    -0.307 OA
HETATM   45  H37 UNL     1      14.281   7.982  -8.548  1.00  0.00     0.222 HD
ENDBRANCH  40  44
ENDBRANCH  39  40
ENDBRANCH  35  39
BRANCH  36  46
HETATM   46  O12 UNL     1      14.414   7.484  -4.452  1.00  0.00    -0.388 OA
HETATM   47  H35 UNL     1      14.743   7.044  -5.271  1.00  0.00     0.210 HD
ENDBRANCH  36  46
BRANCH  37  48
HETATM   48  N3  UNL     1      16.384   7.534  -1.855  1.00  0.00    -0.297 N 
HETATM   49  C19 UNL     1      15.527   6.634  -1.267  1.00  0.00     0.188 A 
HETATM   50  N4  UNL     1      15.616   6.644   0.045  1.00  0.00    -0.346 N 
HETATM   51  C20 UNL     1      16.583   7.595   0.322  1.00  0.00     0.116 A 
HETATM   52  H4  UNL     1      15.091   6.078   0.711  1.00  0.00     0.167 HD
HETATM   53  C21 UNL     1      17.163   8.043   1.521  1.00  0.00     0.109 A 
HETATM   54  C23 UNL     1      17.039   8.182  -0.845  1.00  0.00     0.142 A 
HETATM   55  N5  UNL     1      18.102   9.019   1.463  1.00  0.00    -0.341 N 
HETATM   56  C22 UNL     1      18.431   9.516   0.254  1.00  0.00     0.183 A 
HETATM   57  H5  UNL     1      18.547   9.368   2.311  1.00  0.00     0.167 HD
HETATM   58  N6  UNL     1      17.954   9.161  -0.956  1.00  0.00    -0.336 N 
HETATM   59  H6  UNL     1      18.247   9.580  -1.839  1.00  0.00     0.168 HD
BRANCH  53  60
HETATM   60  N7  UNL     1      16.817   7.546   2.768  1.00  0.00    -0.287 NA
HETATM   61  H33 UNL     1      16.907   6.537   2.856  1.00  0.00     0.125 HD
HETATM   62  H34 UNL     1      15.973   7.962   3.138  1.00  0.00     0.125 HD
ENDBRANCH  53  60
ENDBRANCH  37  48
ENDBRANCH  33  34
ENDBRANCH  32  33
ENDBRANCH  28  32
ENDBRANCH  27  28
ENDBRANCH  23  27
ENDBRANCH  22  23
ENDBRANCH  21  22
ENDBRANCH  18  21
ENDBRANCH  17  18
BRANCH  17  63
HETATM   63  O17 UNL     1      12.615  14.580   1.323  1.00  0.00    -0.385 OA
HETATM   64  H38 UNL     1      13.253  14.904   1.981  1.00  0.00     0.210 HD
ENDBRANCH  17  63
ENDBRANCH  14  17
ENDBRANCH  12  13
ENDBRANCH  11  12
ENDBRANCH   8  11
ENDBRANCH   6   7
ENDBRANCH   5   6
ENDBRANCH   4   5
ENDBRANCH   2   4
TORSDOF 27
ENDMDL
