MODEL 1
REMARK VINA RESULT:      -4.5      0.000      0.000
REMARK  2 active torsions:
REMARK  status: ('A' for Active; 'I' for Inactive)
REMARK    1  A    between atoms: C3_3  and  O1_8 
REMARK    2  A    between atoms: C6_6  and  N1_7 
ROOT
HETATM    1  C1  UNL     1       8.151   5.757  -3.943  1.00  0.00     0.026 A 
HETATM    2  C2  UNL     1       7.764   5.116  -2.764  1.00  0.00     0.038 A 
HETATM    3  C3  UNL     1       8.732   4.673  -1.873  1.00  0.00     0.065 A 
HETATM    4  C4  UNL     1      10.082   4.874  -2.137  1.00  0.00     0.038 A 
HETATM    5  C5  UNL     1      10.462   5.514  -3.320  1.00  0.00     0.026 A 
HETATM    6  C6  UNL     1       9.504   5.916  -4.257  1.00  0.00     0.005 A 
ENDROOT
BRANCH   6   7
HETATM    7  N1  UNL     1       9.886   6.661  -5.379  1.00  0.00    -0.303 NA
HETATM    8  H5  UNL     1       9.277   7.451  -5.570  1.00  0.00     0.124 HD
HETATM    9  H6  UNL     1      10.059   6.098  -6.205  1.00  0.00     0.124 HD
ENDBRANCH   6   7
BRANCH   3  10
HETATM   10  O1  UNL     1       8.314   4.055  -0.733  1.00  0.00    -0.361 OA
HETATM   11  H7  UNL     1       7.831   4.699  -0.191  1.00  0.00     0.217 HD
ENDBRANCH   3  10
TORSDOF 2
ENDMDL
MODEL 2
REMARK VINA RESULT:      -4.5      0.429      1.720
REMARK  2 active torsions:
REMARK  status: ('A' for Active; 'I' for Inactive)
REMARK    1  A    between atoms: C3_3  and  O1_8 
REMARK    2  A    between atoms: C6_6  and  N1_7 
ROOT
HETATM    1  C1  UNL     1      10.214   5.143  -3.385  1.00  0.00     0.026 A 
HETATM    2  C2  UNL     1       9.905   4.394  -2.248  1.00  0.00     0.038 A 
HETATM    3  C3  UNL     1       8.612   4.407  -1.746  1.00  0.00     0.065 A 
HETATM    4  C4  UNL     1       7.616   5.147  -2.375  1.00  0.00     0.038 A 
HETATM    5  C5  UNL     1       7.933   5.896  -3.512  1.00  0.00     0.026 A 
HETATM    6  C6  UNL     1       9.244   5.942  -3.998  1.00  0.00     0.005 A 
ENDROOT
BRANCH   6   7
HETATM    7  N1  UNL     1       9.526   6.597  -5.202  1.00  0.00    -0.303 NA
HETATM    8  H5  UNL     1       8.756   7.157  -5.553  1.00  0.00     0.124 HD
HETATM    9  H6  UNL     1       9.920   5.992  -5.916  1.00  0.00     0.124 HD
ENDBRANCH   6   7
BRANCH   3  10
HETATM   10  O1  UNL     1       8.349   3.661  -0.637  1.00  0.00    -0.361 OA
HETATM   11  H7  UNL     1       8.936   2.888  -0.638  1.00  0.00     0.217 HD
ENDBRANCH   3  10
TORSDOF 2
ENDMDL
MODEL 3
REMARK VINA RESULT:      -4.4      2.783      3.684
REMARK  2 active torsions:
REMARK  status: ('A' for Active; 'I' for Inactive)
REMARK    1  A    between atoms: C3_3  and  O1_8 
REMARK    2  A    between atoms: C6_6  and  N1_7 
ROOT
HETATM    1  C1  UNL     1      10.099   5.067  -2.247  1.00  0.00     0.026 A 
HETATM    2  C2  UNL     1      10.475   5.732  -3.416  1.00  0.00     0.038 A 
HETATM    3  C3  UNL     1       9.509   6.092  -4.345  1.00  0.00     0.065 A 
HETATM    4  C4  UNL     1       8.167   5.811  -4.114  1.00  0.00     0.038 A 
HETATM    5  C5  UNL     1       7.797   5.144  -2.942  1.00  0.00     0.026 A 
HETATM    6  C6  UNL     1       8.763   4.721  -2.023  1.00  0.00     0.005 A 
ENDROOT
BRANCH   6   7
HETATM    7  N1  UNL     1       8.375   4.162  -0.800  1.00  0.00    -0.303 NA
HETATM    8  H5  UNL     1       8.449   3.150  -0.773  1.00  0.00     0.124 HD
HETATM    9  H6  UNL     1       7.476   4.492  -0.465  1.00  0.00     0.124 HD
ENDBRANCH   6   7
BRANCH   3  10
HETATM   10  O1  UNL     1       9.916   6.742  -5.471  1.00  0.00    -0.361 OA
HETATM   11  H7  UNL     1      10.519   7.458  -5.215  1.00  0.00     0.217 HD
ENDBRANCH   3  10
TORSDOF 2
ENDMDL
MODEL 4
REMARK VINA RESULT:      -4.3      3.203      3.837
REMARK  2 active torsions:
REMARK  status: ('A' for Active; 'I' for Inactive)
REMARK    1  A    between atoms: C3_3  and  O1_8 
REMARK    2  A    between atoms: C6_6  and  N1_7 
ROOT
HETATM    1  C1  UNL     1      10.502   4.886  -4.009  1.00  0.00     0.026 A 
HETATM    2  C2  UNL     1      10.628   5.813  -5.046  1.00  0.00     0.038 A 
HETATM    3  C3  UNL     1      10.356   7.153  -4.808  1.00  0.00     0.065 A 
HETATM    4  C4  UNL     1       9.975   7.584  -3.542  1.00  0.00     0.038 A 
HETATM    5  C5  UNL     1       9.850   6.651  -2.509  1.00  0.00     0.026 A 
HETATM    6  C6  UNL     1      10.062   5.288  -2.744  1.00  0.00     0.005 A 
ENDROOT
BRANCH   6   7
HETATM    7  N1  UNL     1      10.051   4.380  -1.679  1.00  0.00    -0.303 NA
HETATM    8  H5  UNL     1       9.174   3.877  -1.581  1.00  0.00     0.124 HD
HETATM    9  H6  UNL     1      10.371   4.773  -0.800  1.00  0.00     0.124 HD
ENDBRANCH   6   7
BRANCH   3  10
HETATM   10  O1  UNL     1      10.493   8.026  -5.845  1.00  0.00    -0.361 OA
HETATM   11  H7  UNL     1       9.679   8.011  -6.373  1.00  0.00     0.217 HD
ENDBRANCH   3  10
TORSDOF 2
ENDMDL
MODEL 5
REMARK VINA RESULT:      -4.2      2.047      2.515
REMARK  2 active torsions:
REMARK  status: ('A' for Active; 'I' for Inactive)
REMARK    1  A    between atoms: C3_3  and  O1_8 
REMARK    2  A    between atoms: C6_6  and  N1_7 
ROOT
HETATM    1  C1  UNL     1      10.210   7.097  -3.422  1.00  0.00     0.026 A 
HETATM    2  C2  UNL     1      10.483   5.794  -3.000  1.00  0.00     0.038 A 
HETATM    3  C3  UNL     1       9.793   5.261  -1.920  1.00  0.00     0.065 A 
HETATM    4  C4  UNL     1       8.820   6.008  -1.264  1.00  0.00     0.038 A 
HETATM    5  C5  UNL     1       8.553   7.312  -1.691  1.00  0.00     0.026 A 
HETATM    6  C6  UNL     1       9.279   7.886  -2.739  1.00  0.00     0.005 A 
ENDROOT
BRANCH   6   7
HETATM    7  N1  UNL     1       8.924   9.146  -3.236  1.00  0.00    -0.303 NA
HETATM    8  H5  UNL     1       7.927   9.332  -3.200  1.00  0.00     0.124 HD
HETATM    9  H6  UNL     1       9.324   9.357  -4.144  1.00  0.00     0.124 HD
ENDBRANCH   6   7
BRANCH   3  10
HETATM   10  O1  UNL     1      10.086   3.986  -1.541  1.00  0.00    -0.361 OA
HETATM   11  H7  UNL     1       9.813   3.867  -0.617  1.00  0.00     0.217 HD
ENDBRANCH   3  10
TORSDOF 2
ENDMDL
MODEL 6
REMARK VINA RESULT:      -4.2      3.350      3.777
REMARK  2 active torsions:
REMARK  status: ('A' for Active; 'I' for Inactive)
REMARK    1  A    between atoms: C3_3  and  O1_8 
REMARK    2  A    between atoms: C6_6  and  N1_7 
ROOT
HETATM    1  C1  UNL     1       8.814   5.523  -2.869  1.00  0.00     0.026 A 
HETATM    2  C2  UNL     1       9.140   6.640  -3.641  1.00  0.00     0.038 A 
HETATM    3  C3  UNL     1       9.174   7.896  -3.052  1.00  0.00     0.065 A 
HETATM    4  C4  UNL     1       8.903   8.051  -1.697  1.00  0.00     0.038 A 
HETATM    5  C5  UNL     1       8.576   6.928  -0.931  1.00  0.00     0.026 A 
HETATM    6  C6  UNL     1       8.479   5.663  -1.518  1.00  0.00     0.005 A 
ENDROOT
BRANCH   6   7
HETATM    7  N1  UNL     1       8.269   4.531  -0.723  1.00  0.00    -0.303 NA
HETATM    8  H5  UNL     1       7.324   4.458  -0.359  1.00  0.00     0.124 HD
HETATM    9  H6  UNL     1       8.971   4.399  -0.002  1.00  0.00     0.124 HD
ENDBRANCH   6   7
BRANCH   3  10
HETATM   10  O1  UNL     1       9.499   8.960  -3.839  1.00  0.00    -0.361 OA
HETATM   11  H7  UNL     1       8.680   9.365  -4.166  1.00  0.00     0.217 HD
ENDBRANCH   3  10
TORSDOF 2
ENDMDL
MODEL 7
REMARK VINA RESULT:      -4.2      2.127      2.625
REMARK  2 active torsions:
REMARK  status: ('A' for Active; 'I' for Inactive)
REMARK    1  A    between atoms: C3_3  and  O1_8 
REMARK    2  A    between atoms: C6_6  and  N1_7 
ROOT
HETATM    1  C1  UNL     1      10.228   7.068  -4.861  1.00  0.00     0.026 A 
HETATM    2  C2  UNL     1      10.454   5.690  -4.866  1.00  0.00     0.038 A 
HETATM    3  C3  UNL     1      10.218   4.950  -3.716  1.00  0.00     0.065 A 
HETATM    4  C4  UNL     1       9.742   5.566  -2.563  1.00  0.00     0.038 A 
HETATM    5  C5  UNL     1       9.519   6.946  -2.566  1.00  0.00     0.026 A 
HETATM    6  C6  UNL     1       9.807   7.717  -3.697  1.00  0.00     0.005 A 
ENDROOT
BRANCH   6   7
HETATM    7  N1  UNL     1       9.469   9.075  -3.729  1.00  0.00    -0.303 NA
HETATM    8  H5  UNL     1       8.478   9.245  -3.870  1.00  0.00     0.124 HD
HETATM    9  H6  UNL     1      10.048   9.627  -4.352  1.00  0.00     0.124 HD
ENDBRANCH   6   7
BRANCH   3  10
HETATM   10  O1  UNL     1      10.448   3.608  -3.761  1.00  0.00    -0.361 OA
HETATM   11  H7  UNL     1      11.086   3.379  -3.066  1.00  0.00     0.217 HD
ENDBRANCH   3  10
TORSDOF 2
ENDMDL
MODEL 8
REMARK VINA RESULT:      -4.2      3.005      3.414
REMARK  2 active torsions:
REMARK  status: ('A' for Active; 'I' for Inactive)
REMARK    1  A    between atoms: C3_3  and  O1_8 
REMARK    2  A    between atoms: C6_6  and  N1_7 
ROOT
HETATM    1  C1  UNL     1       8.825   6.114  -1.389  1.00  0.00     0.026 A 
HETATM    2  C2  UNL     1       8.551   7.406  -1.843  1.00  0.00     0.038 A 
HETATM    3  C3  UNL     1       9.235   7.908  -2.941  1.00  0.00     0.065 A 
HETATM    4  C4  UNL     1      10.179   7.131  -3.603  1.00  0.00     0.038 A 
HETATM    5  C5  UNL     1      10.448   5.839  -3.142  1.00  0.00     0.026 A 
HETATM    6  C6  UNL     1       9.812   5.337  -2.002  1.00  0.00     0.005 A 
ENDROOT
BRANCH   6   7
HETATM    7  N1  UNL     1       9.999   4.004  -1.620  1.00  0.00    -0.303 NA
HETATM    8  H5  UNL     1      10.679   3.885  -0.875  1.00  0.00     0.124 HD
HETATM    9  H6  UNL     1      10.163   3.373  -2.397  1.00  0.00     0.124 HD
ENDBRANCH   6   7
BRANCH   3  10
HETATM   10  O1  UNL     1       8.938   9.172  -3.355  1.00  0.00    -0.361 OA
HETATM   11  H7  UNL     1       8.939   9.759  -2.582  1.00  0.00     0.217 HD
ENDBRANCH   3  10
TORSDOF 2
ENDMDL
MODEL 9
REMARK VINA RESULT:      -4.2      2.326      2.947
REMARK  2 active torsions:
REMARK  status: ('A' for Active; 'I' for Inactive)
REMARK    1  A    between atoms: C3_3  and  O1_8 
REMARK    2  A    between atoms: C6_6  and  N1_7 
ROOT
HETATM    1  C1  UNL     1       9.758   6.750  -4.687  1.00  0.00     0.026 A 
HETATM    2  C2  UNL     1      11.059   6.890  -4.199  1.00  0.00     0.038 A 
HETATM    3  C3  UNL     1      11.426   6.250  -3.024  1.00  0.00     0.065 A 
HETATM    4  C4  UNL     1      10.515   5.457  -2.336  1.00  0.00     0.038 A 
HETATM    5  C5  UNL     1       9.214   5.322  -2.829  1.00  0.00     0.026 A 
HETATM    6  C6  UNL     1       8.809   6.006  -3.980  1.00  0.00     0.005 A 
ENDROOT
BRANCH   6   7
HETATM    7  N1  UNL     1       7.544   5.771  -4.531  1.00  0.00    -0.303 NA
HETATM    8  H5  UNL     1       6.784   6.179  -3.995  1.00  0.00     0.124 HD
HETATM    9  H6  UNL     1       7.373   4.799  -4.766  1.00  0.00     0.124 HD
ENDBRANCH   6   7
BRANCH   3  10
HETATM   10  O1  UNL     1      12.705   6.410  -2.582  1.00  0.00    -0.361 OA
HETATM   11  H7  UNL     1      12.732   7.167  -1.976  1.00  0.00     0.217 HD
ENDBRANCH   3  10
TORSDOF 2
ENDMDL
MODEL 10
REMARK VINA RESULT:      -4.2      2.323      2.702
REMARK  2 active torsions:
REMARK  status: ('A' for Active; 'I' for Inactive)
REMARK    1  A    between atoms: C3_3  and  O1_8 
REMARK    2  A    between atoms: C6_6  and  N1_7 
ROOT
HETATM    1  C1  UNL     1       8.910   7.847  -2.389  1.00  0.00     0.026 A 
HETATM    2  C2  UNL     1       8.076   6.749  -2.606  1.00  0.00     0.038 A 
HETATM    3  C3  UNL     1       8.285   5.934  -3.710  1.00  0.00     0.065 A 
HETATM    4  C4  UNL     1       9.328   6.192  -4.593  1.00  0.00     0.038 A 
HETATM    5  C5  UNL     1      10.158   7.295  -4.370  1.00  0.00     0.026 A 
HETATM    6  C6  UNL     1       9.927   8.161  -3.296  1.00  0.00     0.005 A 
ENDROOT
BRANCH   6   7
HETATM    7  N1  UNL     1      10.833   9.190  -3.013  1.00  0.00    -0.303 NA
HETATM    8  H5  UNL     1      11.324   9.537  -3.831  1.00  0.00     0.124 HD
HETATM    9  H6  UNL     1      11.461   8.983  -2.244  1.00  0.00     0.124 HD
ENDBRANCH   6   7
BRANCH   3  10
HETATM   10  O1  UNL     1       7.451   4.871  -3.886  1.00  0.00    -0.361 OA
HETATM   11  H7  UNL     1       6.937   5.011  -4.697  1.00  0.00     0.217 HD
ENDBRANCH   3  10
TORSDOF 2
ENDMDL
MODEL 11
REMARK VINA RESULT:      -4.1      2.323      2.956
REMARK  2 active torsions:
REMARK  status: ('A' for Active; 'I' for Inactive)
REMARK    1  A    between atoms: C3_3  and  O1_8 
REMARK    2  A    between atoms: C6_6  and  N1_7 
ROOT
HETATM    1  C1  UNL     1      11.122   6.873  -4.371  1.00  0.00     0.026 A 
HETATM    2  C2  UNL     1       9.814   6.709  -4.833  1.00  0.00     0.038 A 
HETATM    3  C3  UNL     1       8.905   5.980  -4.079  1.00  0.00     0.065 A 
HETATM    4  C4  UNL     1       9.280   5.425  -2.860  1.00  0.00     0.038 A 
HETATM    5  C5  UNL     1      10.592   5.593  -2.405  1.00  0.00     0.026 A 
HETATM    6  C6  UNL     1      11.537   6.274  -3.178  1.00  0.00     0.005 A 
ENDROOT
BRANCH   6   7
HETATM    7  N1  UNL     1      12.811   6.539  -2.662  1.00  0.00    -0.303 NA
HETATM    8  H5  UNL     1      13.519   6.681  -3.376  1.00  0.00     0.124 HD
HETATM    9  H6  UNL     1      13.109   5.882  -1.948  1.00  0.00     0.124 HD
ENDBRANCH   6   7
BRANCH   3  10
HETATM   10  O1  UNL     1       7.638   5.844  -4.561  1.00  0.00    -0.361 OA
HETATM   11  H7  UNL     1       7.653   6.004  -5.519  1.00  0.00     0.217 HD
ENDBRANCH   3  10
TORSDOF 2
ENDMDL
MODEL 12
REMARK VINA RESULT:      -4.0      1.688      1.982
REMARK  2 active torsions:
REMARK  status: ('A' for Active; 'I' for Inactive)
REMARK    1  A    between atoms: C3_3  and  O1_8 
REMARK    2  A    between atoms: C6_6  and  N1_7 
ROOT
HETATM    1  C1  UNL     1       7.920   5.685  -1.631  1.00  0.00     0.026 A 
HETATM    2  C2  UNL     1       8.488   4.462  -1.263  1.00  0.00     0.038 A 
HETATM    3  C3  UNL     1       9.585   3.976  -1.960  1.00  0.00     0.065 A 
HETATM    4  C4  UNL     1      10.135   4.703  -3.011  1.00  0.00     0.038 A 
HETATM    5  C5  UNL     1       9.560   5.924  -3.374  1.00  0.00     0.026 A 
HETATM    6  C6  UNL     1       8.419   6.402  -2.722  1.00  0.00     0.005 A 
ENDROOT
BRANCH   6   7
HETATM    7  N1  UNL     1       7.924   7.679  -3.012  1.00  0.00    -0.303 NA
HETATM    8  H5  UNL     1       8.115   7.984  -3.962  1.00  0.00     0.124 HD
HETATM    9  H6  UNL     1       8.172   8.382  -2.324  1.00  0.00     0.124 HD
ENDBRANCH   6   7
BRANCH   3  10
HETATM   10  O1  UNL     1      10.112   2.782  -1.570  1.00  0.00    -0.361 OA
HETATM   11  H7  UNL     1      11.079   2.836  -1.629  1.00  0.00     0.217 HD
ENDBRANCH   3  10
TORSDOF 2
ENDMDL
MODEL 13
REMARK VINA RESULT:      -3.9      1.756      2.022
REMARK  2 active torsions:
REMARK  status: ('A' for Active; 'I' for Inactive)
REMARK    1  A    between atoms: C3_3  and  O1_8 
REMARK    2  A    between atoms: C6_6  and  N1_7 
ROOT
HETATM    1  C1  UNL     1      10.133   6.605  -3.751  1.00  0.00     0.026 A 
HETATM    2  C2  UNL     1       9.523   7.167  -2.628  1.00  0.00     0.038 A 
HETATM    3  C3  UNL     1       9.098   6.347  -1.593  1.00  0.00     0.065 A 
HETATM    4  C4  UNL     1       9.288   4.971  -1.656  1.00  0.00     0.038 A 
HETATM    5  C5  UNL     1       9.898   4.414  -2.785  1.00  0.00     0.026 A 
HETATM    6  C6  UNL     1      10.280   5.219  -3.863  1.00  0.00     0.005 A 
ENDROOT
BRANCH   6   7
HETATM    7  N1  UNL     1      10.995   4.669  -4.933  1.00  0.00    -0.303 NA
HETATM    8  H5  UNL     1      11.672   3.966  -4.653  1.00  0.00     0.124 HD
HETATM    9  H6  UNL     1      11.394   5.361  -5.559  1.00  0.00     0.124 HD
ENDBRANCH   6   7
BRANCH   3  10
HETATM   10  O1  UNL     1       8.510   6.934  -0.513  1.00  0.00    -0.361 OA
HETATM   11  H7  UNL     1       8.602   7.896  -0.595  1.00  0.00     0.217 HD
ENDBRANCH   3  10
TORSDOF 2
ENDMDL
MODEL 14
REMARK VINA RESULT:      -3.5      3.291      3.995
REMARK  2 active torsions:
REMARK  status: ('A' for Active; 'I' for Inactive)
REMARK    1  A    between atoms: C3_3  and  O1_8 
REMARK    2  A    between atoms: C6_6  and  N1_7 
ROOT
HETATM    1  C1  UNL     1      10.365   6.235  -5.037  1.00  0.00     0.026 A 
HETATM    2  C2  UNL     1      11.536   6.982  -4.886  1.00  0.00     0.038 A 
HETATM    3  C3  UNL     1      11.572   8.025  -3.971  1.00  0.00     0.065 A 
HETATM    4  C4  UNL     1      10.460   8.322  -3.192  1.00  0.00     0.038 A 
HETATM    5  C5  UNL     1       9.292   7.571  -3.350  1.00  0.00     0.026 A 
HETATM    6  C6  UNL     1       9.216   6.555  -4.307  1.00  0.00     0.005 A 
ENDROOT
BRANCH   6   7
HETATM    7  N1  UNL     1       8.086   5.732  -4.375  1.00  0.00    -0.303 NA
HETATM    8  H5  UNL     1       7.590   5.648  -3.493  1.00  0.00     0.124 HD
HETATM    9  H6  UNL     1       8.259   4.832  -4.809  1.00  0.00     0.124 HD
ENDBRANCH   6   7
BRANCH   3  10
HETATM   10  O1  UNL     1      12.733   8.728  -3.851  1.00  0.00    -0.361 OA
HETATM   11  H7  UNL     1      13.422   8.279  -4.367  1.00  0.00     0.217 HD
ENDBRANCH   3  10
TORSDOF 2
ENDMDL
MODEL 15
REMARK VINA RESULT:      -3.5      2.446      3.145
REMARK  2 active torsions:
REMARK  status: ('A' for Active; 'I' for Inactive)
REMARK    1  A    between atoms: C3_3  and  O1_8 
REMARK    2  A    between atoms: C6_6  and  N1_7 
ROOT
HETATM    1  C1  UNL     1      11.579   7.168  -3.011  1.00  0.00     0.026 A 
HETATM    2  C2  UNL     1      10.799   6.040  -2.750  1.00  0.00     0.038 A 
HETATM    3  C3  UNL     1      10.467   5.178  -3.786  1.00  0.00     0.065 A 
HETATM    4  C4  UNL     1      10.918   5.419  -5.079  1.00  0.00     0.038 A 
HETATM    5  C5  UNL     1      11.698   6.551  -5.333  1.00  0.00     0.026 A 
HETATM    6  C6  UNL     1      11.993   7.463  -4.313  1.00  0.00     0.005 A 
ENDROOT
BRANCH   6   7
HETATM    7  N1  UNL     1      12.871   8.526  -4.551  1.00  0.00    -0.303 NA
HETATM    8  H5  UNL     1      13.737   8.247  -5.001  1.00  0.00     0.124 HD
HETATM    9  H6  UNL     1      13.028   9.117  -3.742  1.00  0.00     0.124 HD
ENDBRANCH   6   7
BRANCH   3  10
HETATM   10  O1  UNL     1       9.707   4.087  -3.490  1.00  0.00    -0.361 OA
HETATM   11  H7  UNL     1      10.294   3.323  -3.370  1.00  0.00     0.217 HD
ENDBRANCH   3  10
TORSDOF 2
ENDMDL
MODEL 16
REMARK VINA RESULT:      -3.4      4.757      5.666
REMARK  2 active torsions:
REMARK  status: ('A' for Active; 'I' for Inactive)
REMARK    1  A    between atoms: C3_3  and  O1_8 
REMARK    2  A    between atoms: C6_6  and  N1_7 
ROOT
HETATM    1  C1  UNL     1      12.162   6.642  -4.982  1.00  0.00     0.026 A 
HETATM    2  C2  UNL     1      12.877   7.560  -5.754  1.00  0.00     0.038 A 
HETATM    3  C3  UNL     1      13.508   8.632  -5.139  1.00  0.00     0.065 A 
HETATM    4  C4  UNL     1      13.448   8.792  -3.759  1.00  0.00     0.038 A 
HETATM    5  C5  UNL     1      12.729   7.870  -2.993  1.00  0.00     0.026 A 
HETATM    6  C6  UNL     1      12.038   6.817  -3.601  1.00  0.00     0.005 A 
ENDROOT
BRANCH   6   7
HETATM    7  N1  UNL     1      11.422   5.834  -2.818  1.00  0.00    -0.303 NA
HETATM    8  H5  UNL     1      12.001   5.497  -2.055  1.00  0.00     0.124 HD
HETATM    9  H6  UNL     1      11.014   5.076  -3.356  1.00  0.00     0.124 HD
ENDBRANCH   6   7
BRANCH   3  10
HETATM   10  O1  UNL     1      14.198   9.504  -5.927  1.00  0.00    -0.361 OA
HETATM   11  H7  UNL     1      15.141   9.275  -5.891  1.00  0.00     0.217 HD
ENDBRANCH   3  10
TORSDOF 2
ENDMDL
MODEL 17
REMARK VINA RESULT:      -3.3      3.914      4.808
REMARK  2 active torsions:
REMARK  status: ('A' for Active; 'I' for Inactive)
REMARK    1  A    between atoms: C3_3  and  O1_8 
REMARK    2  A    between atoms: C6_6  and  N1_7 
ROOT
HETATM    1  C1  UNL     1      11.518   6.819  -3.532  1.00  0.00     0.026 A 
HETATM    2  C2  UNL     1      12.761   6.888  -2.899  1.00  0.00     0.038 A 
HETATM    3  C3  UNL     1      13.897   7.170  -3.643  1.00  0.00     0.065 A 
HETATM    4  C4  UNL     1      13.808   7.400  -5.011  1.00  0.00     0.038 A 
HETATM    5  C5  UNL     1      12.560   7.328  -5.639  1.00  0.00     0.026 A 
HETATM    6  C6  UNL     1      11.413   6.987  -4.916  1.00  0.00     0.005 A 
ENDROOT
BRANCH   6   7
HETATM    7  N1  UNL     1      10.155   7.035  -5.527  1.00  0.00    -0.303 NA
HETATM    8  H5  UNL     1       9.795   7.976  -5.648  1.00  0.00     0.124 HD
HETATM    9  H6  UNL     1       9.472   6.411  -5.111  1.00  0.00     0.124 HD
ENDBRANCH   6   7
BRANCH   3  10
HETATM   10  O1  UNL     1      15.090   7.231  -2.988  1.00  0.00    -0.361 OA
HETATM   11  H7  UNL     1      15.154   8.090  -2.541  1.00  0.00     0.217 HD
ENDBRANCH   3  10
TORSDOF 2
ENDMDL
MODEL 18
REMARK VINA RESULT:      -1.6      7.960      8.941
REMARK  2 active torsions:
REMARK  status: ('A' for Active; 'I' for Inactive)
REMARK    1  A    between atoms: C3_3  and  O1_8 
REMARK    2  A    between atoms: C6_6  and  N1_7 
ROOT
HETATM    1  C1  UNL     1       1.957   8.397  -1.746  1.00  0.00     0.026 A 
HETATM    2  C2  UNL     1       2.155   7.239  -0.991  1.00  0.00     0.038 A 
HETATM    3  C3  UNL     1       1.063   6.476  -0.604  1.00  0.00     0.065 A 
HETATM    4  C4  UNL     1      -0.226   6.844  -0.975  1.00  0.00     0.038 A 
HETATM    5  C5  UNL     1      -0.416   8.006  -1.729  1.00  0.00     0.026 A 
HETATM    6  C6  UNL     1       0.666   8.819  -2.079  1.00  0.00     0.005 A 
ENDROOT
BRANCH   6   7
HETATM    7  N1  UNL     1       0.480   9.912  -2.933  1.00  0.00    -0.303 NA
HETATM    8  H5  UNL     1       0.162   9.654  -3.862  1.00  0.00     0.124 HD
HETATM    9  H6  UNL     1       1.266  10.552  -2.958  1.00  0.00     0.124 HD
ENDBRANCH   6   7
BRANCH   3  10
HETATM   10  O1  UNL     1       1.297   5.352   0.130  1.00  0.00    -0.361 OA
HETATM   11  H7  UNL     1       0.839   5.436   0.981  1.00  0.00     0.217 HD
ENDBRANCH   3  10
TORSDOF 2
ENDMDL
MODEL 19
REMARK VINA RESULT:      -1.1      2.786      3.406
REMARK  2 active torsions:
REMARK  status: ('A' for Active; 'I' for Inactive)
REMARK    1  A    between atoms: C3_3  and  O1_8 
REMARK    2  A    between atoms: C6_6  and  N1_7 
ROOT
HETATM    1  C1  UNL     1       8.635   3.803  -0.891  1.00  0.00     0.026 A 
HETATM    2  C2  UNL     1       9.517   3.204  -1.792  1.00  0.00     0.038 A 
HETATM    3  C3  UNL     1      10.078   3.960  -2.812  1.00  0.00     0.065 A 
HETATM    4  C4  UNL     1       9.782   5.313  -2.934  1.00  0.00     0.038 A 
HETATM    5  C5  UNL     1       8.897   5.906  -2.029  1.00  0.00     0.026 A 
HETATM    6  C6  UNL     1       8.277   5.147  -1.031  1.00  0.00     0.005 A 
ENDROOT
BRANCH   6   7
HETATM    7  N1  UNL     1       7.487   5.772  -0.059  1.00  0.00    -0.303 NA
HETATM    8  H5  UNL     1       6.710   5.204   0.262  1.00  0.00     0.124 HD
HETATM    9  H6  UNL     1       7.200   6.713  -0.307  1.00  0.00     0.124 HD
ENDBRANCH   6   7
BRANCH   3  10
HETATM   10  O1  UNL     1      10.936   3.339  -3.669  1.00  0.00    -0.361 OA
HETATM   11  H7  UNL     1      10.827   2.379  -3.575  1.00  0.00     0.217 HD
ENDBRANCH   3  10
TORSDOF 2
ENDMDL
