MODEL 1
REMARK VINA RESULT:      -3.8      0.000      0.000
REMARK  2 active torsions:
REMARK  status: ('A' for Active; 'I' for Inactive)
REMARK    1  A    between atoms: C3_3  and  O1_8 
REMARK    2  A    between atoms: C6_6  and  N1_7 
ROOT
HETATM    1  C1  UNL     1       4.335  10.685  -2.707  1.00  0.00     0.026 A 
HETATM    2  C2  UNL     1       5.095  11.115  -3.797  1.00  0.00     0.038 A 
HETATM    3  C3  UNL     1       4.576  12.066  -4.664  1.00  0.00     0.065 A 
HETATM    4  C4  UNL     1       3.314  12.607  -4.448  1.00  0.00     0.038 A 
HETATM    5  C5  UNL     1       2.559  12.171  -3.356  1.00  0.00     0.026 A 
HETATM    6  C6  UNL     1       3.040  11.171  -2.505  1.00  0.00     0.005 A 
ENDROOT
BRANCH   6   7
HETATM    7  N1  UNL     1       2.330  10.826  -1.349  1.00  0.00    -0.303 NA
HETATM    8  H5  UNL     1       2.238   9.825  -1.210  1.00  0.00     0.124 HD
HETATM    9  H6  UNL     1       1.445  11.313  -1.251  1.00  0.00     0.124 HD
ENDBRANCH   6   7
BRANCH   3  10
HETATM   10  O1  UNL     1       5.350  12.462  -5.714  1.00  0.00    -0.361 OA
HETATM   11  H7  UNL     1       5.952  13.160  -5.409  1.00  0.00     0.217 HD
ENDBRANCH   3  10
TORSDOF 2
ENDMDL
MODEL 2
REMARK VINA RESULT:      -3.8      0.078      1.705
REMARK  2 active torsions:
REMARK  status: ('A' for Active; 'I' for Inactive)
REMARK    1  A    between atoms: C3_3  and  O1_8 
REMARK    2  A    between atoms: C6_6  and  N1_7 
ROOT
HETATM    1  C1  UNL     1       2.541  12.155  -3.353  1.00  0.00     0.026 A 
HETATM    2  C2  UNL     1       3.312  12.569  -4.442  1.00  0.00     0.038 A 
HETATM    3  C3  UNL     1       4.575  12.026  -4.635  1.00  0.00     0.065 A 
HETATM    4  C4  UNL     1       5.072  11.062  -3.765  1.00  0.00     0.038 A 
HETATM    5  C5  UNL     1       4.294  10.654  -2.677  1.00  0.00     0.026 A 
HETATM    6  C6  UNL     1       3.045  11.232  -2.432  1.00  0.00     0.005 A 
ENDROOT
BRANCH   6   7
HETATM    7  N1  UNL     1       2.225  10.734  -1.413  1.00  0.00    -0.303 NA
HETATM    8  H5  UNL     1       2.596   9.903  -0.961  1.00  0.00     0.124 HD
HETATM    9  H6  UNL     1       1.254  10.626  -1.683  1.00  0.00     0.124 HD
ENDBRANCH   6   7
BRANCH   3  10
HETATM   10  O1  UNL     1       5.295  12.453  -5.710  1.00  0.00    -0.361 OA
HETATM   11  H7  UNL     1       5.955  11.776  -5.930  1.00  0.00     0.217 HD
ENDBRANCH   3  10
TORSDOF 2
ENDMDL
MODEL 3
REMARK VINA RESULT:      -3.6      2.780      3.683
REMARK  2 active torsions:
REMARK  status: ('A' for Active; 'I' for Inactive)
REMARK    1  A    between atoms: C3_3  and  O1_8 
REMARK    2  A    between atoms: C6_6  and  N1_7 
ROOT
HETATM    1  C1  UNL     1       3.296  12.530  -4.337  1.00  0.00     0.026 A 
HETATM    2  C2  UNL     1       2.509  12.130  -3.255  1.00  0.00     0.038 A 
HETATM    3  C3  UNL     1       2.988  11.171  -2.374  1.00  0.00     0.065 A 
HETATM    4  C4  UNL     1       4.251  10.616  -2.549  1.00  0.00     0.038 A 
HETATM    5  C5  UNL     1       5.033  11.021  -3.636  1.00  0.00     0.026 A 
HETATM    6  C6  UNL     1       4.544  11.942  -4.567  1.00  0.00     0.005 A 
ENDROOT
BRANCH   6   7
HETATM    7  N1  UNL     1       5.377  12.429  -5.581  1.00  0.00    -0.303 NA
HETATM    8  H5  UNL     1       6.347  12.528  -5.299  1.00  0.00     0.124 HD
HETATM    9  H6  UNL     1       5.021  13.261  -6.041  1.00  0.00     0.124 HD
ENDBRANCH   6   7
BRANCH   3  10
HETATM   10  O1  UNL     1       2.192  10.809  -1.329  1.00  0.00    -0.361 OA
HETATM   11  H7  UNL     1       1.298  10.637  -1.666  1.00  0.00     0.217 HD
ENDBRANCH   3  10
TORSDOF 2
ENDMDL
MODEL 4
REMARK VINA RESULT:      -3.0      2.379      2.928
REMARK  2 active torsions:
REMARK  status: ('A' for Active; 'I' for Inactive)
REMARK    1  A    between atoms: C3_3  and  O1_8 
REMARK    2  A    between atoms: C6_6  and  N1_7 
ROOT
HETATM    1  C1  UNL     1       4.256  12.525  -4.961  1.00  0.00     0.026 A 
HETATM    2  C2  UNL     1       4.905  11.590  -4.151  1.00  0.00     0.038 A 
HETATM    3  C3  UNL     1       4.253  11.073  -3.040  1.00  0.00     0.065 A 
HETATM    4  C4  UNL     1       2.954  11.465  -2.735  1.00  0.00     0.038 A 
HETATM    5  C5  UNL     1       2.312  12.402  -3.550  1.00  0.00     0.026 A 
HETATM    6  C6  UNL     1       2.973  12.978  -4.639  1.00  0.00     0.005 A 
ENDROOT
BRANCH   6   7
HETATM    7  N1  UNL     1       2.284  13.823  -5.516  1.00  0.00    -0.303 NA
HETATM    8  H5  UNL     1       2.086  13.401  -6.418  1.00  0.00     0.124 HD
HETATM    9  H6  UNL     1       2.693  14.747  -5.603  1.00  0.00     0.124 HD
ENDBRANCH   6   7
BRANCH   3  10
HETATM   10  O1  UNL     1       4.919  10.161  -2.277  1.00  0.00    -0.361 OA
HETATM   11  H7  UNL     1       4.270   9.561  -1.875  1.00  0.00     0.217 HD
ENDBRANCH   3  10
TORSDOF 2
ENDMDL
MODEL 5
REMARK VINA RESULT:      -3.0      6.063      6.689
REMARK  2 active torsions:
REMARK  status: ('A' for Active; 'I' for Inactive)
REMARK    1  A    between atoms: C3_3  and  O1_8 
REMARK    2  A    between atoms: C6_6  and  N1_7 
ROOT
HETATM    1  C1  UNL     1       8.368  15.662  -3.461  1.00  0.00     0.026 A 
HETATM    2  C2  UNL     1       8.992  16.312  -2.393  1.00  0.00     0.038 A 
HETATM    3  C3  UNL     1       9.255  15.615  -1.222  1.00  0.00     0.065 A 
HETATM    4  C4  UNL     1       8.917  14.271  -1.108  1.00  0.00     0.038 A 
HETATM    5  C5  UNL     1       8.292  13.627  -2.180  1.00  0.00     0.026 A 
HETATM    6  C6  UNL     1       7.966  14.328  -3.346  1.00  0.00     0.005 A 
ENDROOT
BRANCH   6   7
HETATM    7  N1  UNL     1       7.450  13.649  -4.456  1.00  0.00    -0.303 NA
HETATM    8  H5  UNL     1       8.148  13.430  -5.160  1.00  0.00     0.124 HD
HETATM    9  H6  UNL     1       6.622  14.080  -4.852  1.00  0.00     0.124 HD
ENDBRANCH   6   7
BRANCH   3  10
HETATM   10  O1  UNL     1       9.867  16.283  -0.205  1.00  0.00    -0.361 OA
HETATM   11  H7  UNL     1      10.738  16.583  -0.511  1.00  0.00     0.217 HD
ENDBRANCH   3  10
TORSDOF 2
ENDMDL
MODEL 6
REMARK VINA RESULT:      -3.0      2.383      3.122
REMARK  2 active torsions:
REMARK  status: ('A' for Active; 'I' for Inactive)
REMARK    1  A    between atoms: C3_3  and  O1_8 
REMARK    2  A    between atoms: C6_6  and  N1_7 
ROOT
HETATM    1  C1  UNL     1       2.318  12.397  -3.524  1.00  0.00     0.026 A 
HETATM    2  C2  UNL     1       2.973  11.466  -2.717  1.00  0.00     0.038 A 
HETATM    3  C3  UNL     1       4.265  11.070  -3.033  1.00  0.00     0.065 A 
HETATM    4  C4  UNL     1       4.919  11.604  -4.138  1.00  0.00     0.038 A 
HETATM    5  C5  UNL     1       4.256  12.536  -4.942  1.00  0.00     0.026 A 
HETATM    6  C6  UNL     1       2.933  12.903  -4.674  1.00  0.00     0.005 A 
ENDROOT
BRANCH   6   7
HETATM    7  N1  UNL     1       2.321  13.922  -5.412  1.00  0.00    -0.303 NA
HETATM    8  H5  UNL     1       1.921  13.605  -6.290  1.00  0.00     0.124 HD
HETATM    9  H6  UNL     1       2.896  14.749  -5.526  1.00  0.00     0.124 HD
ENDBRANCH   6   7
BRANCH   3  10
HETATM   10  O1  UNL     1       4.872  10.161  -2.219  1.00  0.00    -0.361 OA
HETATM   11  H7  UNL     1       5.443   9.592  -2.761  1.00  0.00     0.217 HD
ENDBRANCH   3  10
TORSDOF 2
ENDMDL
MODEL 7
REMARK VINA RESULT:      -3.0      5.808      6.419
REMARK  2 active torsions:
REMARK  status: ('A' for Active; 'I' for Inactive)
REMARK    1  A    between atoms: C3_3  and  O1_8 
REMARK    2  A    between atoms: C6_6  and  N1_7 
ROOT
HETATM    1  C1  UNL     1       8.762  16.312  -2.455  1.00  0.00     0.026 A 
HETATM    2  C2  UNL     1       8.157  15.638  -3.518  1.00  0.00     0.038 A 
HETATM    3  C3  UNL     1       7.933  14.271  -3.428  1.00  0.00     0.065 A 
HETATM    4  C4  UNL     1       8.292  13.570  -2.282  1.00  0.00     0.038 A 
HETATM    5  C5  UNL     1       8.899  14.251  -1.223  1.00  0.00     0.026 A 
HETATM    6  C6  UNL     1       9.186  15.616  -1.319  1.00  0.00     0.005 A 
ENDROOT
BRANCH   6   7
HETATM    7  N1  UNL     1       9.683  16.311  -0.211  1.00  0.00    -0.303 NA
HETATM    8  H5  UNL     1      10.662  16.569  -0.296  1.00  0.00     0.124 HD
HETATM    9  H6  UNL     1       9.476  15.869   0.678  1.00  0.00     0.124 HD
ENDBRANCH   6   7
BRANCH   3  10
HETATM   10  O1  UNL     1       7.337  13.651  -4.484  1.00  0.00    -0.361 OA
HETATM   11  H7  UNL     1       7.392  14.235  -5.258  1.00  0.00     0.217 HD
ENDBRANCH   3  10
TORSDOF 2
ENDMDL
MODEL 8
REMARK VINA RESULT:      -2.9      1.587      2.328
REMARK  2 active torsions:
REMARK  status: ('A' for Active; 'I' for Inactive)
REMARK    1  A    between atoms: C3_3  and  O1_8 
REMARK    2  A    between atoms: C6_6  and  N1_7 
ROOT
HETATM    1  C1  UNL     1       2.906  11.530  -2.824  1.00  0.00     0.026 A 
HETATM    2  C2  UNL     1       2.306  12.471  -3.664  1.00  0.00     0.038 A 
HETATM    3  C3  UNL     1       3.015  12.979  -4.744  1.00  0.00     0.065 A 
HETATM    4  C4  UNL     1       4.311  12.548  -5.006  1.00  0.00     0.038 A 
HETATM    5  C5  UNL     1       4.905  11.607  -4.159  1.00  0.00     0.026 A 
HETATM    6  C6  UNL     1       4.228  11.128  -3.033  1.00  0.00     0.005 A 
ENDROOT
BRANCH   6   7
HETATM    7  N1  UNL     1       4.784  10.100  -2.262  1.00  0.00    -0.303 NA
HETATM    8  H5  UNL     1       4.669   9.177  -2.669  1.00  0.00     0.124 HD
HETATM    9  H6  UNL     1       4.512  10.128  -1.285  1.00  0.00     0.124 HD
ENDBRANCH   6   7
BRANCH   3  10
HETATM   10  O1  UNL     1       2.394  13.893  -5.542  1.00  0.00    -0.361 OA
HETATM   11  H7  UNL     1       1.654  14.281  -5.049  1.00  0.00     0.217 HD
ENDBRANCH   3  10
TORSDOF 2
ENDMDL
MODEL 9
REMARK VINA RESULT:      -2.7      2.967      3.490
REMARK  2 active torsions:
REMARK  status: ('A' for Active; 'I' for Inactive)
REMARK    1  A    between atoms: C3_3  and  O1_8 
REMARK    2  A    between atoms: C6_6  and  N1_7 
ROOT
HETATM    1  C1  UNL     1       4.559   9.862  -3.191  1.00  0.00     0.026 A 
HETATM    2  C2  UNL     1       3.521   9.274  -2.465  1.00  0.00     0.038 A 
HETATM    3  C3  UNL     1       2.412  10.030  -2.115  1.00  0.00     0.065 A 
HETATM    4  C4  UNL     1       2.316  11.364  -2.494  1.00  0.00     0.038 A 
HETATM    5  C5  UNL     1       3.359  11.947  -3.220  1.00  0.00     0.026 A 
HETATM    6  C6  UNL     1       4.511  11.218  -3.531  1.00  0.00     0.005 A 
ENDROOT
BRANCH   6   7
HETATM    7  N1  UNL     1       5.495  11.773  -4.358  1.00  0.00    -0.303 NA
HETATM    8  H5  UNL     1       5.214  12.644  -4.797  1.00  0.00     0.124 HD
HETATM    9  H6  UNL     1       5.892  11.116  -5.021  1.00  0.00     0.124 HD
ENDBRANCH   6   7
BRANCH   3  10
HETATM   10  O1  UNL     1       1.419   9.419  -1.409  1.00  0.00    -0.361 OA
HETATM   11  H7  UNL     1       1.482   8.461  -1.552  1.00  0.00     0.217 HD
ENDBRANCH   3  10
TORSDOF 2
ENDMDL
MODEL 10
REMARK VINA RESULT:      -2.6      6.177      6.765
REMARK  2 active torsions:
REMARK  status: ('A' for Active; 'I' for Inactive)
REMARK    1  A    between atoms: C3_3  and  O1_8 
REMARK    2  A    between atoms: C6_6  and  N1_7 
ROOT
HETATM    1  C1  UNL     1       7.845  14.331  -3.268  1.00  0.00     0.026 A 
HETATM    2  C2  UNL     1       8.176  13.690  -2.072  1.00  0.00     0.038 A 
HETATM    3  C3  UNL     1       8.918  14.363  -1.113  1.00  0.00     0.065 A 
HETATM    4  C4  UNL     1       9.323  15.677  -1.324  1.00  0.00     0.038 A 
HETATM    5  C5  UNL     1       8.989  16.312  -2.524  1.00  0.00     0.026 A 
HETATM    6  C6  UNL     1       8.292  15.631  -3.527  1.00  0.00     0.005 A 
ENDROOT
BRANCH   6   7
HETATM    7  N1  UNL     1       7.860  16.310  -4.672  1.00  0.00    -0.303 NA
HETATM    8  H5  UNL     1       7.263  15.754  -5.275  1.00  0.00     0.124 HD
HETATM    9  H6  UNL     1       8.607  16.768  -5.183  1.00  0.00     0.124 HD
ENDBRANCH   6   7
BRANCH   3  10
HETATM   10  O1  UNL     1       9.218  13.704   0.041  1.00  0.00    -0.361 OA
HETATM   11  H7  UNL     1       9.307  12.758  -0.156  1.00  0.00     0.217 HD
ENDBRANCH   3  10
TORSDOF 2
ENDMDL
MODEL 11
REMARK VINA RESULT:      -2.1      5.453      5.977
REMARK  2 active torsions:
REMARK  status: ('A' for Active; 'I' for Inactive)
REMARK    1  A    between atoms: C3_3  and  O1_8 
REMARK    2  A    between atoms: C6_6  and  N1_7 
ROOT
HETATM    1  C1  UNL     1       8.591  14.296  -2.158  1.00  0.00     0.026 A 
HETATM    2  C2  UNL     1       7.928  13.621  -3.185  1.00  0.00     0.038 A 
HETATM    3  C3  UNL     1       7.587  14.300  -4.346  1.00  0.00     0.065 A 
HETATM    4  C4  UNL     1       7.914  15.643  -4.503  1.00  0.00     0.038 A 
HETATM    5  C5  UNL     1       8.576  16.312  -3.470  1.00  0.00     0.026 A 
HETATM    6  C6  UNL     1       8.876  15.660  -2.269  1.00  0.00     0.005 A 
ENDROOT
BRANCH   6   7
HETATM    7  N1  UNL     1       9.643  16.303  -1.291  1.00  0.00    -0.303 NA
HETATM    8  H5  UNL     1       9.501  15.936  -0.355  1.00  0.00     0.124 HD
HETATM    9  H6  UNL     1       9.584  17.315  -1.322  1.00  0.00     0.124 HD
ENDBRANCH   6   7
BRANCH   3  10
HETATM   10  O1  UNL     1       6.943  13.606  -5.326  1.00  0.00    -0.361 OA
HETATM   11  H7  UNL     1       6.374  12.938  -4.911  1.00  0.00     0.217 HD
ENDBRANCH   3  10
TORSDOF 2
ENDMDL
MODEL 12
REMARK VINA RESULT:      -2.0      5.804      6.489
REMARK  2 active torsions:
REMARK  status: ('A' for Active; 'I' for Inactive)
REMARK    1  A    between atoms: C3_3  and  O1_8 
REMARK    2  A    between atoms: C6_6  and  N1_7 
ROOT
HETATM    1  C1  UNL     1       8.595  16.307  -3.305  1.00  0.00     0.026 A 
HETATM    2  C2  UNL     1       8.876  15.622  -2.121  1.00  0.00     0.038 A 
HETATM    3  C3  UNL     1       8.591  14.267  -2.026  1.00  0.00     0.065 A 
HETATM    4  C4  UNL     1       8.044  13.581  -3.105  1.00  0.00     0.038 A 
HETATM    5  C5  UNL     1       7.764  14.274  -4.287  1.00  0.00     0.026 A 
HETATM    6  C6  UNL     1       7.989  15.651  -4.381  1.00  0.00     0.005 A 
ENDROOT
BRANCH   6   7
HETATM    7  N1  UNL     1       7.819  16.311  -5.604  1.00  0.00    -0.303 NA
HETATM    8  H5  UNL     1       7.036  15.962  -6.149  1.00  0.00     0.124 HD
HETATM    9  H6  UNL     1       8.669  16.386  -6.152  1.00  0.00     0.124 HD
ENDBRANCH   6   7
BRANCH   3  10
HETATM   10  O1  UNL     1       8.883  13.634  -0.855  1.00  0.00    -0.361 OA
HETATM   11  H7  UNL     1       9.453  14.212  -0.324  1.00  0.00     0.217 HD
ENDBRANCH   3  10
TORSDOF 2
ENDMDL
MODEL 13
REMARK VINA RESULT:      -1.1      3.224      4.154
REMARK  2 active torsions:
REMARK  status: ('A' for Active; 'I' for Inactive)
REMARK    1  A    between atoms: C3_3  and  O1_8 
REMARK    2  A    between atoms: C6_6  and  N1_7 
ROOT
HETATM    1  C1  UNL     1       2.826  11.314  -2.040  1.00  0.00     0.026 A 
HETATM    2  C2  UNL     1       2.014  10.340  -1.454  1.00  0.00     0.038 A 
HETATM    3  C3  UNL     1       2.230   9.000  -1.742  1.00  0.00     0.065 A 
HETATM    4  C4  UNL     1       3.258   8.617  -2.596  1.00  0.00     0.038 A 
HETATM    5  C5  UNL     1       4.066   9.597  -3.180  1.00  0.00     0.026 A 
HETATM    6  C6  UNL     1       3.827  10.955  -2.948  1.00  0.00     0.005 A 
ENDROOT
BRANCH   6   7
HETATM    7  N1  UNL     1       4.712  11.921  -3.440  1.00  0.00    -0.303 NA
HETATM    8  H5  UNL     1       5.688  11.716  -3.247  1.00  0.00     0.124 HD
HETATM    9  H6  UNL     1       4.461  12.872  -3.193  1.00  0.00     0.124 HD
ENDBRANCH   6   7
BRANCH   3  10
HETATM   10  O1  UNL     1       1.418   8.081  -1.148  1.00  0.00    -0.361 OA
HETATM   11  H7  UNL     1       1.881   7.228  -1.125  1.00  0.00     0.217 HD
ENDBRANCH   3  10
TORSDOF 2
ENDMDL
MODEL 14
REMARK VINA RESULT:       0.2      7.311      7.796
REMARK  2 active torsions:
REMARK  status: ('A' for Active; 'I' for Inactive)
REMARK    1  A    between atoms: C3_3  and  O1_8 
REMARK    2  A    between atoms: C6_6  and  N1_7 
ROOT
HETATM    1  C1  UNL     1       7.930  16.230  -1.363  1.00  0.00     0.026 A 
HETATM    2  C2  UNL     1       9.019  16.249  -0.489  1.00  0.00     0.038 A 
HETATM    3  C3  UNL     1      10.310  16.269  -0.998  1.00  0.00     0.065 A 
HETATM    4  C4  UNL     1      10.529  16.285  -2.371  1.00  0.00     0.038 A 
HETATM    5  C5  UNL     1       9.434  16.264  -3.240  1.00  0.00     0.026 A 
HETATM    6  C6  UNL     1       8.128  16.185  -2.746  1.00  0.00     0.005 A 
ENDROOT
BRANCH   6   7
HETATM    7  N1  UNL     1       7.038  16.284  -3.619  1.00  0.00    -0.303 NA
HETATM    8  H5  UNL     1       7.160  15.768  -4.484  1.00  0.00     0.124 HD
HETATM    9  H6  UNL     1       6.725  17.236  -3.778  1.00  0.00     0.124 HD
ENDBRANCH   6   7
BRANCH   3  10
HETATM   10  O1  UNL     1      11.345  16.290  -0.112  1.00  0.00    -0.361 OA
HETATM   11  H7  UNL     1      12.173  16.161  -0.601  1.00  0.00     0.217 HD
ENDBRANCH   3  10
TORSDOF 2
ENDMDL
MODEL 15
REMARK VINA RESULT:       0.2      2.603      3.238
REMARK  2 active torsions:
REMARK  status: ('A' for Active; 'I' for Inactive)
REMARK    1  A    between atoms: C3_3  and  O1_8 
REMARK    2  A    between atoms: C6_6  and  N1_7 
ROOT
HETATM    1  C1  UNL     1       3.735  10.492  -3.211  1.00  0.00     0.026 A 
HETATM    2  C2  UNL     1       4.910  10.801  -2.522  1.00  0.00     0.038 A 
HETATM    3  C3  UNL     1       4.929  10.748  -1.135  1.00  0.00     0.065 A 
HETATM    4  C4  UNL     1       3.793  10.375  -0.426  1.00  0.00     0.038 A 
HETATM    5  C5  UNL     1       2.620  10.069  -1.122  1.00  0.00     0.026 A 
HETATM    6  C6  UNL     1       2.565  10.173  -2.516  1.00  0.00     0.005 A 
ENDROOT
BRANCH   6   7
HETATM    7  N1  UNL     1       1.425   9.751  -3.210  1.00  0.00    -0.303 NA
HETATM    8  H5  UNL     1       0.781   9.207  -2.644  1.00  0.00     0.124 HD
HETATM    9  H6  UNL     1       1.627   9.306  -4.099  1.00  0.00     0.124 HD
ENDBRANCH   6   7
BRANCH   3  10
HETATM   10  O1  UNL     1       6.095  11.054  -0.500  1.00  0.00    -0.361 OA
HETATM   11  H7  UNL     1       6.253  12.008  -0.584  1.00  0.00     0.217 HD
ENDBRANCH   3  10
TORSDOF 2
ENDMDL
MODEL 16
REMARK VINA RESULT:       1.1      3.080      3.888
REMARK  2 active torsions:
REMARK  status: ('A' for Active; 'I' for Inactive)
REMARK    1  A    between atoms: C3_3  and  O1_8 
REMARK    2  A    between atoms: C6_6  and  N1_7 
ROOT
HETATM    1  C1  UNL     1       2.632  12.797  -4.799  1.00  0.00     0.026 A 
HETATM    2  C2  UNL     1       1.773  13.897  -4.746  1.00  0.00     0.038 A 
HETATM    3  C3  UNL     1       2.287  15.157  -4.474  1.00  0.00     0.065 A 
HETATM    4  C4  UNL     1       3.650  15.338  -4.270  1.00  0.00     0.038 A 
HETATM    5  C5  UNL     1       4.503  14.231  -4.324  1.00  0.00     0.026 A 
HETATM    6  C6  UNL     1       3.998  12.945  -4.538  1.00  0.00     0.005 A 
ENDROOT
BRANCH   6   7
HETATM    7  N1  UNL     1       4.870  11.864  -4.709  1.00  0.00    -0.303 NA
HETATM    8  H5  UNL     1       5.005  11.313  -3.867  1.00  0.00     0.124 HD
HETATM    9  H6  UNL     1       5.748  12.111  -5.154  1.00  0.00     0.124 HD
ENDBRANCH   6   7
BRANCH   3  10
HETATM   10  O1  UNL     1       1.417  16.206  -4.433  1.00  0.00    -0.361 OA
HETATM   11  H7  UNL     1       1.577  16.709  -3.619  1.00  0.00     0.217 HD
ENDBRANCH   3  10
TORSDOF 2
ENDMDL
MODEL 17
REMARK VINA RESULT:       1.4      5.535      5.991
REMARK  2 active torsions:
REMARK  status: ('A' for Active; 'I' for Inactive)
REMARK    1  A    between atoms: C3_3  and  O1_8 
REMARK    2  A    between atoms: C6_6  and  N1_7 
ROOT
HETATM    1  C1  UNL     1       8.363  13.372  -0.626  1.00  0.00     0.026 A 
HETATM    2  C2  UNL     1       9.200  14.487  -0.541  1.00  0.00     0.038 A 
HETATM    3  C3  UNL     1       9.475  15.230  -1.680  1.00  0.00     0.065 A 
HETATM    4  C4  UNL     1       8.910  14.885  -2.904  1.00  0.00     0.038 A 
HETATM    5  C5  UNL     1       8.074  13.767  -2.982  1.00  0.00     0.026 A 
HETATM    6  C6  UNL     1       7.833  12.972  -1.857  1.00  0.00     0.005 A 
ENDROOT
BRANCH   6   7
HETATM    7  N1  UNL     1       6.903  11.928  -1.918  1.00  0.00    -0.303 NA
HETATM    8  H5  UNL     1       7.140  11.135  -1.330  1.00  0.00     0.124 HD
HETATM    9  H6  UNL     1       6.660  11.649  -2.863  1.00  0.00     0.124 HD
ENDBRANCH   6   7
BRANCH   3  10
HETATM   10  O1  UNL     1      10.294  16.312  -1.555  1.00  0.00    -0.361 OA
HETATM   11  H7  UNL     1      10.766  16.247  -0.710  1.00  0.00     0.217 HD
ENDBRANCH   3  10
TORSDOF 2
ENDMDL
