MODEL 1
REMARK VINA RESULT:      -7.2      0.000      0.000
REMARK  27 active torsions:
REMARK  status: ('A' for Active; 'I' for Inactive)
REMARK    1  A    between atoms: C2_2  and  S1_4 
REMARK    2  A    between atoms: S1_4  and  C3_5 
REMARK    3  A    between atoms: C3_5  and  C4_6 
REMARK    4  A    between atoms: C4_6  and  N1_7 
REMARK       I    between atoms: N1_7  and  C5_8 
REMARK    5  A    between atoms: C5_8  and  C6_10 
REMARK    6  A    between atoms: C6_10  and  C7_11 
REMARK    7  A    between atoms: C7_11  and  N2_12 
REMARK       I    between atoms: N2_12  and  C8_13 
REMARK    8  A    between atoms: C8_13  and  C9_15 
REMARK    9  A    between atoms: C9_15  and  C10_16 
REMARK   10  A    between atoms: C9_15  and  O17_54 
REMARK   11  A    between atoms: C10_16  and  C13_19 
REMARK   12  A    between atoms: C13_19  and  O4_20 
REMARK   13  A    between atoms: O4_20  and  P1_21 
REMARK   14  A    between atoms: P1_21  and  O6_23 
REMARK   15  A    between atoms: P1_21  and  O7_24 
REMARK   16  A    between atoms: O7_24  and  P2_25 
REMARK   17  A    between atoms: P2_25  and  O9_27 
REMARK   18  A    between atoms: P2_25  and  O10_28 
REMARK   19  A    between atoms: O10_28  and  C14_29 
REMARK   20  A    between atoms: C14_29  and  C15_30 
REMARK   21  A    between atoms: C16_31  and  O13_49 
REMARK   22  A    between atoms: C17_32  and  O12_48 
REMARK   23  A    between atoms: C18_33  and  N3_35 
REMARK   24  A    between atoms: C21_40  and  N7_47 
REMARK   25  A    between atoms: O13_49  and  P3_50 
REMARK   26  A    between atoms: P3_50  and  O15_52 
REMARK   27  A    between atoms: P3_50  and  O16_53 
ROOT
HETATM    1  C1  UNL     1       7.968   9.854  -2.335  1.00  0.00     0.104 C 
HETATM    2  C2  UNL     1       8.917   8.812  -2.842  1.00  0.00     0.182 C 
HETATM    3  O1  UNL     1       9.605   8.960  -3.849  1.00  0.00    -0.286 OA
ENDROOT
BRANCH   2   4
HETATM    4  S1  UNL     1       8.942   7.331  -1.895  1.00  0.00    -0.091 SA
BRANCH   4   5
HETATM    5  C3  UNL     1       7.499   6.471  -2.602  1.00  0.00     0.102 C 
BRANCH   5   6
HETATM    6  C4  UNL     1       7.915   5.379  -3.590  1.00  0.00     0.133 C 
BRANCH   6   7
HETATM    7  N1  UNL     1       9.037   5.771  -4.418  1.00  0.00    -0.360 N 
HETATM    8  C5  UNL     1      10.262   5.154  -4.316  1.00  0.00     0.219 C 
HETATM    9  O2  UNL     1      10.502   4.298  -3.472  1.00  0.00    -0.274 OA
HETATM   10  H8  UNL     1       8.908   6.514  -5.091  1.00  0.00     0.162 HD
BRANCH   8  11
HETATM   11  C6  UNL     1      11.279   5.675  -5.308  1.00  0.00     0.122 C 
BRANCH  11  12
HETATM   12  C7  UNL     1      12.018   6.902  -4.777  1.00  0.00     0.132 C 
BRANCH  12  13
HETATM   13  N2  UNL     1      13.335   6.593  -4.261  1.00  0.00    -0.358 N 
HETATM   14  C8  UNL     1      14.463   7.091  -4.887  1.00  0.00     0.247 C 
HETATM   15  O3  UNL     1      14.405   7.701  -5.947  1.00  0.00    -0.271 OA
HETATM   16  H13 UNL     1      13.388   6.444  -3.256  1.00  0.00     0.162 HD
BRANCH  14  17
HETATM   17  C9  UNL     1      15.781   6.837  -4.139  1.00  0.00     0.219 C 
BRANCH  17  18
HETATM   18  C10 UNL     1      16.114   7.888  -3.048  1.00  0.00     0.009 C 
HETATM   19  C11 UNL     1      15.425   7.573  -1.712  1.00  0.00     0.020 C 
HETATM   20  C12 UNL     1      17.632   7.973  -2.791  1.00  0.00     0.020 C 
BRANCH  18  21
HETATM   21  C13 UNL     1      15.597   9.249  -3.595  1.00  0.00     0.192 C 
BRANCH  21  22
HETATM   22  O4  UNL     1      15.049  10.064  -2.579  1.00  0.00    -0.296 OA
BRANCH  22  23
HETATM   23  P1  UNL     1      13.667  10.860  -2.751  1.00  0.00     0.401 P 
HETATM   24  O5  UNL     1      12.505   9.994  -3.124  1.00  0.00    -0.631 OA
BRANCH  23  25
HETATM   25  O6  UNL     1      13.946  12.056  -3.791  1.00  0.00    -0.307 OA
HETATM   26  H23 UNL     1      14.728  11.890  -4.333  1.00  0.00     0.222 HD
ENDBRANCH  23  25
BRANCH  23  27
HETATM   27  O7  UNL     1      13.486  11.668  -1.393  1.00  0.00    -0.195 OA
BRANCH  27  28
HETATM   28  P2  UNL     1      12.282  12.703  -1.267  1.00  0.00     0.401 P 
HETATM   29  O8  UNL     1      12.370  13.947  -2.091  1.00  0.00    -0.631 OA
BRANCH  28  30
HETATM   30  O9  UNL     1      10.995  11.809  -1.575  1.00  0.00    -0.307 OA
HETATM   31  H24 UNL     1      10.313  12.261  -2.128  1.00  0.00     0.222 HD
ENDBRANCH  28  30
BRANCH  28  32
HETATM   32  O10 UNL     1      12.120  12.919   0.307  1.00  0.00    -0.294 OA
BRANCH  32  33
HETATM   33  C14 UNL     1      12.421  14.164   0.879  1.00  0.00     0.215 C 
BRANCH  33  34
HETATM   34  C15 UNL     1      13.083  13.867   2.224  1.00  0.00     0.180 C 
HETATM   35  C16 UNL     1      14.157  12.803   2.046  1.00  0.00     0.197 C 
HETATM   36  C17 UNL     1      13.689  11.637   2.897  1.00  0.00     0.199 C 
HETATM   37  C18 UNL     1      12.812  12.332   3.941  1.00  0.00     0.262 C 
HETATM   38  O11 UNL     1      12.158  13.392   3.209  1.00  0.00    -0.353 OA
BRANCH  35  39
HETATM   39  O13 UNL     1      15.392  13.341   2.506  1.00  0.00    -0.286 OA
BRANCH  39  40
HETATM   40  P3  UNL     1      16.602  13.281   1.462  1.00  0.00     0.391 P 
HETATM   41  O14 UNL     1      17.452  14.510   1.453  1.00  0.00    -0.632 OA
BRANCH  40  42
HETATM   42  O15 UNL     1      15.818  12.912   0.117  1.00  0.00    -0.307 OA
HETATM   43  H36 UNL     1      15.147  13.603  -0.096  1.00  0.00     0.222 HD
ENDBRANCH  40  42
BRANCH  40  44
HETATM   44  O16 UNL     1      17.296  11.908   1.864  1.00  0.00    -0.307 OA
HETATM   45  H37 UNL     1      17.381  11.795   2.824  1.00  0.00     0.222 HD
ENDBRANCH  40  44
ENDBRANCH  39  40
ENDBRANCH  35  39
BRANCH  36  46
HETATM   46  O12 UNL     1      14.810  10.889   3.374  1.00  0.00    -0.388 OA
HETATM   47  H35 UNL     1      15.593  11.485   3.300  1.00  0.00     0.210 HD
ENDBRANCH  36  46
BRANCH  37  48
HETATM   48  N3  UNL     1      11.800  11.453   4.492  1.00  0.00    -0.297 N 
HETATM   49  C19 UNL     1      11.841  10.080   4.562  1.00  0.00     0.188 A 
HETATM   50  N4  UNL     1      10.824   9.585   5.234  1.00  0.00    -0.346 N 
HETATM   51  C20 UNL     1      10.091  10.692   5.624  1.00  0.00     0.116 A 
HETATM   52  H4  UNL     1      10.622   8.604   5.426  1.00  0.00     0.167 HD
HETATM   53  C21 UNL     1       8.926  10.839   6.396  1.00  0.00     0.109 A 
HETATM   54  C23 UNL     1      10.663  11.853   5.137  1.00  0.00     0.142 A 
HETATM   55  N5  UNL     1       8.434  12.086   6.597  1.00  0.00    -0.341 N 
HETATM   56  C22 UNL     1       9.086  13.126   6.041  1.00  0.00     0.183 A 
HETATM   57  H5  UNL     1       7.593  12.233   7.156  1.00  0.00     0.167 HD
HETATM   58  N6  UNL     1      10.208  13.109   5.293  1.00  0.00    -0.336 N 
HETATM   59  H6  UNL     1      10.654  13.938   4.899  1.00  0.00     0.168 HD
BRANCH  53  60
HETATM   60  N7  UNL     1       8.244   9.772   6.959  1.00  0.00    -0.287 NA
HETATM   61  H33 UNL     1       7.938   9.070   6.288  1.00  0.00     0.125 HD
HETATM   62  H34 UNL     1       7.572  10.057   7.658  1.00  0.00     0.125 HD
ENDBRANCH  53  60
ENDBRANCH  37  48
ENDBRANCH  33  34
ENDBRANCH  32  33
ENDBRANCH  28  32
ENDBRANCH  27  28
ENDBRANCH  23  27
ENDBRANCH  22  23
ENDBRANCH  21  22
ENDBRANCH  18  21
ENDBRANCH  17  18
BRANCH  17  63
HETATM   63  O17 UNL     1      15.759   5.541  -3.530  1.00  0.00    -0.385 OA
HETATM   64  H38 UNL     1      16.678   5.270  -3.364  1.00  0.00     0.210 HD
ENDBRANCH  17  63
ENDBRANCH  14  17
ENDBRANCH  12  13
ENDBRANCH  11  12
ENDBRANCH   8  11
ENDBRANCH   6   7
ENDBRANCH   5   6
ENDBRANCH   4   5
ENDBRANCH   2   4
TORSDOF 27
ENDMDL
MODEL 2
REMARK VINA RESULT:      -7.1      3.835     10.407
REMARK  27 active torsions:
REMARK  status: ('A' for Active; 'I' for Inactive)
REMARK    1  A    between atoms: C2_2  and  S1_4 
REMARK    2  A    between atoms: S1_4  and  C3_5 
REMARK    3  A    between atoms: C3_5  and  C4_6 
REMARK    4  A    between atoms: C4_6  and  N1_7 
REMARK       I    between atoms: N1_7  and  C5_8 
REMARK    5  A    between atoms: C5_8  and  C6_10 
REMARK    6  A    between atoms: C6_10  and  C7_11 
REMARK    7  A    between atoms: C7_11  and  N2_12 
REMARK       I    between atoms: N2_12  and  C8_13 
REMARK    8  A    between atoms: C8_13  and  C9_15 
REMARK    9  A    between atoms: C9_15  and  C10_16 
REMARK   10  A    between atoms: C9_15  and  O17_54 
REMARK   11  A    between atoms: C10_16  and  C13_19 
REMARK   12  A    between atoms: C13_19  and  O4_20 
REMARK   13  A    between atoms: O4_20  and  P1_21 
REMARK   14  A    between atoms: P1_21  and  O6_23 
REMARK   15  A    between atoms: P1_21  and  O7_24 
REMARK   16  A    between atoms: O7_24  and  P2_25 
REMARK   17  A    between atoms: P2_25  and  O9_27 
REMARK   18  A    between atoms: P2_25  and  O10_28 
REMARK   19  A    between atoms: O10_28  and  C14_29 
REMARK   20  A    between atoms: C14_29  and  C15_30 
REMARK   21  A    between atoms: C16_31  and  O13_49 
REMARK   22  A    between atoms: C17_32  and  O12_48 
REMARK   23  A    between atoms: C18_33  and  N3_35 
REMARK   24  A    between atoms: C21_40  and  N7_47 
REMARK   25  A    between atoms: O13_49  and  P3_50 
REMARK   26  A    between atoms: P3_50  and  O15_52 
REMARK   27  A    between atoms: P3_50  and  O16_53 
ROOT
HETATM    1  C1  UNL     1      13.490  11.790   6.670  1.00  0.00     0.104 C 
HETATM    2  C2  UNL     1      12.129  12.199   6.193  1.00  0.00     0.182 C 
HETATM    3  O1  UNL     1      11.224  12.540   6.951  1.00  0.00    -0.286 OA
ENDROOT
BRANCH   2   4
HETATM    4  S1  UNL     1      11.915  12.113   4.450  1.00  0.00    -0.091 SA
BRANCH   4   5
HETATM    5  C3  UNL     1      12.725  13.667   3.948  1.00  0.00     0.102 C 
BRANCH   5   6
HETATM    6  C4  UNL     1      14.172  13.439   3.507  1.00  0.00     0.133 C 
BRANCH   6   7
HETATM    7  N1  UNL     1      14.387  12.116   2.957  1.00  0.00    -0.360 N 
HETATM    8  C5  UNL     1      15.358  11.276   3.451  1.00  0.00     0.219 C 
HETATM    9  O2  UNL     1      16.146  11.620   4.324  1.00  0.00    -0.274 OA
HETATM   10  H8  UNL     1      13.800  11.805   2.194  1.00  0.00     0.162 HD
BRANCH   8  11
HETATM   11  C6  UNL     1      15.379   9.922   2.775  1.00  0.00     0.122 C 
BRANCH  11  12
HETATM   12  C7  UNL     1      14.697   9.956   1.408  1.00  0.00     0.132 C 
BRANCH  12  13
HETATM   13  N2  UNL     1      15.634   9.969   0.305  1.00  0.00    -0.358 N 
HETATM   14  C8  UNL     1      16.054  11.169  -0.239  1.00  0.00     0.247 C 
HETATM   15  O3  UNL     1      15.572  12.242   0.100  1.00  0.00    -0.271 OA
HETATM   16  H13 UNL     1      16.290   9.191   0.279  1.00  0.00     0.162 HD
BRANCH  14  17
HETATM   17  C9  UNL     1      17.179  11.047  -1.278  1.00  0.00     0.219 C 
BRANCH  17  18
HETATM   18  C10 UNL     1      18.584  10.780  -0.677  1.00  0.00     0.009 C 
HETATM   19  C11 UNL     1      19.659  11.684  -1.297  1.00  0.00     0.020 C 
HETATM   20  C12 UNL     1      18.597  11.003   0.849  1.00  0.00     0.020 C 
BRANCH  18  21
HETATM   21  C13 UNL     1      18.907   9.291  -0.992  1.00  0.00     0.192 C 
BRANCH  21  22
HETATM   22  O4  UNL     1      18.488   8.419   0.038  1.00  0.00    -0.296 OA
BRANCH  22  23
HETATM   23  P1  UNL     1      17.734   7.033  -0.247  1.00  0.00     0.401 P 
HETATM   24  O5  UNL     1      17.419   6.243   0.984  1.00  0.00    -0.631 OA
BRANCH  23  25
HETATM   25  O6  UNL     1      18.624   6.232  -1.323  1.00  0.00    -0.307 OA
HETATM   26  H23 UNL     1      18.298   5.334  -1.466  1.00  0.00     0.222 HD
ENDBRANCH  23  25
BRANCH  23  27
HETATM   27  O7  UNL     1      16.468   7.428  -1.126  1.00  0.00    -0.195 OA
BRANCH  27  28
HETATM   28  P2  UNL     1      15.788   6.314  -2.040  1.00  0.00     0.401 P 
HETATM   29  O8  UNL     1      16.482   5.972  -3.319  1.00  0.00    -0.631 OA
BRANCH  28  30
HETATM   30  O9  UNL     1      15.613   5.079  -1.044  1.00  0.00    -0.307 OA
HETATM   31  H24 UNL     1      15.138   4.307  -1.439  1.00  0.00     0.222 HD
ENDBRANCH  28  30
BRANCH  28  32
HETATM   32  O10 UNL     1      14.273   6.799  -2.177  1.00  0.00    -0.294 OA
BRANCH  32  33
HETATM   33  C14 UNL     1      13.932   8.129  -1.884  1.00  0.00     0.215 C 
BRANCH  33  34
HETATM   34  C15 UNL     1      13.539   8.771  -3.214  1.00  0.00     0.180 C 
HETATM   35  C16 UNL     1      12.705   7.794  -4.032  1.00  0.00     0.197 C 
HETATM   36  C17 UNL     1      13.525   7.544  -5.284  1.00  0.00     0.199 C 
HETATM   37  C18 UNL     1      14.365   8.819  -5.380  1.00  0.00     0.262 C 
HETATM   38  O11 UNL     1      14.670   9.150  -4.007  1.00  0.00    -0.353 OA
BRANCH  35  39
HETATM   39  O13 UNL     1      11.457   8.415  -4.323  1.00  0.00    -0.286 OA
BRANCH  39  40
HETATM   40  P3  UNL     1      10.159   7.591  -3.885  1.00  0.00     0.391 P 
HETATM   41  O14 UNL     1      10.415   6.594  -2.801  1.00  0.00    -0.632 OA
BRANCH  40  42
HETATM   42  O15 UNL     1       9.666   7.035  -5.301  1.00  0.00    -0.307 OA
HETATM   43  H36 UNL     1      10.357   6.464  -5.712  1.00  0.00     0.222 HD
ENDBRANCH  40  42
BRANCH  40  44
HETATM   44  O16 UNL     1       9.130   8.764  -3.578  1.00  0.00    -0.307 OA
HETATM   45  H37 UNL     1       9.179   9.486  -4.225  1.00  0.00     0.222 HD
ENDBRANCH  40  44
ENDBRANCH  39  40
ENDBRANCH  35  39
BRANCH  36  46
HETATM   46  O12 UNL     1      12.666   7.238  -6.386  1.00  0.00    -0.388 OA
HETATM   47  H35 UNL     1      12.497   8.092  -6.851  1.00  0.00     0.210 HD
ENDBRANCH  36  46
BRANCH  37  48
HETATM   48  N3  UNL     1      15.608   8.614  -6.097  1.00  0.00    -0.297 N 
HETATM   49  C19 UNL     1      16.869   8.507  -5.560  1.00  0.00     0.188 A 
HETATM   50  N4  UNL     1      17.772   8.197  -6.464  1.00  0.00    -0.346 N 
HETATM   51  C20 UNL     1      17.060   8.093  -7.646  1.00  0.00     0.116 A 
HETATM   52  H4  UNL     1      18.773   8.063  -6.326  1.00  0.00     0.167 HD
HETATM   53  C21 UNL     1      17.434   7.750  -8.957  1.00  0.00     0.109 A 
HETATM   54  C23 UNL     1      15.724   8.388  -7.440  1.00  0.00     0.142 A 
HETATM   55  N5  UNL     1      16.483   7.747  -9.923  1.00  0.00    -0.341 N 
HETATM   56  C22 UNL     1      15.223   8.079  -9.580  1.00  0.00     0.183 A 
HETATM   57  H5  UNL     1      16.716   7.500 -10.885  1.00  0.00     0.167 HD
HETATM   58  N6  UNL     1      14.747   8.415  -8.363  1.00  0.00    -0.336 N 
HETATM   59  H6  UNL     1      13.775   8.658  -8.169  1.00  0.00     0.168 HD
BRANCH  53  60
HETATM   60  N7  UNL     1      18.731   7.422  -9.318  1.00  0.00    -0.287 NA
HETATM   61  H33 UNL     1      19.081   6.566  -8.892  1.00  0.00     0.125 HD
HETATM   62  H34 UNL     1      19.354   8.218  -9.319  1.00  0.00     0.125 HD
ENDBRANCH  53  60
ENDBRANCH  37  48
ENDBRANCH  33  34
ENDBRANCH  32  33
ENDBRANCH  28  32
ENDBRANCH  27  28
ENDBRANCH  23  27
ENDBRANCH  22  23
ENDBRANCH  21  22
ENDBRANCH  18  21
ENDBRANCH  17  18
BRANCH  17  63
HETATM   63  O17 UNL     1      16.877  10.002  -2.210  1.00  0.00    -0.385 OA
HETATM   64  H38 UNL     1      17.533   9.295  -2.093  1.00  0.00     0.210 HD
ENDBRANCH  17  63
ENDBRANCH  14  17
ENDBRANCH  12  13
ENDBRANCH  11  12
ENDBRANCH   8  11
ENDBRANCH   6   7
ENDBRANCH   5   6
ENDBRANCH   4   5
ENDBRANCH   2   4
TORSDOF 27
ENDMDL
MODEL 3
REMARK VINA RESULT:      -7.0      3.539      6.122
REMARK  27 active torsions:
REMARK  status: ('A' for Active; 'I' for Inactive)
REMARK    1  A    between atoms: C2_2  and  S1_4 
REMARK    2  A    between atoms: S1_4  and  C3_5 
REMARK    3  A    between atoms: C3_5  and  C4_6 
REMARK    4  A    between atoms: C4_6  and  N1_7 
REMARK       I    between atoms: N1_7  and  C5_8 
REMARK    5  A    between atoms: C5_8  and  C6_10 
REMARK    6  A    between atoms: C6_10  and  C7_11 
REMARK    7  A    between atoms: C7_11  and  N2_12 
REMARK       I    between atoms: N2_12  and  C8_13 
REMARK    8  A    between atoms: C8_13  and  C9_15 
REMARK    9  A    between atoms: C9_15  and  C10_16 
REMARK   10  A    between atoms: C9_15  and  O17_54 
REMARK   11  A    between atoms: C10_16  and  C13_19 
REMARK   12  A    between atoms: C13_19  and  O4_20 
REMARK   13  A    between atoms: O4_20  and  P1_21 
REMARK   14  A    between atoms: P1_21  and  O6_23 
REMARK   15  A    between atoms: P1_21  and  O7_24 
REMARK   16  A    between atoms: O7_24  and  P2_25 
REMARK   17  A    between atoms: P2_25  and  O9_27 
REMARK   18  A    between atoms: P2_25  and  O10_28 
REMARK   19  A    between atoms: O10_28  and  C14_29 
REMARK   20  A    between atoms: C14_29  and  C15_30 
REMARK   21  A    between atoms: C16_31  and  O13_49 
REMARK   22  A    between atoms: C17_32  and  O12_48 
REMARK   23  A    between atoms: C18_33  and  N3_35 
REMARK   24  A    between atoms: C21_40  and  N7_47 
REMARK   25  A    between atoms: O13_49  and  P3_50 
REMARK   26  A    between atoms: P3_50  and  O15_52 
REMARK   27  A    between atoms: P3_50  and  O16_53 
ROOT
HETATM    1  C1  UNL     1      -0.817   7.291  -1.303  1.00  0.00     0.104 C 
HETATM    2  C2  UNL     1       0.551   7.899  -1.360  1.00  0.00     0.182 C 
HETATM    3  O1  UNL     1       1.557   7.338  -0.934  1.00  0.00    -0.286 OA
ENDROOT
BRANCH   2   4
HETATM    4  S1  UNL     1       0.599   9.513  -2.056  1.00  0.00    -0.091 SA
BRANCH   4   5
HETATM    5  C3  UNL     1       2.311   9.548  -2.677  1.00  0.00     0.102 C 
BRANCH   5   6
HETATM    6  C4  UNL     1       3.011  10.867  -2.347  1.00  0.00     0.133 C 
BRANCH   6   7
HETATM    7  N1  UNL     1       4.295  10.674  -1.705  1.00  0.00    -0.360 N 
HETATM    8  C5  UNL     1       5.470  10.677  -2.420  1.00  0.00     0.219 C 
HETATM    9  O2  UNL     1       5.498  10.762  -3.643  1.00  0.00    -0.274 OA
HETATM   10  H8  UNL     1       4.323  10.541  -0.703  1.00  0.00     0.162 HD
BRANCH   8  11
HETATM   11  C6  UNL     1       6.700  10.515  -1.553  1.00  0.00     0.122 C 
BRANCH  11  12
HETATM   12  C7  UNL     1       7.956  10.260  -2.386  1.00  0.00     0.132 C 
BRANCH  12  13
HETATM   13  N2  UNL     1       8.017   8.918  -2.924  1.00  0.00    -0.358 N 
HETATM   14  C8  UNL     1       9.203   8.427  -3.439  1.00  0.00     0.247 C 
HETATM   15  O3  UNL     1      10.197   9.129  -3.569  1.00  0.00    -0.271 OA
HETATM   16  H13 UNL     1       7.380   8.246  -2.500  1.00  0.00     0.162 HD
BRANCH  14  17
HETATM   17  C9  UNL     1       9.176   6.937  -3.811  1.00  0.00     0.219 C 
BRANCH  17  18
HETATM   18  C10 UNL     1       9.895   6.008  -2.798  1.00  0.00     0.009 C 
HETATM   19  C11 UNL     1       9.330   6.155  -1.377  1.00  0.00     0.020 C 
HETATM   20  C12 UNL     1       9.774   4.525  -3.206  1.00  0.00     0.020 C 
BRANCH  18  21
HETATM   21  C13 UNL     1      11.390   6.436  -2.813  1.00  0.00     0.192 C 
BRANCH  21  22
HETATM   22  O4  UNL     1      11.947   6.402  -4.112  1.00  0.00    -0.296 OA
BRANCH  22  23
HETATM   23  P1  UNL     1      13.334   7.116  -4.483  1.00  0.00     0.401 P 
HETATM   24  O5  UNL     1      13.505   7.399  -5.943  1.00  0.00    -0.631 OA
BRANCH  23  25
HETATM   25  O6  UNL     1      14.506   6.209  -3.855  1.00  0.00    -0.307 OA
HETATM   26  H23 UNL     1      14.993   6.676  -3.163  1.00  0.00     0.222 HD
ENDBRANCH  23  25
BRANCH  23  27
HETATM   27  O7  UNL     1      13.400   8.399  -3.545  1.00  0.00    -0.195 OA
BRANCH  27  28
HETATM   28  P2  UNL     1      14.530   9.490  -3.811  1.00  0.00     0.401 P 
HETATM   29  O8  UNL     1      15.924   8.988  -4.002  1.00  0.00    -0.631 OA
BRANCH  28  30
HETATM   30  O9  UNL     1      13.959  10.314  -5.054  1.00  0.00    -0.307 OA
HETATM   31  H24 UNL     1      13.776  11.266  -4.858  1.00  0.00     0.222 HD
ENDBRANCH  28  30
BRANCH  28  32
HETATM   32  O10 UNL     1      14.326  10.552  -2.636  1.00  0.00    -0.294 OA
BRANCH  32  33
HETATM   33  C14 UNL     1      13.377  11.577  -2.773  1.00  0.00     0.215 C 
BRANCH  33  34
HETATM   34  C15 UNL     1      12.372  11.382  -1.639  1.00  0.00     0.180 C 
HETATM   35  C16 UNL     1      11.829  12.733  -1.193  1.00  0.00     0.197 C 
HETATM   36  C17 UNL     1      12.262  12.863   0.255  1.00  0.00     0.199 C 
HETATM   37  C18 UNL     1      12.411  11.400   0.680  1.00  0.00     0.262 C 
HETATM   38  O11 UNL     1      12.941  10.741  -0.492  1.00  0.00    -0.353 OA
BRANCH  35  39
HETATM   39  O13 UNL     1      10.412  12.706  -1.329  1.00  0.00    -0.286 OA
BRANCH  39  40
HETATM   40  P3  UNL     1       9.701  14.134  -1.428  1.00  0.00     0.391 P 
HETATM   41  O14 UNL     1      10.650  15.264  -1.671  1.00  0.00    -0.632 OA
BRANCH  40  42
HETATM   42  O15 UNL     1       8.865  14.149  -0.064  1.00  0.00    -0.307 OA
HETATM   43  H36 UNL     1       9.285  14.750   0.596  1.00  0.00     0.222 HD
ENDBRANCH  40  42
BRANCH  40  44
HETATM   44  O16 UNL     1       8.589  13.857  -2.531  1.00  0.00    -0.307 OA
HETATM   45  H37 UNL     1       8.809  14.244  -3.393  1.00  0.00     0.222 HD
ENDBRANCH  40  44
ENDBRANCH  39  40
ENDBRANCH  35  39
BRANCH  36  46
HETATM   46  O12 UNL     1      11.329  13.666   0.982  1.00  0.00    -0.388 OA
HETATM   47  H35 UNL     1      10.700  14.033   0.315  1.00  0.00     0.210 HD
ENDBRANCH  36  46
BRANCH  37  48
HETATM   48  N3  UNL     1      13.346  11.231   1.773  1.00  0.00    -0.297 N 
HETATM   49  C19 UNL     1      14.658  10.827   1.690  1.00  0.00     0.188 A 
HETATM   50  N4  UNL     1      15.276  10.896   2.849  1.00  0.00    -0.346 N 
HETATM   51  C20 UNL     1      14.319  11.373   3.727  1.00  0.00     0.116 A 
HETATM   52  H4  UNL     1      16.245  10.652   3.055  1.00  0.00     0.167 HD
HETATM   53  C21 UNL     1      14.358  11.703   5.092  1.00  0.00     0.109 A 
HETATM   54  C23 UNL     1      13.108  11.547   3.082  1.00  0.00     0.142 A 
HETATM   55  N5  UNL     1      13.223  12.147   5.686  1.00  0.00    -0.341 N 
HETATM   56  C22 UNL     1      12.107  12.245   4.936  1.00  0.00     0.183 A 
HETATM   57  H5  UNL     1      13.214  12.399   6.674  1.00  0.00     0.167 HD
HETATM   58  N6  UNL     1      11.952  11.967   3.625  1.00  0.00    -0.336 N 
HETATM   59  H6  UNL     1      11.074  12.063   3.114  1.00  0.00     0.168 HD
BRANCH  53  60
HETATM   60  N7  UNL     1      15.499  11.590   5.871  1.00  0.00    -0.287 NA
HETATM   61  H33 UNL     1      16.101  10.809   5.621  1.00  0.00     0.125 HD
HETATM   62  H34 UNL     1      15.319  11.730   6.856  1.00  0.00     0.125 HD
ENDBRANCH  53  60
ENDBRANCH  37  48
ENDBRANCH  33  34
ENDBRANCH  32  33
ENDBRANCH  28  32
ENDBRANCH  27  28
ENDBRANCH  23  27
ENDBRANCH  22  23
ENDBRANCH  21  22
ENDBRANCH  18  21
ENDBRANCH  17  18
BRANCH  17  63
HETATM   63  O17 UNL     1       7.823   6.490  -3.957  1.00  0.00    -0.385 OA
HETATM   64  H38 UNL     1       7.557   6.630  -4.881  1.00  0.00     0.210 HD
ENDBRANCH  17  63
ENDBRANCH  14  17
ENDBRANCH  12  13
ENDBRANCH  11  12
ENDBRANCH   8  11
ENDBRANCH   6   7
ENDBRANCH   5   6
ENDBRANCH   4   5
ENDBRANCH   2   4
TORSDOF 27
ENDMDL
MODEL 4
REMARK VINA RESULT:      -7.0      4.949      9.155
REMARK  27 active torsions:
REMARK  status: ('A' for Active; 'I' for Inactive)
REMARK    1  A    between atoms: C2_2  and  S1_4 
REMARK    2  A    between atoms: S1_4  and  C3_5 
REMARK    3  A    between atoms: C3_5  and  C4_6 
REMARK    4  A    between atoms: C4_6  and  N1_7 
REMARK       I    between atoms: N1_7  and  C5_8 
REMARK    5  A    between atoms: C5_8  and  C6_10 
REMARK    6  A    between atoms: C6_10  and  C7_11 
REMARK    7  A    between atoms: C7_11  and  N2_12 
REMARK       I    between atoms: N2_12  and  C8_13 
REMARK    8  A    between atoms: C8_13  and  C9_15 
REMARK    9  A    between atoms: C9_15  and  C10_16 
REMARK   10  A    between atoms: C9_15  and  O17_54 
REMARK   11  A    between atoms: C10_16  and  C13_19 
REMARK   12  A    between atoms: C13_19  and  O4_20 
REMARK   13  A    between atoms: O4_20  and  P1_21 
REMARK   14  A    between atoms: P1_21  and  O6_23 
REMARK   15  A    between atoms: P1_21  and  O7_24 
REMARK   16  A    between atoms: O7_24  and  P2_25 
REMARK   17  A    between atoms: P2_25  and  O9_27 
REMARK   18  A    between atoms: P2_25  and  O10_28 
REMARK   19  A    between atoms: O10_28  and  C14_29 
REMARK   20  A    between atoms: C14_29  and  C15_30 
REMARK   21  A    between atoms: C16_31  and  O13_49 
REMARK   22  A    between atoms: C17_32  and  O12_48 
REMARK   23  A    between atoms: C18_33  and  N3_35 
REMARK   24  A    between atoms: C21_40  and  N7_47 
REMARK   25  A    between atoms: O13_49  and  P3_50 
REMARK   26  A    between atoms: P3_50  and  O15_52 
REMARK   27  A    between atoms: P3_50  and  O16_53 
ROOT
HETATM    1  C1  UNL     1      -0.890   7.288  -1.302  1.00  0.00     0.104 C 
HETATM    2  C2  UNL     1       0.510   7.820  -1.359  1.00  0.00     0.182 C 
HETATM    3  O1  UNL     1       1.483   7.206  -0.928  1.00  0.00    -0.286 OA
ENDROOT
BRANCH   2   4
HETATM    4  S1  UNL     1       0.648   9.426  -2.061  1.00  0.00    -0.091 SA
BRANCH   4   5
HETATM    5  C3  UNL     1       2.431   9.465  -2.433  1.00  0.00     0.102 C 
BRANCH   5   6
HETATM    6  C4  UNL     1       2.992  10.888  -2.386  1.00  0.00     0.133 C 
BRANCH   6   7
HETATM    7  N1  UNL     1       4.312  10.949  -1.792  1.00  0.00    -0.360 N 
HETATM    8  C5  UNL     1       5.449  11.030  -2.562  1.00  0.00     0.219 C 
HETATM    9  O2  UNL     1       5.422  10.975  -3.786  1.00  0.00    -0.274 OA
HETATM   10  H8  UNL     1       4.393  10.938  -0.784  1.00  0.00     0.162 HD
BRANCH   8  11
HETATM   11  C6  UNL     1       6.719  11.141  -1.746  1.00  0.00     0.122 C 
BRANCH  11  12
HETATM   12  C7  UNL     1       7.899  10.451  -2.430  1.00  0.00     0.132 C 
BRANCH  12  13
HETATM   13  N2  UNL     1       7.623   9.076  -2.787  1.00  0.00    -0.358 N 
HETATM   14  C8  UNL     1       8.653   8.156  -2.864  1.00  0.00     0.247 C 
HETATM   15  O3  UNL     1       9.828   8.483  -2.754  1.00  0.00    -0.271 OA
HETATM   16  H13 UNL     1       6.707   8.727  -2.513  1.00  0.00     0.162 HD
BRANCH  14  17
HETATM   17  C9  UNL     1       8.204   6.703  -3.077  1.00  0.00     0.219 C 
BRANCH  17  18
HETATM   18  C10 UNL     1       8.634   5.726  -1.951  1.00  0.00     0.009 C 
HETATM   19  C11 UNL     1       8.606   6.391  -0.567  1.00  0.00     0.020 C 
HETATM   20  C12 UNL     1       7.719   4.485  -1.900  1.00  0.00     0.020 C 
BRANCH  18  21
HETATM   21  C13 UNL     1      10.088   5.293  -2.294  1.00  0.00     0.192 C 
BRANCH  21  22
HETATM   22  O4  UNL     1      10.190   4.726  -3.584  1.00  0.00    -0.296 OA
BRANCH  22  23
HETATM   23  P1  UNL     1      10.945   5.454  -4.797  1.00  0.00     0.401 P 
HETATM   24  O5  UNL     1      10.107   6.456  -5.527  1.00  0.00    -0.631 OA
BRANCH  23  25
HETATM   25  O6  UNL     1      11.536   4.292  -5.742  1.00  0.00    -0.307 OA
HETATM   26  H23 UNL     1      11.796   3.511  -5.236  1.00  0.00     0.222 HD
ENDBRANCH  23  25
BRANCH  23  27
HETATM   27  O7  UNL     1      12.279   6.041  -4.158  1.00  0.00    -0.195 OA
BRANCH  27  28
HETATM   28  P2  UNL     1      12.962   7.311  -4.835  1.00  0.00     0.401 P 
HETATM   29  O8  UNL     1      13.238   7.231  -6.301  1.00  0.00    -0.631 OA
BRANCH  28  30
HETATM   30  O9  UNL     1      11.995   8.512  -4.419  1.00  0.00    -0.307 OA
HETATM   31  H24 UNL     1      11.035   8.324  -4.559  1.00  0.00     0.222 HD
ENDBRANCH  28  30
BRANCH  28  32
HETATM   32  O10 UNL     1      14.223   7.613  -3.903  1.00  0.00    -0.294 OA
BRANCH  32  33
HETATM   33  C14 UNL     1      14.064   7.694  -2.510  1.00  0.00     0.215 C 
BRANCH  33  34
HETATM   34  C15 UNL     1      14.898   8.890  -2.055  1.00  0.00     0.180 C 
HETATM   35  C16 UNL     1      14.334  10.171  -2.654  1.00  0.00     0.197 C 
HETATM   36  C17 UNL     1      15.451  10.712  -3.527  1.00  0.00     0.199 C 
HETATM   37  C18 UNL     1      16.695  10.110  -2.869  1.00  0.00     0.262 C 
HETATM   38  O11 UNL     1      16.273   8.794  -2.446  1.00  0.00    -0.353 OA
BRANCH  35  39
HETATM   39  O13 UNL     1      14.012  11.054  -1.585  1.00  0.00    -0.286 OA
BRANCH  39  40
HETATM   40  P3  UNL     1      12.602  11.798  -1.706  1.00  0.00     0.391 P 
HETATM   41  O14 UNL     1      12.629  13.001  -2.592  1.00  0.00    -0.632 OA
BRANCH  40  42
HETATM   42  O15 UNL     1      12.250  12.024  -0.162  1.00  0.00    -0.307 OA
HETATM   43  H36 UNL     1      12.429  12.957   0.104  1.00  0.00     0.222 HD
ENDBRANCH  40  42
BRANCH  40  44
HETATM   44  O16 UNL     1      11.647  10.597  -2.122  1.00  0.00    -0.307 OA
HETATM   45  H37 UNL     1      10.756  10.893  -2.369  1.00  0.00     0.222 HD
ENDBRANCH  40  44
ENDBRANCH  39  40
ENDBRANCH  35  39
BRANCH  36  46
HETATM   46  O12 UNL     1      15.374  12.138  -3.604  1.00  0.00    -0.388 OA
HETATM   47  H35 UNL     1      15.230  12.459  -2.681  1.00  0.00     0.210 HD
ENDBRANCH  36  46
BRANCH  37  48
HETATM   48  N3  UNL     1      17.801   9.970  -3.795  1.00  0.00    -0.297 N 
HETATM   49  C19 UNL     1      18.998  10.647  -3.769  1.00  0.00     0.188 A 
HETATM   50  N4  UNL     1      19.843  10.201  -4.672  1.00  0.00    -0.346 N 
HETATM   51  C20 UNL     1      19.162   9.180  -5.313  1.00  0.00     0.116 A 
HETATM   52  H4  UNL     1      20.789  10.532  -4.859  1.00  0.00     0.167 HD
HETATM   53  C21 UNL     1      19.526   8.287  -6.335  1.00  0.00     0.109 A 
HETATM   54  C23 UNL     1      17.882   9.053  -4.805  1.00  0.00     0.142 A 
HETATM   55  N5  UNL     1      18.611   7.385  -6.765  1.00  0.00    -0.341 N 
HETATM   56  C22 UNL     1      17.391   7.392  -6.193  1.00  0.00     0.183 A 
HETATM   57  H5  UNL     1      18.840   6.718  -7.502  1.00  0.00     0.167 HD
HETATM   58  N6  UNL     1      16.933   8.189  -5.206  1.00  0.00    -0.336 N 
HETATM   59  H6  UNL     1      15.991   8.142  -4.815  1.00  0.00     0.168 HD
BRANCH  53  60
HETATM   60  N7  UNL     1      20.775   8.285  -6.937  1.00  0.00    -0.287 NA
HETATM   61  H33 UNL     1      21.173   9.211  -7.078  1.00  0.00     0.125 HD
HETATM   62  H34 UNL     1      20.839   7.639  -7.711  1.00  0.00     0.125 HD
ENDBRANCH  53  60
ENDBRANCH  37  48
ENDBRANCH  33  34
ENDBRANCH  32  33
ENDBRANCH  28  32
ENDBRANCH  27  28
ENDBRANCH  23  27
ENDBRANCH  22  23
ENDBRANCH  21  22
ENDBRANCH  18  21
ENDBRANCH  17  18
BRANCH  17  63
HETATM   63  O17 UNL     1       6.780   6.642  -3.213  1.00  0.00    -0.385 OA
HETATM   64  H38 UNL     1       6.573   6.055  -3.960  1.00  0.00     0.210 HD
ENDBRANCH  17  63
ENDBRANCH  14  17
ENDBRANCH  12  13
ENDBRANCH  11  12
ENDBRANCH   8  11
ENDBRANCH   6   7
ENDBRANCH   5   6
ENDBRANCH   4   5
ENDBRANCH   2   4
TORSDOF 27
ENDMDL
MODEL 5
REMARK VINA RESULT:      -7.0      1.813      2.352
REMARK  27 active torsions:
REMARK  status: ('A' for Active; 'I' for Inactive)
REMARK    1  A    between atoms: C2_2  and  S1_4 
REMARK    2  A    between atoms: S1_4  and  C3_5 
REMARK    3  A    between atoms: C3_5  and  C4_6 
REMARK    4  A    between atoms: C4_6  and  N1_7 
REMARK       I    between atoms: N1_7  and  C5_8 
REMARK    5  A    between atoms: C5_8  and  C6_10 
REMARK    6  A    between atoms: C6_10  and  C7_11 
REMARK    7  A    between atoms: C7_11  and  N2_12 
REMARK       I    between atoms: N2_12  and  C8_13 
REMARK    8  A    between atoms: C8_13  and  C9_15 
REMARK    9  A    between atoms: C9_15  and  C10_16 
REMARK   10  A    between atoms: C9_15  and  O17_54 
REMARK   11  A    between atoms: C10_16  and  C13_19 
REMARK   12  A    between atoms: C13_19  and  O4_20 
REMARK   13  A    between atoms: O4_20  and  P1_21 
REMARK   14  A    between atoms: P1_21  and  O6_23 
REMARK   15  A    between atoms: P1_21  and  O7_24 
REMARK   16  A    between atoms: O7_24  and  P2_25 
REMARK   17  A    between atoms: P2_25  and  O9_27 
REMARK   18  A    between atoms: P2_25  and  O10_28 
REMARK   19  A    between atoms: O10_28  and  C14_29 
REMARK   20  A    between atoms: C14_29  and  C15_30 
REMARK   21  A    between atoms: C16_31  and  O13_49 
REMARK   22  A    between atoms: C17_32  and  O12_48 
REMARK   23  A    between atoms: C18_33  and  N3_35 
REMARK   24  A    between atoms: C21_40  and  N7_47 
REMARK   25  A    between atoms: O13_49  and  P3_50 
REMARK   26  A    between atoms: P3_50  and  O15_52 
REMARK   27  A    between atoms: P3_50  and  O16_53 
ROOT
HETATM    1  C1  UNL     1       4.222  10.679  -2.733  1.00  0.00     0.104 C 
HETATM    2  C2  UNL     1       5.371  10.674  -1.771  1.00  0.00     0.182 C 
HETATM    3  O1  UNL     1       5.228  10.632  -0.551  1.00  0.00    -0.286 OA
ENDROOT
BRANCH   2   4
HETATM    4  S1  UNL     1       6.954  10.773  -2.530  1.00  0.00    -0.091 SA
BRANCH   4   5
HETATM    5  C3  UNL     1       7.651   9.164  -2.037  1.00  0.00     0.102 C 
BRANCH   5   6
HETATM    6  C4  UNL     1       9.121   9.032  -2.439  1.00  0.00     0.133 C 
BRANCH   6   7
HETATM    7  N1  UNL     1       9.315   8.147  -3.569  1.00  0.00    -0.360 N 
HETATM    8  C5  UNL     1       9.710   6.840  -3.406  1.00  0.00     0.219 C 
HETATM    9  O2  UNL     1       9.999   6.370  -2.312  1.00  0.00    -0.274 OA
HETATM   10  H8  UNL     1       9.146   8.504  -4.501  1.00  0.00     0.162 HD
BRANCH   8  11
HETATM   11  C6  UNL     1       9.799   6.074  -4.708  1.00  0.00     0.122 C 
BRANCH  11  12
HETATM   12  C7  UNL     1      11.247   5.770  -5.094  1.00  0.00     0.132 C 
BRANCH  12  13
HETATM   13  N2  UNL     1      12.188   6.742  -4.579  1.00  0.00    -0.358 N 
HETATM   14  C8  UNL     1      13.045   7.404  -5.437  1.00  0.00     0.247 C 
HETATM   15  O3  UNL     1      13.128   7.118  -6.625  1.00  0.00    -0.271 OA
HETATM   16  H13 UNL     1      11.889   7.240  -3.743  1.00  0.00     0.162 HD
BRANCH  14  17
HETATM   17  C9  UNL     1      13.863   8.532  -4.789  1.00  0.00     0.219 C 
BRANCH  17  18
HETATM   18  C10 UNL     1      15.290   8.117  -4.344  1.00  0.00     0.009 C 
HETATM   19  C11 UNL     1      15.376   6.623  -3.995  1.00  0.00     0.020 C 
HETATM   20  C12 UNL     1      16.331   8.408  -5.444  1.00  0.00     0.020 C 
BRANCH  18  21
HETATM   21  C13 UNL     1      15.608   8.968  -3.082  1.00  0.00     0.192 C 
BRANCH  21  22
HETATM   22  O4  UNL     1      15.980  10.292  -3.405  1.00  0.00    -0.296 OA
BRANCH  22  23
HETATM   23  P1  UNL     1      15.062  11.562  -3.066  1.00  0.00     0.401 P 
HETATM   24  O5  UNL     1      14.340  12.128  -4.248  1.00  0.00    -0.631 OA
BRANCH  23  25
HETATM   25  O6  UNL     1      16.001  12.627  -2.308  1.00  0.00    -0.307 OA
HETATM   26  H23 UNL     1      16.460  13.209  -2.927  1.00  0.00     0.222 HD
ENDBRANCH  23  25
BRANCH  23  27
HETATM   27  O7  UNL     1      14.118  11.082  -1.879  1.00  0.00    -0.195 OA
BRANCH  27  28
HETATM   28  P2  UNL     1      13.130  12.135  -1.207  1.00  0.00     0.401 P 
HETATM   29  O8  UNL     1      13.287  13.564  -1.611  1.00  0.00    -0.631 OA
BRANCH  28  30
HETATM   30  O9  UNL     1      11.685  11.527  -1.510  1.00  0.00    -0.307 OA
HETATM   31  H24 UNL     1      11.395  10.834  -0.868  1.00  0.00     0.222 HD
ENDBRANCH  28  30
BRANCH  28  32
HETATM   32  O10 UNL     1      13.251  11.835   0.357  1.00  0.00    -0.294 OA
BRANCH  32  33
HETATM   33  C14 UNL     1      14.467  12.060   1.023  1.00  0.00     0.215 C 
BRANCH  33  34
HETATM   34  C15 UNL     1      14.116  12.791   2.318  1.00  0.00     0.180 C 
HETATM   35  C16 UNL     1      15.140  12.455   3.393  1.00  0.00     0.197 C 
HETATM   36  C17 UNL     1      14.343  11.761   4.481  1.00  0.00     0.199 C 
HETATM   37  C18 UNL     1      12.937  12.324   4.259  1.00  0.00     0.262 C 
HETATM   38  O11 UNL     1      12.822  12.441   2.824  1.00  0.00    -0.353 OA
BRANCH  35  39
HETATM   39  O13 UNL     1      15.719  13.674   3.847  1.00  0.00    -0.286 OA
BRANCH  39  40
HETATM   40  P3  UNL     1      17.287  13.834   3.579  1.00  0.00     0.391 P 
HETATM   41  O14 UNL     1      17.653  13.841   2.129  1.00  0.00    -0.632 OA
BRANCH  40  42
HETATM   42  O15 UNL     1      17.868  12.650   4.484  1.00  0.00    -0.307 OA
HETATM   43  H36 UNL     1      18.710  12.925   4.919  1.00  0.00     0.222 HD
ENDBRANCH  40  42
BRANCH  40  44
HETATM   44  O16 UNL     1      17.621  15.136   4.429  1.00  0.00    -0.307 OA
HETATM   45  H37 UNL     1      18.549  15.176   4.707  1.00  0.00     0.222 HD
ENDBRANCH  40  44
ENDBRANCH  39  40
ENDBRANCH  35  39
BRANCH  36  46
HETATM   46  O12 UNL     1      14.946  11.985   5.758  1.00  0.00    -0.388 OA
HETATM   47  H35 UNL     1      15.553  11.223   5.916  1.00  0.00     0.210 HD
ENDBRANCH  36  46
BRANCH  37  48
HETATM   48  N3  UNL     1      11.899  11.433   4.738  1.00  0.00    -0.297 N 
HETATM   49  C19 UNL     1      11.959  10.062   4.833  1.00  0.00     0.188 A 
HETATM   50  N4  UNL     1      10.899   9.556   5.426  1.00  0.00    -0.346 N 
HETATM   51  C20 UNL     1      10.116  10.654   5.735  1.00  0.00     0.116 A 
HETATM   52  H4  UNL     1      10.700   8.575   5.616  1.00  0.00     0.167 HD
HETATM   53  C21 UNL     1       8.888  10.790   6.405  1.00  0.00     0.109 A 
HETATM   54  C23 UNL     1      10.705  11.819   5.279  1.00  0.00     0.142 A 
HETATM   55  N5  UNL     1       8.357  12.029   6.544  1.00  0.00    -0.341 N 
HETATM   56  C22 UNL     1       9.034  13.074   6.027  1.00  0.00     0.183 A 
HETATM   57  H5  UNL     1       7.470  12.168   7.028  1.00  0.00     0.167 HD
HETATM   58  N6  UNL     1      10.215  13.068   5.376  1.00  0.00    -0.336 N 
HETATM   59  H6  UNL     1      10.676  13.900   5.007  1.00  0.00     0.168 HD
BRANCH  53  60
HETATM   60  N7  UNL     1       8.181   9.717   6.926  1.00  0.00    -0.287 NA
HETATM   61  H33 UNL     1       7.560   9.959   7.696  1.00  0.00     0.125 HD
HETATM   62  H34 UNL     1       8.749   8.889   7.042  1.00  0.00     0.125 HD
ENDBRANCH  53  60
ENDBRANCH  37  48
ENDBRANCH  33  34
ENDBRANCH  32  33
ENDBRANCH  28  32
ENDBRANCH  27  28
ENDBRANCH  23  27
ENDBRANCH  22  23
ENDBRANCH  21  22
ENDBRANCH  18  21
ENDBRANCH  17  18
BRANCH  17  63
HETATM   63  O17 UNL     1      13.971   9.641  -5.687  1.00  0.00    -0.385 OA
HETATM   64  H38 UNL     1      13.642   9.359  -6.557  1.00  0.00     0.210 HD
ENDBRANCH  17  63
ENDBRANCH  14  17
ENDBRANCH  12  13
ENDBRANCH  11  12
ENDBRANCH   8  11
ENDBRANCH   6   7
ENDBRANCH   5   6
ENDBRANCH   4   5
ENDBRANCH   2   4
TORSDOF 27
ENDMDL
MODEL 6
REMARK VINA RESULT:      -6.9      2.885      9.080
REMARK  27 active torsions:
REMARK  status: ('A' for Active; 'I' for Inactive)
REMARK    1  A    between atoms: C2_2  and  S1_4 
REMARK    2  A    between atoms: S1_4  and  C3_5 
REMARK    3  A    between atoms: C3_5  and  C4_6 
REMARK    4  A    between atoms: C4_6  and  N1_7 
REMARK       I    between atoms: N1_7  and  C5_8 
REMARK    5  A    between atoms: C5_8  and  C6_10 
REMARK    6  A    between atoms: C6_10  and  C7_11 
REMARK    7  A    between atoms: C7_11  and  N2_12 
REMARK       I    between atoms: N2_12  and  C8_13 
REMARK    8  A    between atoms: C8_13  and  C9_15 
REMARK    9  A    between atoms: C9_15  and  C10_16 
REMARK   10  A    between atoms: C9_15  and  O17_54 
REMARK   11  A    between atoms: C10_16  and  C13_19 
REMARK   12  A    between atoms: C13_19  and  O4_20 
REMARK   13  A    between atoms: O4_20  and  P1_21 
REMARK   14  A    between atoms: P1_21  and  O6_23 
REMARK   15  A    between atoms: P1_21  and  O7_24 
REMARK   16  A    between atoms: O7_24  and  P2_25 
REMARK   17  A    between atoms: P2_25  and  O9_27 
REMARK   18  A    between atoms: P2_25  and  O10_28 
REMARK   19  A    between atoms: O10_28  and  C14_29 
REMARK   20  A    between atoms: C14_29  and  C15_30 
REMARK   21  A    between atoms: C16_31  and  O13_49 
REMARK   22  A    between atoms: C17_32  and  O12_48 
REMARK   23  A    between atoms: C18_33  and  N3_35 
REMARK   24  A    between atoms: C21_40  and  N7_47 
REMARK   25  A    between atoms: O13_49  and  P3_50 
REMARK   26  A    between atoms: P3_50  and  O15_52 
REMARK   27  A    between atoms: P3_50  and  O16_53 
ROOT
HETATM    1  C1  UNL     1      10.108   9.541   5.078  1.00  0.00     0.104 C 
HETATM    2  C2  UNL     1      10.067  10.899   5.711  1.00  0.00     0.182 C 
HETATM    3  O1  UNL     1       9.270  11.207   6.594  1.00  0.00    -0.286 OA
ENDROOT
BRANCH   2   4
HETATM    4  S1  UNL     1      11.235  12.039   5.057  1.00  0.00    -0.091 SA
BRANCH   4   5
HETATM    5  C3  UNL     1      12.620  11.784   6.213  1.00  0.00     0.102 C 
BRANCH   5   6
HETATM    6  C4  UNL     1      13.836  11.168   5.518  1.00  0.00     0.133 C 
BRANCH   6   7
HETATM    7  N1  UNL     1      14.726  12.165   4.961  1.00  0.00    -0.360 N 
HETATM    8  C5  UNL     1      15.054  12.177   3.625  1.00  0.00     0.219 C 
HETATM    9  O2  UNL     1      14.681  11.308   2.846  1.00  0.00    -0.274 OA
HETATM   10  H8  UNL     1      15.109  12.872   5.574  1.00  0.00     0.162 HD
BRANCH   8  11
HETATM   11  C6  UNL     1      15.951  13.333   3.239  1.00  0.00     0.122 C 
BRANCH  11  12
HETATM   12  C7  UNL     1      15.151  14.593   2.912  1.00  0.00     0.132 C 
BRANCH  12  13
HETATM   13  N2  UNL     1      14.413  14.490   1.670  1.00  0.00    -0.358 N 
HETATM   14  C8  UNL     1      13.033  14.574   1.671  1.00  0.00     0.247 C 
HETATM   15  O3  UNL     1      12.383  14.618   2.708  1.00  0.00    -0.271 OA
HETATM   16  H13 UNL     1      14.900  14.827   0.842  1.00  0.00     0.162 HD
BRANCH  14  17
HETATM   17  C9  UNL     1      12.390  14.628   0.277  1.00  0.00     0.219 C 
BRANCH  17  18
HETATM   18  C10 UNL     1      11.803  13.278  -0.212  1.00  0.00     0.009 C 
HETATM   19  C11 UNL     1      11.982  12.159   0.825  1.00  0.00     0.020 C 
HETATM   20  C12 UNL     1      10.298  13.397  -0.527  1.00  0.00     0.020 C 
BRANCH  18  21
HETATM   21  C13 UNL     1      12.584  12.919  -1.509  1.00  0.00     0.192 C 
BRANCH  21  22
HETATM   22  O4  UNL     1      13.927  13.356  -1.467  1.00  0.00    -0.296 OA
BRANCH  22  23
HETATM   23  P1  UNL     1      15.163  12.355  -1.266  1.00  0.00     0.401 P 
HETATM   24  O5  UNL     1      15.944  12.593  -0.012  1.00  0.00    -0.631 OA
BRANCH  23  25
HETATM   25  O6  UNL     1      16.049  12.434  -2.607  1.00  0.00    -0.307 OA
HETATM   26  H23 UNL     1      16.990  12.313  -2.427  1.00  0.00     0.222 HD
ENDBRANCH  23  25
BRANCH  23  27
HETATM   27  O7  UNL     1      14.537  10.899  -1.393  1.00  0.00    -0.195 OA
BRANCH  27  28
HETATM   28  P2  UNL     1      15.428   9.640  -0.993  1.00  0.00     0.401 P 
HETATM   29  O8  UNL     1      16.910   9.829  -1.002  1.00  0.00    -0.631 OA
BRANCH  28  30
HETATM   30  O9  UNL     1      14.836   9.208   0.426  1.00  0.00    -0.307 OA
HETATM   31  H24 UNL     1      15.221   9.701   1.191  1.00  0.00     0.222 HD
ENDBRANCH  28  30
BRANCH  28  32
HETATM   32  O10 UNL     1      14.869   8.462  -1.915  1.00  0.00    -0.294 OA
BRANCH  32  33
HETATM   33  C14 UNL     1      15.724   7.428  -2.328  1.00  0.00     0.215 C 
BRANCH  33  34
HETATM   34  C15 UNL     1      15.107   6.846  -3.599  1.00  0.00     0.180 C 
HETATM   35  C16 UNL     1      15.328   7.802  -4.764  1.00  0.00     0.197 C 
HETATM   36  C17 UNL     1      13.933   8.206  -5.200  1.00  0.00     0.199 C 
HETATM   37  C18 UNL     1      13.091   7.016  -4.733  1.00  0.00     0.262 C 
HETATM   38  O11 UNL     1      13.697   6.620  -3.482  1.00  0.00    -0.353 OA
BRANCH  35  39
HETATM   39  O13 UNL     1      16.027   7.098  -5.785  1.00  0.00    -0.286 OA
BRANCH  39  40
HETATM   40  P3  UNL     1      17.380   7.782  -6.292  1.00  0.00     0.391 P 
HETATM   41  O14 UNL     1      17.902   8.839  -5.373  1.00  0.00    -0.632 OA
BRANCH  40  42
HETATM   42  O15 UNL     1      16.954   8.229  -7.768  1.00  0.00    -0.307 OA
HETATM   43  H36 UNL     1      16.871   9.211  -7.825  1.00  0.00     0.222 HD
ENDBRANCH  40  42
BRANCH  40  44
HETATM   44  O16 UNL     1      18.300   6.511  -6.550  1.00  0.00    -0.307 OA
HETATM   45  H37 UNL     1      17.800   5.679  -6.549  1.00  0.00     0.222 HD
ENDBRANCH  40  44
ENDBRANCH  39  40
ENDBRANCH  35  39
BRANCH  36  46
HETATM   46  O12 UNL     1      13.919   8.511  -6.597  1.00  0.00    -0.388 OA
HETATM   47  H35 UNL     1      13.921   9.496  -6.667  1.00  0.00     0.210 HD
ENDBRANCH  36  46
BRANCH  37  48
HETATM   48  N3  UNL     1      11.708   7.375  -4.488  1.00  0.00    -0.297 N 
HETATM   49  C19 UNL     1      10.591   6.825  -5.071  1.00  0.00     0.188 A 
HETATM   50  N4  UNL     1       9.477   7.281  -4.542  1.00  0.00    -0.346 N 
HETATM   51  C20 UNL     1       9.892   8.166  -3.563  1.00  0.00     0.116 A 
HETATM   52  H4  UNL     1       8.520   7.036  -4.796  1.00  0.00     0.167 HD
HETATM   53  C21 UNL     1       9.194   8.943  -2.622  1.00  0.00     0.109 A 
HETATM   54  C23 UNL     1      11.272   8.264  -3.545  1.00  0.00     0.142 A 
HETATM   55  N5  UNL     1       9.902   9.738  -1.784  1.00  0.00    -0.341 N 
HETATM   56  C22 UNL     1      11.245   9.750  -1.897  1.00  0.00     0.183 A 
HETATM   57  H5  UNL     1       9.430  10.313  -1.085  1.00  0.00     0.167 HD
HETATM   58  N6  UNL     1      12.020   9.047  -2.748  1.00  0.00    -0.336 N 
HETATM   59  H6  UNL     1      13.038   9.101  -2.783  1.00  0.00     0.168 HD
BRANCH  53  60
HETATM   60  N7  UNL     1       7.812   8.946  -2.511  1.00  0.00    -0.287 NA
HETATM   61  H33 UNL     1       7.420   9.828  -2.188  1.00  0.00     0.125 HD
HETATM   62  H34 UNL     1       7.448   8.103  -2.088  1.00  0.00     0.125 HD
ENDBRANCH  53  60
ENDBRANCH  37  48
ENDBRANCH  33  34
ENDBRANCH  32  33
ENDBRANCH  28  32
ENDBRANCH  27  28
ENDBRANCH  23  27
ENDBRANCH  22  23
ENDBRANCH  21  22
ENDBRANCH  18  21
ENDBRANCH  17  18
BRANCH  17  63
HETATM   63  O17 UNL     1      11.350  15.612   0.252  1.00  0.00    -0.385 OA
HETATM   64  H38 UNL     1      11.256  15.975   1.149  1.00  0.00     0.210 HD
ENDBRANCH  17  63
ENDBRANCH  14  17
ENDBRANCH  12  13
ENDBRANCH  11  12
ENDBRANCH   8  11
ENDBRANCH   6   7
ENDBRANCH   5   6
ENDBRANCH   4   5
ENDBRANCH   2   4
TORSDOF 27
ENDMDL
MODEL 7
REMARK VINA RESULT:      -6.9      2.338      3.174
REMARK  27 active torsions:
REMARK  status: ('A' for Active; 'I' for Inactive)
REMARK    1  A    between atoms: C2_2  and  S1_4 
REMARK    2  A    between atoms: S1_4  and  C3_5 
REMARK    3  A    between atoms: C3_5  and  C4_6 
REMARK    4  A    between atoms: C4_6  and  N1_7 
REMARK       I    between atoms: N1_7  and  C5_8 
REMARK    5  A    between atoms: C5_8  and  C6_10 
REMARK    6  A    between atoms: C6_10  and  C7_11 
REMARK    7  A    between atoms: C7_11  and  N2_12 
REMARK       I    between atoms: N2_12  and  C8_13 
REMARK    8  A    between atoms: C8_13  and  C9_15 
REMARK    9  A    between atoms: C9_15  and  C10_16 
REMARK   10  A    between atoms: C9_15  and  O17_54 
REMARK   11  A    between atoms: C10_16  and  C13_19 
REMARK   12  A    between atoms: C13_19  and  O4_20 
REMARK   13  A    between atoms: O4_20  and  P1_21 
REMARK   14  A    between atoms: P1_21  and  O6_23 
REMARK   15  A    between atoms: P1_21  and  O7_24 
REMARK   16  A    between atoms: O7_24  and  P2_25 
REMARK   17  A    between atoms: P2_25  and  O9_27 
REMARK   18  A    between atoms: P2_25  and  O10_28 
REMARK   19  A    between atoms: O10_28  and  C14_29 
REMARK   20  A    between atoms: C14_29  and  C15_30 
REMARK   21  A    between atoms: C16_31  and  O13_49 
REMARK   22  A    between atoms: C17_32  and  O12_48 
REMARK   23  A    between atoms: C18_33  and  N3_35 
REMARK   24  A    between atoms: C21_40  and  N7_47 
REMARK   25  A    between atoms: O13_49  and  P3_50 
REMARK   26  A    between atoms: P3_50  and  O15_52 
REMARK   27  A    between atoms: P3_50  and  O16_53 
ROOT
HETATM    1  C1  UNL     1       4.877  11.956  -4.668  1.00  0.00     0.104 C 
HETATM    2  C2  UNL     1       5.273  11.021  -3.566  1.00  0.00     0.182 C 
HETATM    3  O1  UNL     1       4.515  10.180  -3.091  1.00  0.00    -0.286 OA
ENDROOT
BRANCH   2   4
HETATM    4  S1  UNL     1       6.913  11.253  -2.974  1.00  0.00    -0.091 SA
BRANCH   4   5
HETATM    5  C3  UNL     1       7.181   9.659  -2.133  1.00  0.00     0.102 C 
BRANCH   5   6
HETATM    6  C4  UNL     1       8.606   9.140  -2.337  1.00  0.00     0.133 C 
BRANCH   6   7
HETATM    7  N1  UNL     1       8.679   8.079  -3.320  1.00  0.00    -0.360 N 
HETATM    8  C5  UNL     1       9.105   6.814  -2.990  1.00  0.00     0.219 C 
HETATM    9  O2  UNL     1       9.522   6.528  -1.873  1.00  0.00    -0.274 OA
HETATM   10  H8  UNL     1       8.401   8.278  -4.272  1.00  0.00     0.162 HD
BRANCH   8  11
HETATM   11  C6  UNL     1       9.054   5.842  -4.149  1.00  0.00     0.122 C 
BRANCH  11  12
HETATM   12  C7  UNL     1      10.436   5.607  -4.758  1.00  0.00     0.132 C 
BRANCH  12  13
HETATM   13  N2  UNL     1      11.491   6.311  -4.060  1.00  0.00    -0.358 N 
HETATM   14  C8  UNL     1      12.081   7.424  -4.630  1.00  0.00     0.247 C 
HETATM   15  O3  UNL     1      11.828   7.782  -5.773  1.00  0.00    -0.271 OA
HETATM   16  H13 UNL     1      11.441   6.279  -3.044  1.00  0.00     0.162 HD
BRANCH  14  17
HETATM   17  C9  UNL     1      13.056   8.177  -3.713  1.00  0.00     0.219 C 
BRANCH  17  18
HETATM   18  C10 UNL     1      14.520   8.216  -4.225  1.00  0.00     0.009 C 
HETATM   19  C11 UNL     1      15.097   6.809  -4.436  1.00  0.00     0.020 C 
HETATM   20  C12 UNL     1      14.632   8.981  -5.560  1.00  0.00     0.020 C 
BRANCH  18  21
HETATM   21  C13 UNL     1      15.337   8.956  -3.127  1.00  0.00     0.192 C 
BRANCH  21  22
HETATM   22  O4  UNL     1      15.589  10.306  -3.461  1.00  0.00    -0.296 OA
BRANCH  22  23
HETATM   23  P1  UNL     1      14.872  11.535  -2.723  1.00  0.00     0.401 P 
HETATM   24  O5  UNL     1      13.791  12.185  -3.527  1.00  0.00    -0.631 OA
BRANCH  23  25
HETATM   25  O6  UNL     1      16.037  12.546  -2.263  1.00  0.00    -0.307 OA
HETATM   26  H23 UNL     1      16.657  12.733  -2.979  1.00  0.00     0.222 HD
ENDBRANCH  23  25
BRANCH  23  27
HETATM   27  O7  UNL     1      14.397  10.951  -1.321  1.00  0.00    -0.195 OA
BRANCH  27  28
HETATM   28  P2  UNL     1      13.334  11.773  -0.465  1.00  0.00     0.401 P 
HETATM   29  O8  UNL     1      13.535  13.250  -0.374  1.00  0.00    -0.631 OA
BRANCH  28  30
HETATM   30  O9  UNL     1      11.937  11.344  -1.107  1.00  0.00    -0.307 OA
HETATM   31  H24 UNL     1      11.562  12.006  -1.738  1.00  0.00     0.222 HD
ENDBRANCH  28  30
BRANCH  28  32
HETATM   32  O10 UNL     1      13.271  10.990   0.926  1.00  0.00    -0.294 OA
BRANCH  32  33
HETATM   33  C14 UNL     1      14.359  10.208   1.342  1.00  0.00     0.215 C 
BRANCH  33  34
HETATM   34  C15 UNL     1      14.524  10.467   2.838  1.00  0.00     0.180 C 
HETATM   35  C16 UNL     1      14.929   9.179   3.543  1.00  0.00     0.197 C 
HETATM   36  C17 UNL     1      13.792   8.894   4.506  1.00  0.00     0.199 C 
HETATM   37  C18 UNL     1      13.211  10.290   4.742  1.00  0.00     0.262 C 
HETATM   38  O11 UNL     1      13.324  10.944   3.458  1.00  0.00    -0.353 OA
BRANCH  35  39
HETATM   39  O13 UNL     1      16.160   9.414   4.219  1.00  0.00    -0.286 OA
BRANCH  39  40
HETATM   40  P3  UNL     1      17.322   8.358   3.921  1.00  0.00     0.391 P 
HETATM   41  O14 UNL     1      18.627   8.986   3.553  1.00  0.00    -0.632 OA
BRANCH  40  42
HETATM   42  O15 UNL     1      16.612   7.431   2.828  1.00  0.00    -0.307 OA
HETATM   43  H36 UNL     1      16.514   6.508   3.163  1.00  0.00     0.222 HD
ENDBRANCH  40  42
BRANCH  40  44
HETATM   44  O16 UNL     1      17.280   7.464   5.235  1.00  0.00    -0.307 OA
HETATM   45  H37 UNL     1      18.049   6.877   5.316  1.00  0.00     0.222 HD
ENDBRANCH  40  44
ENDBRANCH  39  40
ENDBRANCH  35  39
BRANCH  36  46
HETATM   46  O12 UNL     1      14.277   8.183   5.649  1.00  0.00    -0.388 OA
HETATM   47  H35 UNL     1      13.485   7.957   6.192  1.00  0.00     0.210 HD
ENDBRANCH  36  46
BRANCH  37  48
HETATM   48  N3  UNL     1      11.813  10.253   5.124  1.00  0.00    -0.297 N 
HETATM   49  C19 UNL     1      11.070   9.143   5.451  1.00  0.00     0.188 A 
HETATM   50  N4  UNL     1       9.866   9.457   5.876  1.00  0.00    -0.346 N 
HETATM   51  C20 UNL     1       9.828  10.840   5.828  1.00  0.00     0.116 A 
HETATM   52  H4  UNL     1       9.125   8.824   6.176  1.00  0.00     0.167 HD
HETATM   53  C21 UNL     1       8.847  11.779   6.187  1.00  0.00     0.109 A 
HETATM   54  C23 UNL     1      11.014  11.344   5.326  1.00  0.00     0.142 A 
HETATM   55  N5  UNL     1       9.112  13.096   6.006  1.00  0.00    -0.341 N 
HETATM   56  C22 UNL     1      10.306  13.441   5.484  1.00  0.00     0.183 A 
HETATM   57  H5  UNL     1       8.426  13.808   6.259  1.00  0.00     0.167 HD
HETATM   58  N6  UNL     1      11.321  12.635   5.112  1.00  0.00    -0.336 N 
HETATM   59  H6  UNL     1      12.205  12.962   4.721  1.00  0.00     0.168 HD
BRANCH  53  60
HETATM   60  N7  UNL     1       7.612  11.430   6.711  1.00  0.00    -0.287 NA
HETATM   61  H33 UNL     1       7.653  11.012   7.638  1.00  0.00     0.125 HD
HETATM   62  H34 UNL     1       7.010  10.979   6.035  1.00  0.00     0.125 HD
ENDBRANCH  53  60
ENDBRANCH  37  48
ENDBRANCH  33  34
ENDBRANCH  32  33
ENDBRANCH  28  32
ENDBRANCH  27  28
ENDBRANCH  23  27
ENDBRANCH  22  23
ENDBRANCH  21  22
ENDBRANCH  18  21
ENDBRANCH  17  18
BRANCH  17  63
HETATM   63  O17 UNL     1      12.608   9.522  -3.515  1.00  0.00    -0.385 OA
HETATM   64  H38 UNL     1      12.324   9.612  -2.590  1.00  0.00     0.210 HD
ENDBRANCH  17  63
ENDBRANCH  14  17
ENDBRANCH  12  13
ENDBRANCH  11  12
ENDBRANCH   8  11
ENDBRANCH   6   7
ENDBRANCH   5   6
ENDBRANCH   4   5
ENDBRANCH   2   4
TORSDOF 27
ENDMDL
MODEL 8
REMARK VINA RESULT:      -6.9      4.459      6.998
REMARK  27 active torsions:
REMARK  status: ('A' for Active; 'I' for Inactive)
REMARK    1  A    between atoms: C2_2  and  S1_4 
REMARK    2  A    between atoms: S1_4  and  C3_5 
REMARK    3  A    between atoms: C3_5  and  C4_6 
REMARK    4  A    between atoms: C4_6  and  N1_7 
REMARK       I    between atoms: N1_7  and  C5_8 
REMARK    5  A    between atoms: C5_8  and  C6_10 
REMARK    6  A    between atoms: C6_10  and  C7_11 
REMARK    7  A    between atoms: C7_11  and  N2_12 
REMARK       I    between atoms: N2_12  and  C8_13 
REMARK    8  A    between atoms: C8_13  and  C9_15 
REMARK    9  A    between atoms: C9_15  and  C10_16 
REMARK   10  A    between atoms: C9_15  and  O17_54 
REMARK   11  A    between atoms: C10_16  and  C13_19 
REMARK   12  A    between atoms: C13_19  and  O4_20 
REMARK   13  A    between atoms: O4_20  and  P1_21 
REMARK   14  A    between atoms: P1_21  and  O6_23 
REMARK   15  A    between atoms: P1_21  and  O7_24 
REMARK   16  A    between atoms: O7_24  and  P2_25 
REMARK   17  A    between atoms: P2_25  and  O9_27 
REMARK   18  A    between atoms: P2_25  and  O10_28 
REMARK   19  A    between atoms: O10_28  and  C14_29 
REMARK   20  A    between atoms: C14_29  and  C15_30 
REMARK   21  A    between atoms: C16_31  and  O13_49 
REMARK   22  A    between atoms: C17_32  and  O12_48 
REMARK   23  A    between atoms: C18_33  and  N3_35 
REMARK   24  A    between atoms: C21_40  and  N7_47 
REMARK   25  A    between atoms: O13_49  and  P3_50 
REMARK   26  A    between atoms: P3_50  and  O15_52 
REMARK   27  A    between atoms: P3_50  and  O16_53 
ROOT
HETATM    1  C1  UNL     1      -0.800   7.295  -1.316  1.00  0.00     0.104 C 
HETATM    2  C2  UNL     1       0.573   7.891  -1.367  1.00  0.00     0.182 C 
HETATM    3  O1  UNL     1       1.572   7.322  -0.934  1.00  0.00    -0.286 OA
ENDROOT
BRANCH   2   4
HETATM    4  S1  UNL     1       0.639   9.502  -2.069  1.00  0.00    -0.091 SA
BRANCH   4   5
HETATM    5  C3  UNL     1       2.373   9.542  -2.627  1.00  0.00     0.102 C 
BRANCH   5   6
HETATM    6  C4  UNL     1       3.052  10.869  -2.282  1.00  0.00     0.133 C 
BRANCH   6   7
HETATM    7  N1  UNL     1       4.351  10.689  -1.667  1.00  0.00    -0.360 N 
HETATM    8  C5  UNL     1       5.510  10.692  -2.407  1.00  0.00     0.219 C 
HETATM    9  O2  UNL     1       5.511  10.765  -3.631  1.00  0.00    -0.274 OA
HETATM   10  H8  UNL     1       4.401  10.565  -0.664  1.00  0.00     0.162 HD
BRANCH   8  11
HETATM   11  C6  UNL     1       6.759  10.544  -1.566  1.00  0.00     0.122 C 
BRANCH  11  12
HETATM   12  C7  UNL     1       7.967  10.130  -2.406  1.00  0.00     0.132 C 
BRANCH  12  13
HETATM   13  N2  UNL     1       7.944   8.733  -2.782  1.00  0.00    -0.358 N 
HETATM   14  C8  UNL     1       8.984   8.191  -3.515  1.00  0.00     0.247 C 
HETATM   15  O3  UNL     1       9.889   8.880  -3.969  1.00  0.00    -0.271 OA
HETATM   16  H13 UNL     1       7.457   8.113  -2.138  1.00  0.00     0.162 HD
BRANCH  14  17
HETATM   17  C9  UNL     1       8.922   6.667  -3.693  1.00  0.00     0.219 C 
BRANCH  17  18
HETATM   18  C10 UNL     1       9.558   5.858  -2.532  1.00  0.00     0.009 C 
HETATM   19  C11 UNL     1       8.693   5.892  -1.263  1.00  0.00     0.020 C 
HETATM   20  C12 UNL     1       9.770   4.381  -2.922  1.00  0.00     0.020 C 
BRANCH  18  21
HETATM   21  C13 UNL     1      10.932   6.528  -2.246  1.00  0.00     0.192 C 
BRANCH  21  22
HETATM   22  O4  UNL     1      11.777   6.527  -3.379  1.00  0.00    -0.296 OA
BRANCH  22  23
HETATM   23  P1  UNL     1      13.223   7.221  -3.387  1.00  0.00     0.401 P 
HETATM   24  O5  UNL     1      14.178   6.657  -2.382  1.00  0.00    -0.631 OA
BRANCH  23  25
HETATM   25  O6  UNL     1      12.979   8.805  -3.235  1.00  0.00    -0.307 OA
HETATM   26  H23 UNL     1      12.078   9.057  -3.474  1.00  0.00     0.222 HD
ENDBRANCH  23  25
BRANCH  23  27
HETATM   27  O7  UNL     1      13.715   7.127  -4.897  1.00  0.00    -0.195 OA
BRANCH  27  28
HETATM   28  P2  UNL     1      14.788   8.180  -5.424  1.00  0.00     0.401 P 
HETATM   29  O8  UNL     1      15.634   7.762  -6.581  1.00  0.00    -0.631 OA
BRANCH  28  30
HETATM   30  O9  UNL     1      13.915   9.489  -5.695  1.00  0.00    -0.307 OA
HETATM   31  H24 UNL     1      13.296   9.721  -4.959  1.00  0.00     0.222 HD
ENDBRANCH  28  30
BRANCH  28  32
HETATM   32  O10 UNL     1      15.576   8.620  -4.106  1.00  0.00    -0.294 OA
BRANCH  32  33
HETATM   33  C14 UNL     1      16.290   9.829  -4.086  1.00  0.00     0.215 C 
BRANCH  33  34
HETATM   34  C15 UNL     1      16.918   9.930  -2.697  1.00  0.00     0.180 C 
HETATM   35  C16 UNL     1      16.502   8.731  -1.855  1.00  0.00     0.197 C 
HETATM   36  C17 UNL     1      15.724   9.326  -0.696  1.00  0.00     0.199 C 
HETATM   37  C18 UNL     1      16.300  10.742  -0.615  1.00  0.00     0.262 C 
HETATM   38  O11 UNL     1      16.528  11.114  -1.992  1.00  0.00    -0.353 OA
BRANCH  35  39
HETATM   39  O13 UNL     1      17.684   8.065  -1.422  1.00  0.00    -0.286 OA
BRANCH  39  40
HETATM   40  P3  UNL     1      17.711   6.484  -1.663  1.00  0.00     0.391 P 
HETATM   41  O14 UNL     1      19.059   5.869  -1.472  1.00  0.00    -0.632 OA
BRANCH  40  42
HETATM   42  O15 UNL     1      17.053   6.392  -3.118  1.00  0.00    -0.307 OA
HETATM   43  H36 UNL     1      16.109   6.111  -3.057  1.00  0.00     0.222 HD
ENDBRANCH  40  42
BRANCH  40  44
HETATM   44  O16 UNL     1      16.538   6.000  -0.704  1.00  0.00    -0.307 OA
HETATM   45  H37 UNL     1      16.666   5.094  -0.380  1.00  0.00     0.222 HD
ENDBRANCH  40  44
ENDBRANCH  39  40
ENDBRANCH  35  39
BRANCH  36  46
HETATM   46  O12 UNL     1      15.851   8.499   0.463  1.00  0.00    -0.388 OA
HETATM   47  H35 UNL     1      14.933   8.317   0.776  1.00  0.00     0.210 HD
ENDBRANCH  36  46
BRANCH  37  48
HETATM   48  N3  UNL     1      15.373  11.687  -0.024  1.00  0.00    -0.297 N 
HETATM   49  C19 UNL     1      15.517  12.359   1.167  1.00  0.00     0.188 A 
HETATM   50  N4  UNL     1      14.560  13.241   1.361  1.00  0.00    -0.346 N 
HETATM   51  C20 UNL     1      13.759  13.138   0.237  1.00  0.00     0.116 A 
HETATM   52  H4  UNL     1      14.437  13.862   2.160  1.00  0.00     0.167 HD
HETATM   53  C21 UNL     1      12.609  13.832  -0.179  1.00  0.00     0.109 A 
HETATM   54  C23 UNL     1      14.229  12.152  -0.610  1.00  0.00     0.142 A 
HETATM   55  N5  UNL     1      12.032  13.484  -1.356  1.00  0.00    -0.341 N 
HETATM   56  C22 UNL     1      12.588  12.484  -2.068  1.00  0.00     0.183 A 
HETATM   57  H5  UNL     1      11.199  13.967  -1.692  1.00  0.00     0.167 HD
HETATM   58  N6  UNL     1      13.687  11.758  -1.776  1.00  0.00    -0.336 N 
HETATM   59  H6  UNL     1      14.057  11.009  -2.362  1.00  0.00     0.168 HD
BRANCH  53  60
HETATM   60  N7  UNL     1      12.025  14.851   0.556  1.00  0.00    -0.287 NA
HETATM   61  H33 UNL     1      12.220  14.811   1.555  1.00  0.00     0.125 HD
HETATM   62  H34 UNL     1      11.068  15.034   0.286  1.00  0.00     0.125 HD
ENDBRANCH  53  60
ENDBRANCH  37  48
ENDBRANCH  33  34
ENDBRANCH  32  33
ENDBRANCH  28  32
ENDBRANCH  27  28
ENDBRANCH  23  27
ENDBRANCH  22  23
ENDBRANCH  21  22
ENDBRANCH  18  21
ENDBRANCH  17  18
BRANCH  17  63
HETATM   63  O17 UNL     1       7.563   6.244  -3.851  1.00  0.00    -0.385 OA
HETATM   64  H38 UNL     1       7.052   6.996  -4.194  1.00  0.00     0.210 HD
ENDBRANCH  17  63
ENDBRANCH  14  17
ENDBRANCH  12  13
ENDBRANCH  11  12
ENDBRANCH   8  11
ENDBRANCH   6   7
ENDBRANCH   5   6
ENDBRANCH   4   5
ENDBRANCH   2   4
TORSDOF 27
ENDMDL
MODEL 9
REMARK VINA RESULT:      -6.8      4.622     10.258
REMARK  27 active torsions:
REMARK  status: ('A' for Active; 'I' for Inactive)
REMARK    1  A    between atoms: C2_2  and  S1_4 
REMARK    2  A    between atoms: S1_4  and  C3_5 
REMARK    3  A    between atoms: C3_5  and  C4_6 
REMARK    4  A    between atoms: C4_6  and  N1_7 
REMARK       I    between atoms: N1_7  and  C5_8 
REMARK    5  A    between atoms: C5_8  and  C6_10 
REMARK    6  A    between atoms: C6_10  and  C7_11 
REMARK    7  A    between atoms: C7_11  and  N2_12 
REMARK       I    between atoms: N2_12  and  C8_13 
REMARK    8  A    between atoms: C8_13  and  C9_15 
REMARK    9  A    between atoms: C9_15  and  C10_16 
REMARK   10  A    between atoms: C9_15  and  O17_54 
REMARK   11  A    between atoms: C10_16  and  C13_19 
REMARK   12  A    between atoms: C13_19  and  O4_20 
REMARK   13  A    between atoms: O4_20  and  P1_21 
REMARK   14  A    between atoms: P1_21  and  O6_23 
REMARK   15  A    between atoms: P1_21  and  O7_24 
REMARK   16  A    between atoms: O7_24  and  P2_25 
REMARK   17  A    between atoms: P2_25  and  O9_27 
REMARK   18  A    between atoms: P2_25  and  O10_28 
REMARK   19  A    between atoms: O10_28  and  C14_29 
REMARK   20  A    between atoms: C14_29  and  C15_30 
REMARK   21  A    between atoms: C16_31  and  O13_49 
REMARK   22  A    between atoms: C17_32  and  O12_48 
REMARK   23  A    between atoms: C18_33  and  N3_35 
REMARK   24  A    between atoms: C21_40  and  N7_47 
REMARK   25  A    between atoms: O13_49  and  P3_50 
REMARK   26  A    between atoms: P3_50  and  O15_52 
REMARK   27  A    between atoms: P3_50  and  O16_53 
ROOT
HETATM    1  C1  UNL     1      20.084  11.556  -2.340  1.00  0.00     0.104 C 
HETATM    2  C2  UNL     1      19.839  12.971  -2.765  1.00  0.00     0.182 C 
HETATM    3  O1  UNL     1      20.462  13.929  -2.314  1.00  0.00    -0.286 OA
ENDROOT
BRANCH   2   4
HETATM    4  S1  UNL     1      18.547  13.161  -3.943  1.00  0.00    -0.091 SA
BRANCH   4   5
HETATM    5  C3  UNL     1      17.747  11.529  -3.811  1.00  0.00     0.102 C 
BRANCH   5   6
HETATM    6  C4  UNL     1      16.236  11.616  -4.038  1.00  0.00     0.133 C 
BRANCH   6   7
HETATM    7  N1  UNL     1      15.472  11.179  -2.888  1.00  0.00    -0.360 N 
HETATM    8  C5  UNL     1      14.115  11.388  -2.798  1.00  0.00     0.219 C 
HETATM    9  O2  UNL     1      13.488  12.021  -3.639  1.00  0.00    -0.274 OA
HETATM   10  H8  UNL     1      15.953  10.701  -2.137  1.00  0.00     0.162 HD
BRANCH   8  11
HETATM   11  C6  UNL     1      13.501  10.805  -1.543  1.00  0.00     0.122 C 
BRANCH  11  12
HETATM   12  C7  UNL     1      14.137  11.378  -0.277  1.00  0.00     0.132 C 
BRANCH  12  13
HETATM   13  N2  UNL     1      14.872  10.391   0.485  1.00  0.00    -0.358 N 
HETATM   14  C8  UNL     1      14.618  10.221   1.833  1.00  0.00     0.247 C 
HETATM   15  O3  UNL     1      13.865  10.961   2.453  1.00  0.00    -0.271 OA
HETATM   16  H13 UNL     1      15.178   9.572  -0.038  1.00  0.00     0.162 HD
BRANCH  14  17
HETATM   17  C9  UNL     1      15.336   9.026   2.479  1.00  0.00     0.219 C 
BRANCH  17  18
HETATM   18  C10 UNL     1      16.763   9.339   3.001  1.00  0.00     0.009 C 
HETATM   19  C11 UNL     1      17.056  10.847   3.016  1.00  0.00     0.020 C 
HETATM   20  C12 UNL     1      16.973   8.800   4.430  1.00  0.00     0.020 C 
BRANCH  18  21
HETATM   21  C13 UNL     1      17.741   8.627   2.023  1.00  0.00     0.192 C 
BRANCH  21  22
HETATM   22  O4  UNL     1      17.678   9.160   0.715  1.00  0.00    -0.296 OA
BRANCH  22  23
HETATM   23  P1  UNL     1      17.821   8.257  -0.601  1.00  0.00     0.401 P 
HETATM   24  O5  UNL     1      19.227   8.106  -1.090  1.00  0.00    -0.631 OA
BRANCH  23  25
HETATM   25  O6  UNL     1      16.815   8.870  -1.698  1.00  0.00    -0.307 OA
HETATM   26  H23 UNL     1      16.371   8.180  -2.208  1.00  0.00     0.222 HD
ENDBRANCH  23  25
BRANCH  23  27
HETATM   27  O7  UNL     1      17.092   6.889  -0.243  1.00  0.00    -0.195 OA
BRANCH  27  28
HETATM   28  P2  UNL     1      16.289   6.122  -1.385  1.00  0.00     0.401 P 
HETATM   29  O8  UNL     1      17.018   5.854  -2.661  1.00  0.00    -0.631 OA
BRANCH  28  30
HETATM   30  O9  UNL     1      15.766   4.807  -0.646  1.00  0.00    -0.307 OA
HETATM   31  H24 UNL     1      16.163   4.661   0.248  1.00  0.00     0.222 HD
ENDBRANCH  28  30
BRANCH  28  32
HETATM   32  O10 UNL     1      14.927   6.944  -1.519  1.00  0.00    -0.294 OA
BRANCH  32  33
HETATM   33  C14 UNL     1      13.971   6.569  -2.476  1.00  0.00     0.215 C 
BRANCH  33  34
HETATM   34  C15 UNL     1      13.753   7.794  -3.363  1.00  0.00     0.180 C 
HETATM   35  C16 UNL     1      12.684   7.491  -4.405  1.00  0.00     0.197 C 
HETATM   36  C17 UNL     1      13.399   7.618  -5.737  1.00  0.00     0.199 C 
HETATM   37  C18 UNL     1      14.547   8.572  -5.398  1.00  0.00     0.262 C 
HETATM   38  O11 UNL     1      14.938   8.198  -4.058  1.00  0.00    -0.353 OA
BRANCH  35  39
HETATM   39  O13 UNL     1      11.643   8.452  -4.262  1.00  0.00    -0.286 OA
BRANCH  39  40
HETATM   40  P3  UNL     1      10.191   7.854  -3.962  1.00  0.00     0.391 P 
HETATM   41  O14 UNL     1      10.155   6.907  -2.807  1.00  0.00    -0.632 OA
BRANCH  40  42
HETATM   42  O15 UNL     1       9.801   7.280  -5.403  1.00  0.00    -0.307 OA
HETATM   43  H36 UNL     1       9.267   6.454  -5.317  1.00  0.00     0.222 HD
ENDBRANCH  40  42
BRANCH  40  44
HETATM   44  O16 UNL     1       9.321   9.181  -3.854  1.00  0.00    -0.307 OA
HETATM   45  H37 UNL     1       9.750   9.947  -4.266  1.00  0.00     0.222 HD
ENDBRANCH  40  44
ENDBRANCH  39  40
ENDBRANCH  35  39
BRANCH  36  46
HETATM   46  O12 UNL     1      12.483   8.028  -6.755  1.00  0.00    -0.388 OA
HETATM   47  H35 UNL     1      12.495   9.015  -6.759  1.00  0.00     0.210 HD
ENDBRANCH  36  46
BRANCH  37  48
HETATM   48  N3  UNL     1      15.686   8.409  -6.279  1.00  0.00    -0.297 N 
HETATM   49  C19 UNL     1      15.688   8.464  -7.653  1.00  0.00     0.188 A 
HETATM   50  N4  UNL     1      16.903   8.403  -8.153  1.00  0.00    -0.346 N 
HETATM   51  C20 UNL     1      17.730   8.308  -7.047  1.00  0.00     0.116 A 
HETATM   52  H4  UNL     1      17.176   8.422  -9.135  1.00  0.00     0.167 HD
HETATM   53  C21 UNL     1      19.127   8.253  -6.904  1.00  0.00     0.109 A 
HETATM   54  C23 UNL     1      16.986   8.271  -5.882  1.00  0.00     0.142 A 
HETATM   55  N5  UNL     1      19.649   8.149  -5.657  1.00  0.00    -0.341 N 
HETATM   56  C22 UNL     1      18.799   8.099  -4.612  1.00  0.00     0.183 A 
HETATM   57  H5  UNL     1      20.658   8.110  -5.514  1.00  0.00     0.167 HD
HETATM   58  N6  UNL     1      17.451   8.153  -4.625  1.00  0.00    -0.336 N 
HETATM   59  H6  UNL     1      16.863   8.110  -3.793  1.00  0.00     0.168 HD
BRANCH  53  60
HETATM   60  N7  UNL     1      20.005   8.288  -7.976  1.00  0.00    -0.287 NA
HETATM   61  H33 UNL     1      19.563   8.473  -8.874  1.00  0.00     0.125 HD
HETATM   62  H34 UNL     1      20.690   7.545  -7.950  1.00  0.00     0.125 HD
ENDBRANCH  53  60
ENDBRANCH  37  48
ENDBRANCH  33  34
ENDBRANCH  32  33
ENDBRANCH  28  32
ENDBRANCH  27  28
ENDBRANCH  23  27
ENDBRANCH  22  23
ENDBRANCH  21  22
ENDBRANCH  18  21
ENDBRANCH  17  18
BRANCH  17  63
HETATM   63  O17 UNL     1      14.558   8.511   3.565  1.00  0.00    -0.385 OA
HETATM   64  H38 UNL     1      13.645   8.393   3.253  1.00  0.00     0.210 HD
ENDBRANCH  17  63
ENDBRANCH  14  17
ENDBRANCH  12  13
ENDBRANCH  11  12
ENDBRANCH   8  11
ENDBRANCH   6   7
ENDBRANCH   5   6
ENDBRANCH   4   5
ENDBRANCH   2   4
TORSDOF 27
ENDMDL
MODEL 10
REMARK VINA RESULT:      -6.7      3.286      8.678
REMARK  27 active torsions:
REMARK  status: ('A' for Active; 'I' for Inactive)
REMARK    1  A    between atoms: C2_2  and  S1_4 
REMARK    2  A    between atoms: S1_4  and  C3_5 
REMARK    3  A    between atoms: C3_5  and  C4_6 
REMARK    4  A    between atoms: C4_6  and  N1_7 
REMARK       I    between atoms: N1_7  and  C5_8 
REMARK    5  A    between atoms: C5_8  and  C6_10 
REMARK    6  A    between atoms: C6_10  and  C7_11 
REMARK    7  A    between atoms: C7_11  and  N2_12 
REMARK       I    between atoms: N2_12  and  C8_13 
REMARK    8  A    between atoms: C8_13  and  C9_15 
REMARK    9  A    between atoms: C9_15  and  C10_16 
REMARK   10  A    between atoms: C9_15  and  O17_54 
REMARK   11  A    between atoms: C10_16  and  C13_19 
REMARK   12  A    between atoms: C13_19  and  O4_20 
REMARK   13  A    between atoms: O4_20  and  P1_21 
REMARK   14  A    between atoms: P1_21  and  O6_23 
REMARK   15  A    between atoms: P1_21  and  O7_24 
REMARK   16  A    between atoms: O7_24  and  P2_25 
REMARK   17  A    between atoms: P2_25  and  O9_27 
REMARK   18  A    between atoms: P2_25  and  O10_28 
REMARK   19  A    between atoms: O10_28  and  C14_29 
REMARK   20  A    between atoms: C14_29  and  C15_30 
REMARK   21  A    between atoms: C16_31  and  O13_49 
REMARK   22  A    between atoms: C17_32  and  O12_48 
REMARK   23  A    between atoms: C18_33  and  N3_35 
REMARK   24  A    between atoms: C21_40  and  N7_47 
REMARK   25  A    between atoms: O13_49  and  P3_50 
REMARK   26  A    between atoms: P3_50  and  O15_52 
REMARK   27  A    between atoms: P3_50  and  O16_53 
ROOT
HETATM    1  C1  UNL     1      12.499  12.166   5.821  1.00  0.00     0.104 C 
HETATM    2  C2  UNL     1      11.652  12.848   4.791  1.00  0.00     0.182 C 
HETATM    3  O1  UNL     1      10.532  13.296   5.027  1.00  0.00    -0.286 OA
ENDROOT
BRANCH   2   4
HETATM    4  S1  UNL     1      12.375  12.922   3.190  1.00  0.00    -0.091 SA
BRANCH   4   5
HETATM    5  C3  UNL     1      13.878  13.884   3.558  1.00  0.00     0.102 C 
BRANCH   5   6
HETATM    6  C4  UNL     1      15.043  13.493   2.647  1.00  0.00     0.133 C 
BRANCH   6   7
HETATM    7  N1  UNL     1      14.920  12.146   2.129  1.00  0.00    -0.360 N 
HETATM    8  C5  UNL     1      15.491  11.070   2.768  1.00  0.00     0.219 C 
HETATM    9  O2  UNL     1      16.200  11.191   3.760  1.00  0.00    -0.274 OA
HETATM   10  H8  UNL     1      14.393  11.998   1.279  1.00  0.00     0.162 HD
BRANCH   8  11
HETATM   11  C6  UNL     1      15.197   9.747   2.093  1.00  0.00     0.122 C 
BRANCH  11  12
HETATM   12  C7  UNL     1      14.929   9.917   0.598  1.00  0.00     0.132 C 
BRANCH  12  13
HETATM   13  N2  UNL     1      16.104   9.696  -0.218  1.00  0.00    -0.358 N 
HETATM   14  C8  UNL     1      16.860  10.768  -0.656  1.00  0.00     0.247 C 
HETATM   15  O3  UNL     1      16.510  11.928  -0.478  1.00  0.00    -0.271 OA
HETATM   16  H13 UNL     1      16.593   8.818  -0.054  1.00  0.00     0.162 HD
BRANCH  14  17
HETATM   17  C9  UNL     1      18.172  10.387  -1.358  1.00  0.00     0.219 C 
BRANCH  17  18
HETATM   18  C10 UNL     1      19.339  10.041  -0.397  1.00  0.00     0.009 C 
HETATM   19  C11 UNL     1      20.606  10.851  -0.709  1.00  0.00     0.020 C 
HETATM   20  C12 UNL     1      18.957  10.305   1.074  1.00  0.00     0.020 C 
BRANCH  18  21
HETATM   21  C13 UNL     1      19.624   8.525  -0.601  1.00  0.00     0.192 C 
BRANCH  21  22
HETATM   22  O4  UNL     1      18.710   7.706   0.100  1.00  0.00    -0.296 OA
BRANCH  22  23
HETATM   23  P1  UNL     1      18.026   6.410  -0.551  1.00  0.00     0.401 P 
HETATM   24  O5  UNL     1      18.133   5.176   0.287  1.00  0.00    -0.631 OA
BRANCH  23  25
HETATM   25  O6  UNL     1      18.647   6.249  -2.028  1.00  0.00    -0.307 OA
HETATM   26  H23 UNL     1      18.024   5.836  -2.639  1.00  0.00     0.222 HD
ENDBRANCH  23  25
BRANCH  23  27
HETATM   27  O7  UNL     1      16.537   6.858  -0.890  1.00  0.00    -0.195 OA
BRANCH  27  28
HETATM   28  P2  UNL     1      15.805   6.208  -2.146  1.00  0.00     0.401 P 
HETATM   29  O8  UNL     1      16.296   4.872  -2.600  1.00  0.00    -0.631 OA
BRANCH  28  30
HETATM   30  O9  UNL     1      14.265   6.226  -1.723  1.00  0.00    -0.307 OA
HETATM   31  H24 UNL     1      13.686   5.651  -2.281  1.00  0.00     0.222 HD
ENDBRANCH  28  30
BRANCH  28  32
HETATM   32  O10 UNL     1      15.821   7.367  -3.245  1.00  0.00    -0.294 OA
BRANCH  32  33
HETATM   33  C14 UNL     1      15.753   7.043  -4.609  1.00  0.00     0.215 C 
BRANCH  33  34
HETATM   34  C15 UNL     1      14.525   7.768  -5.159  1.00  0.00     0.180 C 
HETATM   35  C16 UNL     1      14.040   8.799  -4.149  1.00  0.00     0.197 C 
HETATM   36  C17 UNL     1      12.642   8.344  -3.776  1.00  0.00     0.199 C 
HETATM   37  C18 UNL     1      12.222   7.546  -5.013  1.00  0.00     0.262 C 
HETATM   38  O11 UNL     1      13.433   6.884  -5.439  1.00  0.00    -0.353 OA
BRANCH  35  39
HETATM   39  O13 UNL     1      14.038  10.073  -4.785  1.00  0.00    -0.286 OA
BRANCH  39  40
HETATM   40  P3  UNL     1      14.960  11.186  -4.102  1.00  0.00     0.391 P 
HETATM   41  O14 UNL     1      16.424  10.900  -4.201  1.00  0.00    -0.632 OA
BRANCH  40  42
HETATM   42  O15 UNL     1      14.316  11.252  -2.639  1.00  0.00    -0.307 OA
HETATM   43  H36 UNL     1      13.769  10.449  -2.462  1.00  0.00     0.222 HD
ENDBRANCH  40  42
BRANCH  40  44
HETATM   44  O16 UNL     1      14.420  12.511  -4.795  1.00  0.00    -0.307 OA
HETATM   45  H37 UNL     1      14.346  13.256  -4.177  1.00  0.00     0.222 HD
ENDBRANCH  40  44
ENDBRANCH  39  40
ENDBRANCH  35  39
BRANCH  36  46
HETATM   46  O12 UNL     1      11.834   9.467  -3.414  1.00  0.00    -0.388 OA
HETATM   47  H35 UNL     1      11.288   9.180  -2.644  1.00  0.00     0.210 HD
ENDBRANCH  36  46
BRANCH  37  48
HETATM   48  N3  UNL     1      11.222   6.540  -4.713  1.00  0.00    -0.297 N 
HETATM   49  C19 UNL     1      11.343   5.178  -4.861  1.00  0.00     0.188 A 
HETATM   50  N4  UNL     1      10.304   4.530  -4.382  1.00  0.00    -0.346 N 
HETATM   51  C20 UNL     1       9.470   5.521  -3.894  1.00  0.00     0.116 A 
HETATM   52  H4  UNL     1      10.147   3.522  -4.371  1.00  0.00     0.167 HD
HETATM   53  C21 UNL     1       8.234   5.482  -3.226  1.00  0.00     0.109 A 
HETATM   54  C23 UNL     1      10.009   6.773  -4.128  1.00  0.00     0.142 A 
HETATM   55  N5  UNL     1       7.648   6.653  -2.877  1.00  0.00    -0.341 N 
HETATM   56  C22 UNL     1       8.279   7.802  -3.192  1.00  0.00     0.183 A 
HETATM   57  H5  UNL     1       6.752   6.665  -2.389  1.00  0.00     0.167 HD
HETATM   58  N6  UNL     1       9.463   7.962  -3.818  1.00  0.00    -0.336 N 
HETATM   59  H6  UNL     1       9.889   8.865  -4.028  1.00  0.00     0.168 HD
BRANCH  53  60
HETATM   60  N7  UNL     1       7.573   4.305  -2.913  1.00  0.00    -0.287 NA
HETATM   61  H33 UNL     1       8.165   3.477  -2.921  1.00  0.00     0.125 HD
HETATM   62  H34 UNL     1       6.672   4.225  -3.366  1.00  0.00     0.125 HD
ENDBRANCH  53  60
ENDBRANCH  37  48
ENDBRANCH  33  34
ENDBRANCH  32  33
ENDBRANCH  28  32
ENDBRANCH  27  28
ENDBRANCH  23  27
ENDBRANCH  22  23
ENDBRANCH  21  22
ENDBRANCH  18  21
ENDBRANCH  17  18
BRANCH  17  63
HETATM   63  O17 UNL     1      17.958   9.274  -2.233  1.00  0.00    -0.385 OA
HETATM   64  H38 UNL     1      17.073   9.364  -2.624  1.00  0.00     0.210 HD
ENDBRANCH  17  63
ENDBRANCH  14  17
ENDBRANCH  12  13
ENDBRANCH  11  12
ENDBRANCH   8  11
ENDBRANCH   6   7
ENDBRANCH   5   6
ENDBRANCH   4   5
ENDBRANCH   2   4
TORSDOF 27
ENDMDL
MODEL 11
REMARK VINA RESULT:      -6.6      3.131      8.939
REMARK  27 active torsions:
REMARK  status: ('A' for Active; 'I' for Inactive)
REMARK    1  A    between atoms: C2_2  and  S1_4 
REMARK    2  A    between atoms: S1_4  and  C3_5 
REMARK    3  A    between atoms: C3_5  and  C4_6 
REMARK    4  A    between atoms: C4_6  and  N1_7 
REMARK       I    between atoms: N1_7  and  C5_8 
REMARK    5  A    between atoms: C5_8  and  C6_10 
REMARK    6  A    between atoms: C6_10  and  C7_11 
REMARK    7  A    between atoms: C7_11  and  N2_12 
REMARK       I    between atoms: N2_12  and  C8_13 
REMARK    8  A    between atoms: C8_13  and  C9_15 
REMARK    9  A    between atoms: C9_15  and  C10_16 
REMARK   10  A    between atoms: C9_15  and  O17_54 
REMARK   11  A    between atoms: C10_16  and  C13_19 
REMARK   12  A    between atoms: C13_19  and  O4_20 
REMARK   13  A    between atoms: O4_20  and  P1_21 
REMARK   14  A    between atoms: P1_21  and  O6_23 
REMARK   15  A    between atoms: P1_21  and  O7_24 
REMARK   16  A    between atoms: O7_24  and  P2_25 
REMARK   17  A    between atoms: P2_25  and  O9_27 
REMARK   18  A    between atoms: P2_25  and  O10_28 
REMARK   19  A    between atoms: O10_28  and  C14_29 
REMARK   20  A    between atoms: C14_29  and  C15_30 
REMARK   21  A    between atoms: C16_31  and  O13_49 
REMARK   22  A    between atoms: C17_32  and  O12_48 
REMARK   23  A    between atoms: C18_33  and  N3_35 
REMARK   24  A    between atoms: C21_40  and  N7_47 
REMARK   25  A    between atoms: O13_49  and  P3_50 
REMARK   26  A    between atoms: P3_50  and  O15_52 
REMARK   27  A    between atoms: P3_50  and  O16_53 
ROOT
HETATM    1  C1  UNL     1      16.173  12.507   1.960  1.00  0.00     0.104 C 
HETATM    2  C2  UNL     1      14.769  12.293   2.437  1.00  0.00     0.182 C 
HETATM    3  O1  UNL     1      14.170  11.228   2.315  1.00  0.00    -0.286 OA
ENDROOT
BRANCH   2   4
HETATM    4  S1  UNL     1      14.024  13.713   3.160  1.00  0.00    -0.091 SA
BRANCH   4   5
HETATM    5  C3  UNL     1      12.344  13.077   3.464  1.00  0.00     0.102 C 
BRANCH   5   6
HETATM    6  C4  UNL     1      12.143  12.676   4.927  1.00  0.00     0.133 C 
BRANCH   6   7
HETATM    7  N1  UNL     1      12.991  11.572   5.326  1.00  0.00    -0.360 N 
HETATM    8  C5  UNL     1      12.547  10.270   5.295  1.00  0.00     0.219 C 
HETATM    9  O2  UNL     1      11.393   9.973   5.009  1.00  0.00    -0.274 OA
HETATM   10  H8  UNL     1      13.936  11.768   5.627  1.00  0.00     0.162 HD
BRANCH   8  11
HETATM   11  C6  UNL     1      13.606   9.266   5.697  1.00  0.00     0.122 C 
BRANCH  11  12
HETATM   12  C7  UNL     1      13.881   8.252   4.588  1.00  0.00     0.132 C 
BRANCH  12  13
HETATM   13  N2  UNL     1      14.786   8.751   3.574  1.00  0.00    -0.358 N 
HETATM   14  C8  UNL     1      16.134   8.449   3.632  1.00  0.00     0.247 C 
HETATM   15  O3  UNL     1      16.629   7.862   4.586  1.00  0.00    -0.271 OA
HETATM   16  H13 UNL     1      14.378   8.883   2.650  1.00  0.00     0.162 HD
BRANCH  14  17
HETATM   17  C9  UNL     1      16.947   8.889   2.406  1.00  0.00     0.219 C 
BRANCH  17  18
HETATM   18  C10 UNL     1      18.122   7.944   2.041  1.00  0.00     0.009 C 
HETATM   19  C11 UNL     1      19.059   8.564   0.993  1.00  0.00     0.020 C 
HETATM   20  C12 UNL     1      18.966   7.587   3.281  1.00  0.00     0.020 C 
BRANCH  18  21
HETATM   21  C13 UNL     1      17.470   6.656   1.461  1.00  0.00     0.192 C 
BRANCH  21  22
HETATM   22  O4  UNL     1      17.116   6.797   0.100  1.00  0.00    -0.296 OA
BRANCH  22  23
HETATM   23  P1  UNL     1      17.284   5.616  -0.971  1.00  0.00     0.401 P 
HETATM   24  O5  UNL     1      16.618   4.335  -0.579  1.00  0.00    -0.631 OA
BRANCH  23  25
HETATM   25  O6  UNL     1      18.862   5.467  -1.254  1.00  0.00    -0.307 OA
HETATM   26  H23 UNL     1      19.230   4.675  -0.840  1.00  0.00     0.222 HD
ENDBRANCH  23  25
BRANCH  23  27
HETATM   27  O7  UNL     1      16.780   6.234  -2.347  1.00  0.00    -0.195 OA
BRANCH  27  28
HETATM   28  P2  UNL     1      17.624   7.406  -3.020  1.00  0.00     0.401 P 
HETATM   29  O8  UNL     1      18.144   8.473  -2.112  1.00  0.00    -0.631 OA
BRANCH  28  30
HETATM   30  O9  UNL     1      18.761   6.624  -3.824  1.00  0.00    -0.307 OA
HETATM   31  H24 UNL     1      18.660   5.641  -3.812  1.00  0.00     0.222 HD
ENDBRANCH  28  30
BRANCH  28  32
HETATM   32  O10 UNL     1      16.702   7.904  -4.225  1.00  0.00    -0.294 OA
BRANCH  32  33
HETATM   33  C14 UNL     1      15.729   7.048  -4.764  1.00  0.00     0.215 C 
BRANCH  33  34
HETATM   34  C15 UNL     1      14.570   7.942  -5.203  1.00  0.00     0.180 C 
HETATM   35  C16 UNL     1      14.169   8.864  -4.060  1.00  0.00     0.197 C 
HETATM   36  C17 UNL     1      12.735   8.483  -3.744  1.00  0.00     0.199 C 
HETATM   37  C18 UNL     1      12.255   7.898  -5.075  1.00  0.00     0.262 C 
HETATM   38  O11 UNL     1      13.409   7.200  -5.594  1.00  0.00    -0.353 OA
BRANCH  35  39
HETATM   39  O13 UNL     1      14.278  10.208  -4.518  1.00  0.00    -0.286 OA
BRANCH  39  40
HETATM   40  P3  UNL     1      15.025  11.215  -3.526  1.00  0.00     0.391 P 
HETATM   41  O14 UNL     1      16.021  12.100  -4.203  1.00  0.00    -0.632 OA
BRANCH  40  42
HETATM   42  O15 UNL     1      15.570  10.197  -2.419  1.00  0.00    -0.307 OA
HETATM   43  H36 UNL     1      16.335   9.681  -2.767  1.00  0.00     0.222 HD
ENDBRANCH  40  42
BRANCH  40  44
HETATM   44  O16 UNL     1      13.793  11.913  -2.801  1.00  0.00    -0.307 OA
HETATM   45  H37 UNL     1      13.884  11.927  -1.835  1.00  0.00     0.222 HD
ENDBRANCH  40  44
ENDBRANCH  39  40
ENDBRANCH  35  39
BRANCH  36  46
HETATM   46  O12 UNL     1      12.024   9.611  -3.228  1.00  0.00    -0.388 OA
HETATM   47  H35 UNL     1      11.080   9.489  -3.490  1.00  0.00     0.210 HD
ENDBRANCH  36  46
BRANCH  37  48
HETATM   48  N3  UNL     1      11.173   6.950  -4.908  1.00  0.00    -0.297 N 
HETATM   49  C19 UNL     1      11.162   5.626  -5.281  1.00  0.00     0.188 A 
HETATM   50  N4  UNL     1      10.077   5.003  -4.876  1.00  0.00    -0.346 N 
HETATM   51  C20 UNL     1       9.350   5.969  -4.204  1.00  0.00     0.116 A 
HETATM   52  H4  UNL     1       9.827   4.025  -5.025  1.00  0.00     0.167 HD
HETATM   53  C21 UNL     1       8.129   5.930  -3.508  1.00  0.00     0.109 A 
HETATM   54  C23 UNL     1       9.999   7.189  -4.250  1.00  0.00     0.142 A 
HETATM   55  N5  UNL     1       7.663   7.075  -2.952  1.00  0.00    -0.341 N 
HETATM   56  C22 UNL     1       8.392   8.199  -3.098  1.00  0.00     0.183 A 
HETATM   57  H5  UNL     1       6.782   7.085  -2.437  1.00  0.00     0.167 HD
HETATM   58  N6  UNL     1       9.573   8.355  -3.730  1.00  0.00    -0.336 N 
HETATM   59  H6  UNL     1      10.077   9.239  -3.805  1.00  0.00     0.168 HD
BRANCH  53  60
HETATM   60  N7  UNL     1       7.368   4.781  -3.368  1.00  0.00    -0.287 NA
HETATM   61  H33 UNL     1       6.594   4.868  -2.713  1.00  0.00     0.125 HD
HETATM   62  H34 UNL     1       7.928   3.942  -3.302  1.00  0.00     0.125 HD
ENDBRANCH  53  60
ENDBRANCH  37  48
ENDBRANCH  33  34
ENDBRANCH  32  33
ENDBRANCH  28  32
ENDBRANCH  27  28
ENDBRANCH  23  27
ENDBRANCH  22  23
ENDBRANCH  21  22
ENDBRANCH  18  21
ENDBRANCH  17  18
BRANCH  17  63
HETATM   63  O17 UNL     1      16.090   9.011   1.265  1.00  0.00    -0.385 OA
HETATM   64  H38 UNL     1      15.488   9.758   1.418  1.00  0.00     0.210 HD
ENDBRANCH  17  63
ENDBRANCH  14  17
ENDBRANCH  12  13
ENDBRANCH  11  12
ENDBRANCH   8  11
ENDBRANCH   6   7
ENDBRANCH   5   6
ENDBRANCH   4   5
ENDBRANCH   2   4
TORSDOF 27
ENDMDL
MODEL 12
REMARK VINA RESULT:      -6.5      3.972      6.812
REMARK  27 active torsions:
REMARK  status: ('A' for Active; 'I' for Inactive)
REMARK    1  A    between atoms: C2_2  and  S1_4 
REMARK    2  A    between atoms: S1_4  and  C3_5 
REMARK    3  A    between atoms: C3_5  and  C4_6 
REMARK    4  A    between atoms: C4_6  and  N1_7 
REMARK       I    between atoms: N1_7  and  C5_8 
REMARK    5  A    between atoms: C5_8  and  C6_10 
REMARK    6  A    between atoms: C6_10  and  C7_11 
REMARK    7  A    between atoms: C7_11  and  N2_12 
REMARK       I    between atoms: N2_12  and  C8_13 
REMARK    8  A    between atoms: C8_13  and  C9_15 
REMARK    9  A    between atoms: C9_15  and  C10_16 
REMARK   10  A    between atoms: C9_15  and  O17_54 
REMARK   11  A    between atoms: C10_16  and  C13_19 
REMARK   12  A    between atoms: C13_19  and  O4_20 
REMARK   13  A    between atoms: O4_20  and  P1_21 
REMARK   14  A    between atoms: P1_21  and  O6_23 
REMARK   15  A    between atoms: P1_21  and  O7_24 
REMARK   16  A    between atoms: O7_24  and  P2_25 
REMARK   17  A    between atoms: P2_25  and  O9_27 
REMARK   18  A    between atoms: P2_25  and  O10_28 
REMARK   19  A    between atoms: O10_28  and  C14_29 
REMARK   20  A    between atoms: C14_29  and  C15_30 
REMARK   21  A    between atoms: C16_31  and  O13_49 
REMARK   22  A    between atoms: C17_32  and  O12_48 
REMARK   23  A    between atoms: C18_33  and  N3_35 
REMARK   24  A    between atoms: C21_40  and  N7_47 
REMARK   25  A    between atoms: O13_49  and  P3_50 
REMARK   26  A    between atoms: P3_50  and  O15_52 
REMARK   27  A    between atoms: P3_50  and  O16_53 
ROOT
HETATM    1  C1  UNL     1      -0.887   7.293  -1.317  1.00  0.00     0.104 C 
HETATM    2  C2  UNL     1       0.490   7.880  -1.390  1.00  0.00     0.182 C 
HETATM    3  O1  UNL     1       1.490   7.309  -0.963  1.00  0.00    -0.286 OA
ENDROOT
BRANCH   2   4
HETATM    4  S1  UNL     1       0.556   9.485  -2.106  1.00  0.00    -0.091 SA
BRANCH   4   5
HETATM    5  C3  UNL     1       2.299   9.532  -2.634  1.00  0.00     0.102 C 
BRANCH   5   6
HETATM    6  C4  UNL     1       2.970  10.858  -2.268  1.00  0.00     0.133 C 
BRANCH   6   7
HETATM    7  N1  UNL     1       4.272  10.677  -1.660  1.00  0.00    -0.360 N 
HETATM    8  C5  UNL     1       5.426  10.668  -2.409  1.00  0.00     0.219 C 
HETATM    9  O2  UNL     1       5.419  10.730  -3.633  1.00  0.00    -0.274 OA
HETATM   10  H8  UNL     1       4.329  10.562  -0.657  1.00  0.00     0.162 HD
BRANCH   8  11
HETATM   11  C6  UNL     1       6.680  10.522  -1.575  1.00  0.00     0.122 C 
BRANCH  11  12
HETATM   12  C7  UNL     1       7.900  10.188  -2.432  1.00  0.00     0.132 C 
BRANCH  12  13
HETATM   13  N2  UNL     1       7.928   8.807  -2.867  1.00  0.00    -0.358 N 
HETATM   14  C8  UNL     1       9.025   8.313  -3.549  1.00  0.00     0.247 C 
HETATM   15  O3  UNL     1       9.946   9.034  -3.912  1.00  0.00    -0.271 OA
HETATM   16  H13 UNL     1       7.410   8.154  -2.283  1.00  0.00     0.162 HD
BRANCH  14  17
HETATM   17  C9  UNL     1       9.002   6.797  -3.794  1.00  0.00     0.219 C 
BRANCH  17  18
HETATM   18  C10 UNL     1       9.868   5.973  -2.805  1.00  0.00     0.009 C 
HETATM   19  C11 UNL     1       9.320   6.028  -1.372  1.00  0.00     0.020 C 
HETATM   20  C12 UNL     1       9.952   4.492  -3.226  1.00  0.00     0.020 C 
BRANCH  18  21
HETATM   21  C13 UNL     1      11.287   6.611  -2.847  1.00  0.00     0.192 C 
BRANCH  21  22
HETATM   22  O4  UNL     1      11.956   6.356  -4.065  1.00  0.00    -0.296 OA
BRANCH  22  23
HETATM   23  P1  UNL     1      12.888   7.440  -4.790  1.00  0.00     0.401 P 
HETATM   24  O5  UNL     1      12.310   7.996  -6.053  1.00  0.00    -0.631 OA
BRANCH  23  25
HETATM   25  O6  UNL     1      14.333   6.758  -4.982  1.00  0.00    -0.307 OA
HETATM   26  H23 UNL     1      14.264   5.823  -5.215  1.00  0.00     0.222 HD
ENDBRANCH  23  25
BRANCH  23  27
HETATM   27  O7  UNL     1      13.205   8.525  -3.670  1.00  0.00    -0.195 OA
BRANCH  27  28
HETATM   28  P2  UNL     1      14.495   9.445  -3.833  1.00  0.00     0.401 P 
HETATM   29  O8  UNL     1      15.821   8.758  -3.827  1.00  0.00    -0.631 OA
BRANCH  28  30
HETATM   30  O9  UNL     1      14.193  10.268  -5.168  1.00  0.00    -0.307 OA
HETATM   31  H24 UNL     1      14.293   9.741  -5.998  1.00  0.00     0.222 HD
ENDBRANCH  28  30
BRANCH  28  32
HETATM   32  O10 UNL     1      14.296  10.587  -2.733  1.00  0.00    -0.294 OA
BRANCH  32  33
HETATM   33  C14 UNL     1      13.073  11.269  -2.643  1.00  0.00     0.215 C 
BRANCH  33  34
HETATM   34  C15 UNL     1      12.727  11.331  -1.157  1.00  0.00     0.180 C 
HETATM   35  C16 UNL     1      13.177  12.665  -0.577  1.00  0.00     0.197 C 
HETATM   36  C17 UNL     1      14.209  12.300   0.472  1.00  0.00     0.199 C 
HETATM   37  C18 UNL     1      13.795  10.876   0.850  1.00  0.00     0.262 C 
HETATM   38  O11 UNL     1      13.351  10.292  -0.394  1.00  0.00    -0.353 OA
BRANCH  35  39
HETATM   39  O13 UNL     1      12.039  13.307  -0.011  1.00  0.00    -0.286 OA
BRANCH  39  40
HETATM   40  P3  UNL     1      11.347  14.418  -0.928  1.00  0.00     0.391 P 
HETATM   41  O14 UNL     1      10.752  15.552  -0.156  1.00  0.00    -0.632 OA
BRANCH  40  42
HETATM   42  O15 UNL     1      10.355  13.513  -1.798  1.00  0.00    -0.307 OA
HETATM   43  H36 UNL     1      10.771  13.267  -2.657  1.00  0.00     0.222 HD
ENDBRANCH  40  42
BRANCH  40  44
HETATM   44  O16 UNL     1      12.517  14.757  -1.950  1.00  0.00    -0.307 OA
HETATM   45  H37 UNL     1      12.624  15.710  -2.097  1.00  0.00     0.222 HD
ENDBRANCH  40  44
ENDBRANCH  39  40
ENDBRANCH  35  39
BRANCH  36  46
HETATM   46  O12 UNL     1      14.224  13.278   1.515  1.00  0.00    -0.388 OA
HETATM   47  H35 UNL     1      14.304  14.156   1.072  1.00  0.00     0.210 HD
ENDBRANCH  36  46
BRANCH  37  48
HETATM   48  N3  UNL     1      14.901  10.093   1.364  1.00  0.00    -0.297 N 
HETATM   49  C19 UNL     1      15.021   9.548   2.622  1.00  0.00     0.188 A 
HETATM   50  N4  UNL     1      16.086   8.785   2.735  1.00  0.00    -0.346 N 
HETATM   51  C20 UNL     1      16.684   8.834   1.489  1.00  0.00     0.116 A 
HETATM   52  H4  UNL     1      16.401   8.272   3.558  1.00  0.00     0.167 HD
HETATM   53  C21 UNL     1      17.822   8.206   0.953  1.00  0.00     0.109 A 
HETATM   54  C23 UNL     1      15.982   9.672   0.641  1.00  0.00     0.142 A 
HETATM   55  N5  UNL     1      18.165   8.471  -0.331  1.00  0.00    -0.341 N 
HETATM   56  C22 UNL     1      17.399   9.329  -1.033  1.00  0.00     0.183 A 
HETATM   57  H5  UNL     1      18.982   8.031  -0.756  1.00  0.00     0.167 HD
HETATM   58  N6  UNL     1      16.288   9.980  -0.631  1.00  0.00    -0.336 N 
HETATM   59  H6  UNL     1      15.750  10.621  -1.216  1.00  0.00     0.168 HD
BRANCH  53  60
HETATM   60  N7  UNL     1      18.623   7.334   1.674  1.00  0.00    -0.287 NA
HETATM   61  H33 UNL     1      18.174   6.938   2.498  1.00  0.00     0.125 HD
HETATM   62  H34 UNL     1      19.569   7.670   1.788  1.00  0.00     0.125 HD
ENDBRANCH  53  60
ENDBRANCH  37  48
ENDBRANCH  33  34
ENDBRANCH  32  33
ENDBRANCH  28  32
ENDBRANCH  27  28
ENDBRANCH  23  27
ENDBRANCH  22  23
ENDBRANCH  21  22
ENDBRANCH  18  21
ENDBRANCH  17  18
BRANCH  17  63
HETATM   63  O17 UNL     1       7.657   6.309  -3.735  1.00  0.00    -0.385 OA
HETATM   64  H38 UNL     1       7.058   7.055  -3.903  1.00  0.00     0.210 HD
ENDBRANCH  17  63
ENDBRANCH  14  17
ENDBRANCH  12  13
ENDBRANCH  11  12
ENDBRANCH   8  11
ENDBRANCH   6   7
ENDBRANCH   5   6
ENDBRANCH   4   5
ENDBRANCH   2   4
TORSDOF 27
ENDMDL
MODEL 13
REMARK VINA RESULT:      -6.5      2.966      9.447
REMARK  27 active torsions:
REMARK  status: ('A' for Active; 'I' for Inactive)
REMARK    1  A    between atoms: C2_2  and  S1_4 
REMARK    2  A    between atoms: S1_4  and  C3_5 
REMARK    3  A    between atoms: C3_5  and  C4_6 
REMARK    4  A    between atoms: C4_6  and  N1_7 
REMARK       I    between atoms: N1_7  and  C5_8 
REMARK    5  A    between atoms: C5_8  and  C6_10 
REMARK    6  A    between atoms: C6_10  and  C7_11 
REMARK    7  A    between atoms: C7_11  and  N2_12 
REMARK       I    between atoms: N2_12  and  C8_13 
REMARK    8  A    between atoms: C8_13  and  C9_15 
REMARK    9  A    between atoms: C9_15  and  C10_16 
REMARK   10  A    between atoms: C9_15  and  O17_54 
REMARK   11  A    between atoms: C10_16  and  C13_19 
REMARK   12  A    between atoms: C13_19  and  O4_20 
REMARK   13  A    between atoms: O4_20  and  P1_21 
REMARK   14  A    between atoms: P1_21  and  O6_23 
REMARK   15  A    between atoms: P1_21  and  O7_24 
REMARK   16  A    between atoms: O7_24  and  P2_25 
REMARK   17  A    between atoms: P2_25  and  O9_27 
REMARK   18  A    between atoms: P2_25  and  O10_28 
REMARK   19  A    between atoms: O10_28  and  C14_29 
REMARK   20  A    between atoms: C14_29  and  C15_30 
REMARK   21  A    between atoms: C16_31  and  O13_49 
REMARK   22  A    between atoms: C17_32  and  O12_48 
REMARK   23  A    between atoms: C18_33  and  N3_35 
REMARK   24  A    between atoms: C21_40  and  N7_47 
REMARK   25  A    between atoms: O13_49  and  P3_50 
REMARK   26  A    between atoms: P3_50  and  O15_52 
REMARK   27  A    between atoms: P3_50  and  O16_53 
ROOT
HETATM    1  C1  UNL     1      18.517  10.475   3.456  1.00  0.00     0.104 C 
HETATM    2  C2  UNL     1      17.577   9.539   4.152  1.00  0.00     0.182 C 
HETATM    3  O1  UNL     1      16.521   9.153   3.657  1.00  0.00    -0.286 OA
ENDROOT
BRANCH   2   4
HETATM    4  S1  UNL     1      18.091   9.060   5.764  1.00  0.00    -0.091 SA
BRANCH   4   5
HETATM    5  C3  UNL     1      17.238  10.323   6.763  1.00  0.00     0.102 C 
BRANCH   5   6
HETATM    6  C4  UNL     1      15.881   9.830   7.267  1.00  0.00     0.133 C 
BRANCH   6   7
HETATM    7  N1  UNL     1      14.892   9.737   6.213  1.00  0.00    -0.360 N 
HETATM    8  C5  UNL     1      14.065   8.645   6.090  1.00  0.00     0.219 C 
HETATM    9  O2  UNL     1      14.166   7.656   6.807  1.00  0.00    -0.274 OA
HETATM   10  H8  UNL     1      14.808  10.502   5.557  1.00  0.00     0.162 HD
BRANCH   8  11
HETATM   11  C6  UNL     1      13.069   8.772   4.957  1.00  0.00     0.122 C 
BRANCH  11  12
HETATM   12  C7  UNL     1      11.942   9.747   5.296  1.00  0.00     0.132 C 
BRANCH  12  13
HETATM   13  N2  UNL     1      12.009  10.978   4.537  1.00  0.00    -0.358 N 
HETATM   14  C8  UNL     1      12.555  12.115   5.103  1.00  0.00     0.247 C 
HETATM   15  O3  UNL     1      12.888  12.163   6.280  1.00  0.00    -0.271 OA
HETATM   16  H13 UNL     1      12.104  10.867   3.530  1.00  0.00     0.162 HD
BRANCH  14  17
HETATM   17  C9  UNL     1      12.728  13.296   4.136  1.00  0.00     0.219 C 
BRANCH  17  18
HETATM   18  C10 UNL     1      14.067  13.296   3.353  1.00  0.00     0.009 C 
HETATM   19  C11 UNL     1      14.576  14.718   3.077  1.00  0.00     0.020 C 
HETATM   20  C12 UNL     1      15.169  12.537   4.119  1.00  0.00     0.020 C 
BRANCH  18  21
HETATM   21  C13 UNL     1      13.773  12.576   2.006  1.00  0.00     0.192 C 
BRANCH  21  22
HETATM   22  O4  UNL     1      13.413  13.479   0.980  1.00  0.00    -0.296 OA
BRANCH  22  23
HETATM   23  P1  UNL     1      13.966  13.358  -0.520  1.00  0.00     0.401 P 
HETATM   24  O5  UNL     1      15.319  13.965  -0.724  1.00  0.00    -0.631 OA
BRANCH  23  25
HETATM   25  O6  UNL     1      12.830  13.966  -1.485  1.00  0.00    -0.307 OA
HETATM   26  H23 UNL     1      12.872  14.929  -1.531  1.00  0.00     0.222 HD
ENDBRANCH  23  25
BRANCH  23  27
HETATM   27  O7  UNL     1      13.873  11.809  -0.870  1.00  0.00    -0.195 OA
BRANCH  27  28
HETATM   28  P2  UNL     1      12.851  11.334  -1.996  1.00  0.00     0.401 P 
HETATM   29  O8  UNL     1      11.404  11.621  -1.761  1.00  0.00    -0.631 OA
BRANCH  28  30
HETATM   30  O9  UNL     1      13.439  11.993  -3.326  1.00  0.00    -0.307 OA
HETATM   31  H24 UNL     1      14.148  11.460  -3.761  1.00  0.00     0.222 HD
ENDBRANCH  28  30
BRANCH  28  32
HETATM   32  O10 UNL     1      13.228   9.801  -2.236  1.00  0.00    -0.294 OA
BRANCH  32  33
HETATM   33  C14 UNL     1      14.547   9.363  -2.042  1.00  0.00     0.215 C 
BRANCH  33  34
HETATM   34  C15 UNL     1      14.763   8.212  -3.024  1.00  0.00     0.180 C 
HETATM   35  C16 UNL     1      14.983   8.765  -4.426  1.00  0.00     0.197 C 
HETATM   36  C17 UNL     1      13.828   8.216  -5.241  1.00  0.00     0.199 C 
HETATM   37  C18 UNL     1      13.458   6.949  -4.466  1.00  0.00     0.262 C 
HETATM   38  O11 UNL     1      13.653   7.309  -3.080  1.00  0.00    -0.353 OA
BRANCH  35  39
HETATM   39  O13 UNL     1      16.242   8.292  -4.893  1.00  0.00    -0.286 OA
BRANCH  39  40
HETATM   40  P3  UNL     1      17.515   9.135  -4.418  1.00  0.00     0.391 P 
HETATM   41  O14 UNL     1      18.150   8.614  -3.169  1.00  0.00    -0.632 OA
BRANCH  40  42
HETATM   42  O15 UNL     1      16.898  10.610  -4.375  1.00  0.00    -0.307 OA
HETATM   43  H36 UNL     1      16.863  11.000  -5.281  1.00  0.00     0.222 HD
ENDBRANCH  40  42
BRANCH  40  44
HETATM   44  O16 UNL     1      18.396   9.149  -5.741  1.00  0.00    -0.307 OA
HETATM   45  H37 UNL     1      19.335   9.320  -5.567  1.00  0.00     0.222 HD
ENDBRANCH  40  44
ENDBRANCH  39  40
ENDBRANCH  35  39
BRANCH  36  46
HETATM   46  O12 UNL     1      14.215   8.060  -6.608  1.00  0.00    -0.388 OA
HETATM   47  H35 UNL     1      15.165   8.324  -6.660  1.00  0.00     0.210 HD
ENDBRANCH  36  46
BRANCH  37  48
HETATM   48  N3  UNL     1      12.075   6.563  -4.657  1.00  0.00    -0.297 N 
HETATM   49  C19 UNL     1      11.601   5.514  -5.410  1.00  0.00     0.188 A 
HETATM   50  N4  UNL     1      10.303   5.351  -5.278  1.00  0.00    -0.346 N 
HETATM   51  C20 UNL     1       9.916   6.341  -4.392  1.00  0.00     0.116 A 
HETATM   52  H4  UNL     1       9.713   4.652  -5.729  1.00  0.00     0.167 HD
HETATM   53  C21 UNL     1       8.678   6.672  -3.815  1.00  0.00     0.109 A 
HETATM   54  C23 UNL     1      10.997   7.123  -4.030  1.00  0.00     0.142 A 
HETATM   55  N5  UNL     1       8.618   7.730  -2.970  1.00  0.00    -0.341 N 
HETATM   56  C22 UNL     1       9.751   8.418  -2.727  1.00  0.00     0.183 A 
HETATM   57  H5  UNL     1       7.738   7.999  -2.529  1.00  0.00     0.167 HD
HETATM   58  N6  UNL     1      10.989   8.190  -3.211  1.00  0.00    -0.336 N 
HETATM   59  H6  UNL     1      11.811   8.752  -2.986  1.00  0.00     0.168 HD
BRANCH  53  60
HETATM   60  N7  UNL     1       7.506   5.978  -4.073  1.00  0.00    -0.287 NA
HETATM   61  H33 UNL     1       7.648   5.048  -4.462  1.00  0.00     0.125 HD
HETATM   62  H34 UNL     1       6.796   6.551  -4.509  1.00  0.00     0.125 HD
ENDBRANCH  53  60
ENDBRANCH  37  48
ENDBRANCH  33  34
ENDBRANCH  32  33
ENDBRANCH  28  32
ENDBRANCH  27  28
ENDBRANCH  23  27
ENDBRANCH  22  23
ENDBRANCH  21  22
ENDBRANCH  18  21
ENDBRANCH  17  18
BRANCH  17  63
HETATM   63  O17 UNL     1      11.650  13.323   3.194  1.00  0.00    -0.385 OA
HETATM   64  H38 UNL     1      10.967  12.703   3.499  1.00  0.00     0.210 HD
ENDBRANCH  17  63
ENDBRANCH  14  17
ENDBRANCH  12  13
ENDBRANCH  11  12
ENDBRANCH   8  11
ENDBRANCH   6   7
ENDBRANCH   5   6
ENDBRANCH   4   5
ENDBRANCH   2   4
TORSDOF 27
ENDMDL
MODEL 14
REMARK VINA RESULT:      -6.5      1.729      2.496
REMARK  27 active torsions:
REMARK  status: ('A' for Active; 'I' for Inactive)
REMARK    1  A    between atoms: C2_2  and  S1_4 
REMARK    2  A    between atoms: S1_4  and  C3_5 
REMARK    3  A    between atoms: C3_5  and  C4_6 
REMARK    4  A    between atoms: C4_6  and  N1_7 
REMARK       I    between atoms: N1_7  and  C5_8 
REMARK    5  A    between atoms: C5_8  and  C6_10 
REMARK    6  A    between atoms: C6_10  and  C7_11 
REMARK    7  A    between atoms: C7_11  and  N2_12 
REMARK       I    between atoms: N2_12  and  C8_13 
REMARK    8  A    between atoms: C8_13  and  C9_15 
REMARK    9  A    between atoms: C9_15  and  C10_16 
REMARK   10  A    between atoms: C9_15  and  O17_54 
REMARK   11  A    between atoms: C10_16  and  C13_19 
REMARK   12  A    between atoms: C13_19  and  O4_20 
REMARK   13  A    between atoms: O4_20  and  P1_21 
REMARK   14  A    between atoms: P1_21  and  O6_23 
REMARK   15  A    between atoms: P1_21  and  O7_24 
REMARK   16  A    between atoms: O7_24  and  P2_25 
REMARK   17  A    between atoms: P2_25  and  O9_27 
REMARK   18  A    between atoms: P2_25  and  O10_28 
REMARK   19  A    between atoms: O10_28  and  C14_29 
REMARK   20  A    between atoms: C14_29  and  C15_30 
REMARK   21  A    between atoms: C16_31  and  O13_49 
REMARK   22  A    between atoms: C17_32  and  O12_48 
REMARK   23  A    between atoms: C18_33  and  N3_35 
REMARK   24  A    between atoms: C21_40  and  N7_47 
REMARK   25  A    between atoms: O13_49  and  P3_50 
REMARK   26  A    between atoms: P3_50  and  O15_52 
REMARK   27  A    between atoms: P3_50  and  O16_53 
ROOT
HETATM    1  C1  UNL     1       7.847   9.729  -2.329  1.00  0.00     0.104 C 
HETATM    2  C2  UNL     1       8.936   8.801  -2.769  1.00  0.00     0.182 C 
HETATM    3  O1  UNL     1       9.719   9.063  -3.680  1.00  0.00    -0.286 OA
ENDROOT
BRANCH   2   4
HETATM    4  S1  UNL     1       8.983   7.273  -1.899  1.00  0.00    -0.091 SA
BRANCH   4   5
HETATM    5  C3  UNL     1       7.571   6.418  -2.670  1.00  0.00     0.102 C 
BRANCH   5   6
HETATM    6  C4  UNL     1       8.009   5.535  -3.840  1.00  0.00     0.133 C 
BRANCH   6   7
HETATM    7  N1  UNL     1       9.215   6.015  -4.483  1.00  0.00    -0.360 N 
HETATM    8  C5  UNL     1      10.390   5.301  -4.443  1.00  0.00     0.219 C 
HETATM    9  O2  UNL     1      10.511   4.265  -3.799  1.00  0.00    -0.274 OA
HETATM   10  H8  UNL     1       9.184   6.895  -4.979  1.00  0.00     0.162 HD
BRANCH   8  11
HETATM   11  C6  UNL     1      11.512   5.950  -5.223  1.00  0.00     0.122 C 
BRANCH  11  12
HETATM   12  C7  UNL     1      12.329   6.909  -4.357  1.00  0.00     0.132 C 
BRANCH  12  13
HETATM   13  N2  UNL     1      13.727   6.959  -4.730  1.00  0.00    -0.358 N 
HETATM   14  C8  UNL     1      14.708   6.979  -3.756  1.00  0.00     0.247 C 
HETATM   15  O3  UNL     1      14.441   7.073  -2.564  1.00  0.00    -0.271 OA
HETATM   16  H13 UNL     1      13.960   6.516  -5.616  1.00  0.00     0.162 HD
BRANCH  14  17
HETATM   17  C9  UNL     1      16.144   6.852  -4.285  1.00  0.00     0.219 C 
BRANCH  17  18
HETATM   18  C10 UNL     1      16.788   8.194  -4.724  1.00  0.00     0.009 C 
HETATM   19  C11 UNL     1      17.748   8.750  -3.662  1.00  0.00     0.020 C 
HETATM   20  C12 UNL     1      17.574   8.039  -6.041  1.00  0.00     0.020 C 
BRANCH  18  21
HETATM   21  C13 UNL     1      15.607   9.186  -4.931  1.00  0.00     0.192 C 
BRANCH  21  22
HETATM   22  O4  UNL     1      15.535  10.158  -3.908  1.00  0.00    -0.296 OA
BRANCH  22  23
HETATM   23  P1  UNL     1      14.170  10.893  -3.500  1.00  0.00     0.401 P 
HETATM   24  O5  UNL     1      12.967  10.003  -3.517  1.00  0.00    -0.631 OA
BRANCH  23  25
HETATM   25  O6  UNL     1      14.035  12.185  -4.450  1.00  0.00    -0.307 OA
HETATM   26  H23 UNL     1      13.719  11.953  -5.333  1.00  0.00     0.222 HD
ENDBRANCH  23  25
BRANCH  23  27
HETATM   27  O7  UNL     1      14.473  11.573  -2.094  1.00  0.00    -0.195 OA
BRANCH  27  28
HETATM   28  P2  UNL     1      13.295  12.330  -1.334  1.00  0.00     0.401 P 
HETATM   29  O8  UNL     1      12.612  13.434  -2.074  1.00  0.00    -0.631 OA
BRANCH  28  30
HETATM   30  O9  UNL     1      12.323  11.144  -0.891  1.00  0.00    -0.307 OA
HETATM   31  H24 UNL     1      11.686  10.861  -1.592  1.00  0.00     0.222 HD
ENDBRANCH  28  30
BRANCH  28  32
HETATM   32  O10 UNL     1      13.936  12.726   0.074  1.00  0.00    -0.294 OA
BRANCH  32  33
HETATM   33  C14 UNL     1      15.327  12.868   0.198  1.00  0.00     0.215 C 
BRANCH  33  34
HETATM   34  C15 UNL     1      15.715  12.151   1.489  1.00  0.00     0.180 C 
HETATM   35  C16 UNL     1      15.806  10.651   1.239  1.00  0.00     0.197 C 
HETATM   36  C17 UNL     1      14.743  10.047   2.137  1.00  0.00     0.199 C 
HETATM   37  C18 UNL     1      14.615  11.101   3.240  1.00  0.00     0.262 C 
HETATM   38  O11 UNL     1      14.776  12.360   2.550  1.00  0.00    -0.353 OA
BRANCH  35  39
HETATM   39  O13 UNL     1      17.116  10.223   1.594  1.00  0.00    -0.286 OA
BRANCH  39  40
HETATM   40  P3  UNL     1      17.952   9.523   0.425  1.00  0.00     0.391 P 
HETATM   41  O14 UNL     1      18.301  10.442  -0.701  1.00  0.00    -0.632 OA
BRANCH  40  42
HETATM   42  O15 UNL     1      17.014   8.270   0.094  1.00  0.00    -0.307 OA
HETATM   43  H36 UNL     1      17.534   7.431   0.108  1.00  0.00     0.222 HD
ENDBRANCH  40  42
BRANCH  40  44
HETATM   44  O16 UNL     1      19.151   8.871   1.242  1.00  0.00    -0.307 OA
HETATM   45  H37 UNL     1      19.216   9.209   2.149  1.00  0.00     0.222 HD
ENDBRANCH  40  44
ENDBRANCH  39  40
ENDBRANCH  35  39
BRANCH  36  46
HETATM   46  O12 UNL     1      15.121   8.725   2.532  1.00  0.00    -0.388 OA
HETATM   47  H35 UNL     1      15.788   8.831   3.252  1.00  0.00     0.210 HD
ENDBRANCH  36  46
BRANCH  37  48
HETATM   48  N3  UNL     1      13.314  11.082   3.879  1.00  0.00    -0.297 N 
HETATM   49  C19 UNL     1      12.345  12.056   3.820  1.00  0.00     0.188 A 
HETATM   50  N4  UNL     1      11.227  11.683   4.403  1.00  0.00    -0.346 N 
HETATM   51  C20 UNL     1      11.482  10.401   4.858  1.00  0.00     0.116 A 
HETATM   52  H4  UNL     1      10.364  12.218   4.499  1.00  0.00     0.167 HD
HETATM   53  C21 UNL     1      10.687   9.449   5.520  1.00  0.00     0.109 A 
HETATM   54  C23 UNL     1      12.784  10.031   4.574  1.00  0.00     0.142 A 
HETATM   55  N5  UNL     1      11.241   8.257   5.850  1.00  0.00    -0.341 N 
HETATM   56  C22 UNL     1      12.533   8.044   5.530  1.00  0.00     0.183 A 
HETATM   57  H5  UNL     1      10.695   7.541   6.328  1.00  0.00     0.167 HD
HETATM   58  N6  UNL     1      13.386   8.872   4.893  1.00  0.00    -0.336 N 
HETATM   59  H6  UNL     1      14.359   8.648   4.680  1.00  0.00     0.168 HD
BRANCH  53  60
HETATM   60  N7  UNL     1       9.363   9.669   5.864  1.00  0.00    -0.287 NA
HETATM   61  H33 UNL     1       9.183  10.581   6.278  1.00  0.00     0.125 HD
HETATM   62  H34 UNL     1       8.935   8.872   6.316  1.00  0.00     0.125 HD
ENDBRANCH  53  60
ENDBRANCH  37  48
ENDBRANCH  33  34
ENDBRANCH  32  33
ENDBRANCH  28  32
ENDBRANCH  27  28
ENDBRANCH  23  27
ENDBRANCH  22  23
ENDBRANCH  21  22
ENDBRANCH  18  21
ENDBRANCH  17  18
BRANCH  17  63
HETATM   63  O17 UNL     1      16.983   6.249  -3.294  1.00  0.00    -0.385 OA
HETATM   64  H38 UNL     1      17.680   6.885  -3.060  1.00  0.00     0.210 HD
ENDBRANCH  17  63
ENDBRANCH  14  17
ENDBRANCH  12  13
ENDBRANCH  11  12
ENDBRANCH   8  11
ENDBRANCH   6   7
ENDBRANCH   5   6
ENDBRANCH   4   5
ENDBRANCH   2   4
TORSDOF 27
ENDMDL
MODEL 15
REMARK VINA RESULT:      -6.2      2.902      9.061
REMARK  27 active torsions:
REMARK  status: ('A' for Active; 'I' for Inactive)
REMARK    1  A    between atoms: C2_2  and  S1_4 
REMARK    2  A    between atoms: S1_4  and  C3_5 
REMARK    3  A    between atoms: C3_5  and  C4_6 
REMARK    4  A    between atoms: C4_6  and  N1_7 
REMARK       I    between atoms: N1_7  and  C5_8 
REMARK    5  A    between atoms: C5_8  and  C6_10 
REMARK    6  A    between atoms: C6_10  and  C7_11 
REMARK    7  A    between atoms: C7_11  and  N2_12 
REMARK       I    between atoms: N2_12  and  C8_13 
REMARK    8  A    between atoms: C8_13  and  C9_15 
REMARK    9  A    between atoms: C9_15  and  C10_16 
REMARK   10  A    between atoms: C9_15  and  O17_54 
REMARK   11  A    between atoms: C10_16  and  C13_19 
REMARK   12  A    between atoms: C13_19  and  O4_20 
REMARK   13  A    between atoms: O4_20  and  P1_21 
REMARK   14  A    between atoms: P1_21  and  O6_23 
REMARK   15  A    between atoms: P1_21  and  O7_24 
REMARK   16  A    between atoms: O7_24  and  P2_25 
REMARK   17  A    between atoms: P2_25  and  O9_27 
REMARK   18  A    between atoms: P2_25  and  O10_28 
REMARK   19  A    between atoms: O10_28  and  C14_29 
REMARK   20  A    between atoms: C14_29  and  C15_30 
REMARK   21  A    between atoms: C16_31  and  O13_49 
REMARK   22  A    between atoms: C17_32  and  O12_48 
REMARK   23  A    between atoms: C18_33  and  N3_35 
REMARK   24  A    between atoms: C21_40  and  N7_47 
REMARK   25  A    between atoms: O13_49  and  P3_50 
REMARK   26  A    between atoms: P3_50  and  O15_52 
REMARK   27  A    between atoms: P3_50  and  O16_53 
ROOT
HETATM    1  C1  UNL     1       9.138   6.907   8.068  1.00  0.00     0.104 C 
HETATM    2  C2  UNL     1       9.821   7.642   6.955  1.00  0.00     0.182 C 
HETATM    3  O1  UNL     1      10.832   7.227   6.394  1.00  0.00    -0.286 OA
ENDROOT
BRANCH   2   4
HETATM    4  S1  UNL     1       9.077   9.179   6.538  1.00  0.00    -0.091 SA
BRANCH   4   5
HETATM    5  C3  UNL     1      10.034   9.607   5.047  1.00  0.00     0.102 C 
BRANCH   5   6
HETATM    6  C4  UNL     1      11.365  10.274   5.396  1.00  0.00     0.133 C 
BRANCH   6   7
HETATM    7  N1  UNL     1      12.510   9.483   4.994  1.00  0.00    -0.360 N 
HETATM    8  C5  UNL     1      13.778   9.759   5.450  1.00  0.00     0.219 C 
HETATM    9  O2  UNL     1      14.029  10.731   6.154  1.00  0.00    -0.274 OA
HETATM   10  H8  UNL     1      12.366   8.703   4.366  1.00  0.00     0.162 HD
BRANCH   8  11
HETATM   11  C6  UNL     1      14.820   8.780   4.955  1.00  0.00     0.122 C 
BRANCH  11  12
HETATM   12  C7  UNL     1      16.216   9.121   5.474  1.00  0.00     0.132 C 
BRANCH  12  13
HETATM   13  N2  UNL     1      16.656  10.446   5.090  1.00  0.00    -0.358 N 
HETATM   14  C8  UNL     1      17.091  10.689   3.800  1.00  0.00     0.247 C 
HETATM   15  O3  UNL     1      17.234   9.791   2.980  1.00  0.00    -0.271 OA
HETATM   16  H13 UNL     1      16.210  11.216   5.584  1.00  0.00     0.162 HD
BRANCH  14  17
HETATM   17  C9  UNL     1      17.359  12.167   3.479  1.00  0.00     0.219 C 
BRANCH  17  18
HETATM   18  C10 UNL     1      16.207  12.880   2.723  1.00  0.00     0.009 C 
HETATM   19  C11 UNL     1      14.862  12.162   2.909  1.00  0.00     0.020 C 
HETATM   20  C12 UNL     1      16.038  14.338   3.195  1.00  0.00     0.020 C 
BRANCH  18  21
HETATM   21  C13 UNL     1      16.607  12.858   1.219  1.00  0.00     0.192 C 
BRANCH  21  22
HETATM   22  O4  UNL     1      15.670  12.160   0.424  1.00  0.00    -0.296 OA
BRANCH  22  23
HETATM   23  P1  UNL     1      15.506  12.413  -1.151  1.00  0.00     0.401 P 
HETATM   24  O5  UNL     1      16.630  13.184  -1.768  1.00  0.00    -0.631 OA
BRANCH  23  25
HETATM   25  O6  UNL     1      14.060  13.088  -1.365  1.00  0.00    -0.307 OA
HETATM   26  H23 UNL     1      14.119  14.049  -1.450  1.00  0.00     0.222 HD
ENDBRANCH  23  25
BRANCH  23  27
HETATM   27  O7  UNL     1      15.268  10.969  -1.777  1.00  0.00    -0.195 OA
BRANCH  27  28
HETATM   28  P2  UNL     1      13.788  10.382  -1.817  1.00  0.00     0.401 P 
HETATM   29  O8  UNL     1      12.921  10.650  -0.630  1.00  0.00    -0.631 OA
BRANCH  28  30
HETATM   30  O9  UNL     1      13.205  10.949  -3.191  1.00  0.00    -0.307 OA
HETATM   31  H24 UNL     1      13.446  10.410  -3.984  1.00  0.00     0.222 HD
ENDBRANCH  28  30
BRANCH  28  32
HETATM   32  O10 UNL     1      13.993   8.844  -2.197  1.00  0.00    -0.294 OA
BRANCH  32  33
HETATM   33  C14 UNL     1      15.228   8.403  -2.697  1.00  0.00     0.215 C 
BRANCH  33  34
HETATM   34  C15 UNL     1      14.908   7.346  -3.753  1.00  0.00     0.180 C 
HETATM   35  C16 UNL     1      14.895   7.986  -5.135  1.00  0.00     0.197 C 
HETATM   36  C17 UNL     1      13.475   7.796  -5.633  1.00  0.00     0.199 C 
HETATM   37  C18 UNL     1      13.019   6.565  -4.847  1.00  0.00     0.262 C 
HETATM   38  O11 UNL     1      13.635   6.721  -3.550  1.00  0.00    -0.353 OA
BRANCH  35  39
HETATM   39  O13 UNL     1      15.845   7.301  -5.946  1.00  0.00    -0.286 OA
BRANCH  39  40
HETATM   40  P3  UNL     1      17.221   8.074  -6.197  1.00  0.00     0.391 P 
HETATM   41  O14 UNL     1      17.456   9.209  -5.253  1.00  0.00    -0.632 OA
BRANCH  40  42
HETATM   42  O15 UNL     1      17.091   8.421  -7.753  1.00  0.00    -0.307 OA
HETATM   43  H36 UNL     1      16.634   9.286  -7.881  1.00  0.00     0.222 HD
ENDBRANCH  40  42
BRANCH  40  44
HETATM   44  O16 UNL     1      18.265   6.874  -6.179  1.00  0.00    -0.307 OA
HETATM   45  H37 UNL     1      19.156   7.154  -5.918  1.00  0.00     0.222 HD
ENDBRANCH  40  44
ENDBRANCH  39  40
ENDBRANCH  35  39
BRANCH  36  46
HETATM   46  O12 UNL     1      13.458   7.708  -7.061  1.00  0.00    -0.388 OA
HETATM   47  H35 UNL     1      14.356   7.980  -7.367  1.00  0.00     0.210 HD
ENDBRANCH  36  46
BRANCH  37  48
HETATM   48  N3  UNL     1      11.580   6.515  -4.677  1.00  0.00    -0.297 N 
HETATM   49  C19 UNL     1      10.713   5.583  -5.197  1.00  0.00     0.188 A 
HETATM   50  N4  UNL     1       9.485   5.742  -4.755  1.00  0.00    -0.346 N 
HETATM   51  C20 UNL     1       9.561   6.829  -3.901  1.00  0.00     0.116 A 
HETATM   52  H4  UNL     1       8.661   5.189  -4.988  1.00  0.00     0.167 HD
HETATM   53  C21 UNL     1       8.609   7.469  -3.088  1.00  0.00     0.109 A 
HETATM   54  C23 UNL     1      10.845   7.341  -3.874  1.00  0.00     0.142 A 
HETATM   55  N5  UNL     1       8.998   8.542  -2.356  1.00  0.00    -0.341 N 
HETATM   56  C22 UNL     1      10.281   8.946  -2.448  1.00  0.00     0.183 A 
HETATM   57  H5  UNL     1       8.337   9.030  -1.752  1.00  0.00     0.167 HD
HETATM   58  N6  UNL     1      11.278   8.409  -3.180  1.00  0.00    -0.336 N 
HETATM   59  H6  UNL     1      12.234   8.765  -3.206  1.00  0.00     0.168 HD
BRANCH  53  60
HETATM   60  N7  UNL     1       7.286   7.068  -3.002  1.00  0.00    -0.287 NA
HETATM   61  H33 UNL     1       6.660   7.768  -2.610  1.00  0.00     0.125 HD
HETATM   62  H34 UNL     1       7.182   6.122  -2.660  1.00  0.00     0.125 HD
ENDBRANCH  53  60
ENDBRANCH  37  48
ENDBRANCH  33  34
ENDBRANCH  32  33
ENDBRANCH  28  32
ENDBRANCH  27  28
ENDBRANCH  23  27
ENDBRANCH  22  23
ENDBRANCH  21  22
ENDBRANCH  18  21
ENDBRANCH  17  18
BRANCH  17  63
HETATM   63  O17 UNL     1      17.629  12.893   4.684  1.00  0.00    -0.385 OA
HETATM   64  H38 UNL     1      17.198  13.761   4.616  1.00  0.00     0.210 HD
ENDBRANCH  17  63
ENDBRANCH  14  17
ENDBRANCH  12  13
ENDBRANCH  11  12
ENDBRANCH   8  11
ENDBRANCH   6   7
ENDBRANCH   5   6
ENDBRANCH   4   5
ENDBRANCH   2   4
TORSDOF 27
ENDMDL
MODEL 16
REMARK VINA RESULT:      -6.2      3.498      9.250
REMARK  27 active torsions:
REMARK  status: ('A' for Active; 'I' for Inactive)
REMARK    1  A    between atoms: C2_2  and  S1_4 
REMARK    2  A    between atoms: S1_4  and  C3_5 
REMARK    3  A    between atoms: C3_5  and  C4_6 
REMARK    4  A    between atoms: C4_6  and  N1_7 
REMARK       I    between atoms: N1_7  and  C5_8 
REMARK    5  A    between atoms: C5_8  and  C6_10 
REMARK    6  A    between atoms: C6_10  and  C7_11 
REMARK    7  A    between atoms: C7_11  and  N2_12 
REMARK       I    between atoms: N2_12  and  C8_13 
REMARK    8  A    between atoms: C8_13  and  C9_15 
REMARK    9  A    between atoms: C9_15  and  C10_16 
REMARK   10  A    between atoms: C9_15  and  O17_54 
REMARK   11  A    between atoms: C10_16  and  C13_19 
REMARK   12  A    between atoms: C13_19  and  O4_20 
REMARK   13  A    between atoms: O4_20  and  P1_21 
REMARK   14  A    between atoms: P1_21  and  O6_23 
REMARK   15  A    between atoms: P1_21  and  O7_24 
REMARK   16  A    between atoms: O7_24  and  P2_25 
REMARK   17  A    between atoms: P2_25  and  O9_27 
REMARK   18  A    between atoms: P2_25  and  O10_28 
REMARK   19  A    between atoms: O10_28  and  C14_29 
REMARK   20  A    between atoms: C14_29  and  C15_30 
REMARK   21  A    between atoms: C16_31  and  O13_49 
REMARK   22  A    between atoms: C17_32  and  O12_48 
REMARK   23  A    between atoms: C18_33  and  N3_35 
REMARK   24  A    between atoms: C21_40  and  N7_47 
REMARK   25  A    between atoms: O13_49  and  P3_50 
REMARK   26  A    between atoms: P3_50  and  O15_52 
REMARK   27  A    between atoms: P3_50  and  O16_53 
ROOT
HETATM    1  C1  UNL     1      12.618   7.789   5.817  1.00  0.00     0.104 C 
HETATM    2  C2  UNL     1      13.442   9.003   5.516  1.00  0.00     0.182 C 
HETATM    3  O1  UNL     1      13.112   9.855   4.693  1.00  0.00    -0.286 OA
ENDROOT
BRANCH   2   4
HETATM    4  S1  UNL     1      14.952   9.096   6.411  1.00  0.00    -0.091 SA
BRANCH   4   5
HETATM    5  C3  UNL     1      16.027   8.089   5.339  1.00  0.00     0.102 C 
BRANCH   5   6
HETATM    6  C4  UNL     1      16.322   8.788   4.010  1.00  0.00     0.133 C 
BRANCH   6   7
HETATM    7  N1  UNL     1      16.406  10.228   4.142  1.00  0.00    -0.360 N 
HETATM    8  C5  UNL     1      15.934  11.073   3.166  1.00  0.00     0.219 C 
HETATM    9  O2  UNL     1      15.490  10.666   2.098  1.00  0.00    -0.274 OA
HETATM   10  H8  UNL     1      16.818  10.616   4.980  1.00  0.00     0.162 HD
BRANCH   8  11
HETATM   11  C6  UNL     1      16.067  12.538   3.524  1.00  0.00     0.122 C 
BRANCH  11  12
HETATM   12  C7  UNL     1      14.733  13.276   3.417  1.00  0.00     0.132 C 
BRANCH  12  13
HETATM   13  N2  UNL     1      14.231  13.346   2.061  1.00  0.00    -0.358 N 
HETATM   14  C8  UNL     1      12.872  13.446   1.826  1.00  0.00     0.247 C 
HETATM   15  O3  UNL     1      12.047  13.359   2.726  1.00  0.00    -0.271 OA
HETATM   16  H13 UNL     1      14.854  13.784   1.386  1.00  0.00     0.162 HD
BRANCH  14  17
HETATM   17  C9  UNL     1      12.488  13.691   0.359  1.00  0.00     0.219 C 
BRANCH  17  18
HETATM   18  C10 UNL     1      12.285  12.400  -0.477  1.00  0.00     0.009 C 
HETATM   19  C11 UNL     1      12.371  11.133   0.386  1.00  0.00     0.020 C 
HETATM   20  C12 UNL     1      10.918  12.397  -1.189  1.00  0.00     0.020 C 
BRANCH  18  21
HETATM   21  C13 UNL     1      13.427  12.391  -1.533  1.00  0.00     0.192 C 
BRANCH  21  22
HETATM   22  O4  UNL     1      14.531  13.182  -1.139  1.00  0.00    -0.296 OA
BRANCH  22  23
HETATM   23  P1  UNL     1      16.034  12.625  -1.110  1.00  0.00     0.401 P 
HETATM   24  O5  UNL     1      16.803  13.005   0.116  1.00  0.00    -0.631 OA
BRANCH  23  25
HETATM   25  O6  UNL     1      16.730  13.092  -2.484  1.00  0.00    -0.307 OA
HETATM   26  H23 UNL     1      17.563  12.629  -2.643  1.00  0.00     0.222 HD
ENDBRANCH  23  25
BRANCH  23  27
HETATM   27  O7  UNL     1      15.897  11.058  -1.350  1.00  0.00    -0.195 OA
BRANCH  27  28
HETATM   28  P2  UNL     1      17.216  10.164  -1.372  1.00  0.00     0.401 P 
HETATM   29  O8  UNL     1      18.342  10.641  -2.230  1.00  0.00    -0.631 OA
BRANCH  28  30
HETATM   30  O9  UNL     1      17.589  10.024   0.174  1.00  0.00    -0.307 OA
HETATM   31  H24 UNL     1      18.558  10.088   0.362  1.00  0.00     0.222 HD
ENDBRANCH  28  30
BRANCH  28  32
HETATM   32  O10 UNL     1      16.679   8.692  -1.679  1.00  0.00    -0.294 OA
BRANCH  32  33
HETATM   33  C14 UNL     1      17.482   7.786  -2.389  1.00  0.00     0.215 C 
BRANCH  33  34
HETATM   34  C15 UNL     1      16.540   7.014  -3.313  1.00  0.00     0.180 C 
HETATM   35  C16 UNL     1      16.540   7.650  -4.697  1.00  0.00     0.197 C 
HETATM   36  C17 UNL     1      15.111   8.114  -4.906  1.00  0.00     0.199 C 
HETATM   37  C18 UNL     1      14.328   7.172  -3.989  1.00  0.00     0.262 C 
HETATM   38  O11 UNL     1      15.188   6.994  -2.842  1.00  0.00    -0.353 OA
BRANCH  35  39
HETATM   39  O13 UNL     1      16.925   6.655  -5.639  1.00  0.00    -0.286 OA
BRANCH  39  40
HETATM   40  P3  UNL     1      18.185   7.022  -6.552  1.00  0.00     0.391 P 
HETATM   41  O14 UNL     1      18.677   5.884  -7.386  1.00  0.00    -0.632 OA
BRANCH  40  42
HETATM   42  O15 UNL     1      19.184   7.623  -5.457  1.00  0.00    -0.307 OA
HETATM   43  H36 UNL     1      18.800   7.539  -4.552  1.00  0.00     0.222 HD
ENDBRANCH  40  42
BRANCH  40  44
HETATM   44  O16 UNL     1      17.659   8.317  -7.311  1.00  0.00    -0.307 OA
HETATM   45  H37 UNL     1      16.701   8.299  -7.467  1.00  0.00     0.222 HD
ENDBRANCH  40  44
ENDBRANCH  39  40
ENDBRANCH  35  39
BRANCH  36  46
HETATM   46  O12 UNL     1      14.783   8.098  -6.298  1.00  0.00    -0.388 OA
HETATM   47  H35 UNL     1      14.729   9.042  -6.582  1.00  0.00     0.210 HD
ENDBRANCH  36  46
BRANCH  37  48
HETATM   48  N3  UNL     1      13.072   7.743  -3.546  1.00  0.00    -0.297 N 
HETATM   49  C19 UNL     1      12.886   8.943  -2.902  1.00  0.00     0.188 A 
HETATM   50  N4  UNL     1      11.612   9.235  -2.749  1.00  0.00    -0.346 N 
HETATM   51  C20 UNL     1      10.939   8.173  -3.326  1.00  0.00     0.116 A 
HETATM   52  H4  UNL     1      11.210  10.060  -2.303  1.00  0.00     0.167 HD
HETATM   53  C21 UNL     1       9.574   7.904  -3.523  1.00  0.00     0.109 A 
HETATM   54  C23 UNL     1      11.831   7.222  -3.789  1.00  0.00     0.142 A 
HETATM   55  N5  UNL     1       9.221   6.743  -4.127  1.00  0.00    -0.341 N 
HETATM   56  C22 UNL     1      10.201   5.898  -4.505  1.00  0.00     0.183 A 
HETATM   57  H5  UNL     1       8.241   6.515  -4.290  1.00  0.00     0.167 HD
HETATM   58  N6  UNL     1      11.535   6.050  -4.378  1.00  0.00    -0.336 N 
HETATM   59  H6  UNL     1      12.227   5.368  -4.688  1.00  0.00     0.168 HD
BRANCH  53  60
HETATM   60  N7  UNL     1       8.562   8.762  -3.122  1.00  0.00    -0.287 NA
HETATM   61  H33 UNL     1       8.248   8.622  -2.164  1.00  0.00     0.125 HD
HETATM   62  H34 UNL     1       7.844   8.881  -3.824  1.00  0.00     0.125 HD
ENDBRANCH  53  60
ENDBRANCH  37  48
ENDBRANCH  33  34
ENDBRANCH  32  33
ENDBRANCH  28  32
ENDBRANCH  27  28
ENDBRANCH  23  27
ENDBRANCH  22  23
ENDBRANCH  21  22
ENDBRANCH  18  21
ENDBRANCH  17  18
BRANCH  17  63
HETATM   63  O17 UNL     1      11.291  14.472   0.287  1.00  0.00    -0.385 OA
HETATM   64  H38 UNL     1      11.478  15.348   0.665  1.00  0.00     0.210 HD
ENDBRANCH  17  63
ENDBRANCH  14  17
ENDBRANCH  12  13
ENDBRANCH  11  12
ENDBRANCH   8  11
ENDBRANCH   6   7
ENDBRANCH   5   6
ENDBRANCH   4   5
ENDBRANCH   2   4
TORSDOF 27
ENDMDL
MODEL 17
REMARK VINA RESULT:      -6.1      4.144      8.642
REMARK  27 active torsions:
REMARK  status: ('A' for Active; 'I' for Inactive)
REMARK    1  A    between atoms: C2_2  and  S1_4 
REMARK    2  A    between atoms: S1_4  and  C3_5 
REMARK    3  A    between atoms: C3_5  and  C4_6 
REMARK    4  A    between atoms: C4_6  and  N1_7 
REMARK       I    between atoms: N1_7  and  C5_8 
REMARK    5  A    between atoms: C5_8  and  C6_10 
REMARK    6  A    between atoms: C6_10  and  C7_11 
REMARK    7  A    between atoms: C7_11  and  N2_12 
REMARK       I    between atoms: N2_12  and  C8_13 
REMARK    8  A    between atoms: C8_13  and  C9_15 
REMARK    9  A    between atoms: C9_15  and  C10_16 
REMARK   10  A    between atoms: C9_15  and  O17_54 
REMARK   11  A    between atoms: C10_16  and  C13_19 
REMARK   12  A    between atoms: C13_19  and  O4_20 
REMARK   13  A    between atoms: O4_20  and  P1_21 
REMARK   14  A    between atoms: P1_21  and  O6_23 
REMARK   15  A    between atoms: P1_21  and  O7_24 
REMARK   16  A    between atoms: O7_24  and  P2_25 
REMARK   17  A    between atoms: P2_25  and  O9_27 
REMARK   18  A    between atoms: P2_25  and  O10_28 
REMARK   19  A    between atoms: O10_28  and  C14_29 
REMARK   20  A    between atoms: C14_29  and  C15_30 
REMARK   21  A    between atoms: C16_31  and  O13_49 
REMARK   22  A    between atoms: C17_32  and  O12_48 
REMARK   23  A    between atoms: C18_33  and  N3_35 
REMARK   24  A    between atoms: C21_40  and  N7_47 
REMARK   25  A    between atoms: O13_49  and  P3_50 
REMARK   26  A    between atoms: P3_50  and  O15_52 
REMARK   27  A    between atoms: P3_50  and  O16_53 
ROOT
HETATM    1  C1  UNL     1      15.642  12.381   3.920  1.00  0.00     0.104 C 
HETATM    2  C2  UNL     1      16.111  13.595   3.177  1.00  0.00     0.182 C 
HETATM    3  O1  UNL     1      16.752  14.502   3.704  1.00  0.00    -0.286 OA
ENDROOT
BRANCH   2   4
HETATM    4  S1  UNL     1      15.635  13.638   1.485  1.00  0.00    -0.091 SA
BRANCH   4   5
HETATM    5  C3  UNL     1      17.273  13.656   0.688  1.00  0.00     0.102 C 
BRANCH   5   6
HETATM    6  C4  UNL     1      17.207  14.206  -0.738  1.00  0.00     0.133 C 
BRANCH   6   7
HETATM    7  N1  UNL     1      17.292  13.166  -1.743  1.00  0.00    -0.360 N 
HETATM    8  C5  UNL     1      18.455  12.924  -2.437  1.00  0.00     0.219 C 
HETATM    9  O2  UNL     1      19.457  13.617  -2.308  1.00  0.00    -0.274 OA
HETATM   10  H8  UNL     1      16.474  12.602  -1.930  1.00  0.00     0.162 HD
BRANCH   8  11
HETATM   11  C6  UNL     1      18.347  11.761  -3.399  1.00  0.00     0.122 C 
BRANCH  11  12
HETATM   12  C7  UNL     1      19.545  10.818  -3.293  1.00  0.00     0.132 C 
BRANCH  12  13
HETATM   13  N2  UNL     1      19.164   9.436  -3.093  1.00  0.00    -0.358 N 
HETATM   14  C8  UNL     1      20.127   8.443  -3.080  1.00  0.00     0.247 C 
HETATM   15  O3  UNL     1      21.300   8.669  -3.350  1.00  0.00    -0.271 OA
HETATM   16  H13 UNL     1      18.335   9.288  -2.521  1.00  0.00     0.162 HD
BRANCH  14  17
HETATM   17  C9  UNL     1      19.611   7.051  -2.683  1.00  0.00     0.219 C 
BRANCH  17  18
HETATM   18  C10 UNL     1      19.355   6.870  -1.164  1.00  0.00     0.009 C 
HETATM   19  C11 UNL     1      19.383   5.393  -0.745  1.00  0.00     0.020 C 
HETATM   20  C12 UNL     1      20.403   7.623  -0.320  1.00  0.00     0.020 C 
BRANCH  18  21
HETATM   21  C13 UNL     1      17.942   7.462  -0.896  1.00  0.00     0.192 C 
BRANCH  21  22
HETATM   22  O4  UNL     1      17.997   8.781  -0.393  1.00  0.00    -0.296 OA
BRANCH  22  23
HETATM   23  P1  UNL     1      16.736   9.512   0.276  1.00  0.00     0.401 P 
HETATM   24  O5  UNL     1      17.004  10.070   1.638  1.00  0.00    -0.631 OA
BRANCH  23  25
HETATM   25  O6  UNL     1      15.514   8.464   0.232  1.00  0.00    -0.307 OA
HETATM   26  H23 UNL     1      14.677   8.895   0.017  1.00  0.00     0.222 HD
ENDBRANCH  23  25
BRANCH  23  27
HETATM   27  O7  UNL     1      16.263  10.583  -0.801  1.00  0.00    -0.195 OA
BRANCH  27  28
HETATM   28  P2  UNL     1      14.722  10.646  -1.199  1.00  0.00     0.401 P 
HETATM   29  O8  UNL     1      13.735  10.697  -0.079  1.00  0.00    -0.631 OA
BRANCH  28  30
HETATM   30  O9  UNL     1      14.650  11.898  -2.187  1.00  0.00    -0.307 OA
HETATM   31  H24 UNL     1      15.200  11.801  -3.003  1.00  0.00     0.222 HD
ENDBRANCH  28  30
BRANCH  28  32
HETATM   32  O10 UNL     1      14.542   9.444  -2.234  1.00  0.00    -0.294 OA
BRANCH  32  33
HETATM   33  C14 UNL     1      15.563   9.146  -3.149  1.00  0.00     0.215 C 
BRANCH  33  34
HETATM   34  C15 UNL     1      15.091   7.921  -3.932  1.00  0.00     0.180 C 
HETATM   35  C16 UNL     1      15.082   8.234  -5.422  1.00  0.00     0.197 C 
HETATM   36  C17 UNL     1      13.629   8.094  -5.835  1.00  0.00     0.199 C 
HETATM   37  C18 UNL     1      13.086   7.126  -4.782  1.00  0.00     0.262 C 
HETATM   38  O11 UNL     1      13.772   7.499  -3.567  1.00  0.00    -0.353 OA
BRANCH  35  39
HETATM   39  O13 UNL     1      15.920   7.288  -6.077  1.00  0.00    -0.286 OA
BRANCH  39  40
HETATM   40  P3  UNL     1      17.354   7.832  -6.527  1.00  0.00     0.391 P 
HETATM   41  O14 UNL     1      17.853   8.972  -5.700  1.00  0.00    -0.632 OA
BRANCH  40  42
HETATM   42  O15 UNL     1      17.096   8.103  -8.083  1.00  0.00    -0.307 OA
HETATM   43  H36 UNL     1      16.599   8.946  -8.212  1.00  0.00     0.222 HD
ENDBRANCH  40  42
BRANCH  40  44
HETATM   44  O16 UNL     1      18.213   6.494  -6.531  1.00  0.00    -0.307 OA
HETATM   45  H37 UNL     1      18.536   6.251  -5.649  1.00  0.00     0.222 HD
ENDBRANCH  40  44
ENDBRANCH  39  40
ENDBRANCH  35  39
BRANCH  36  46
HETATM   46  O12 UNL     1      13.540   7.692  -7.205  1.00  0.00    -0.388 OA
HETATM   47  H35 UNL     1      12.790   7.053  -7.259  1.00  0.00     0.210 HD
ENDBRANCH  36  46
BRANCH  37  48
HETATM   48  N3  UNL     1      11.659   7.272  -4.575  1.00  0.00    -0.297 N 
HETATM   49  C19 UNL     1      10.654   6.543  -5.168  1.00  0.00     0.188 A 
HETATM   50  N4  UNL     1       9.470   6.832  -4.674  1.00  0.00    -0.346 N 
HETATM   51  C20 UNL     1       9.720   7.793  -3.710  1.00  0.00     0.116 A 
HETATM   52  H4  UNL     1       8.569   6.437  -4.941  1.00  0.00     0.167 HD
HETATM   53  C21 UNL     1       8.887   8.473  -2.804  1.00  0.00     0.109 A 
HETATM   54  C23 UNL     1      11.067   8.103  -3.666  1.00  0.00     0.142 A 
HETATM   55  N5  UNL     1       9.443   9.388  -1.972  1.00  0.00    -0.341 N 
HETATM   56  C22 UNL     1      10.771   9.604  -2.058  1.00  0.00     0.183 A 
HETATM   57  H5  UNL     1       8.871   9.898  -1.300  1.00  0.00     0.167 HD
HETATM   58  N6  UNL     1      11.666   9.010  -2.874  1.00  0.00    -0.336 N 
HETATM   59  H6  UNL     1      12.664   9.221  -2.889  1.00  0.00     0.168 HD
BRANCH  53  60
HETATM   60  N7  UNL     1       7.519   8.265  -2.723  1.00  0.00    -0.287 NA
HETATM   61  H33 UNL     1       7.255   7.329  -2.426  1.00  0.00     0.125 HD
HETATM   62  H34 UNL     1       7.014   8.654  -3.507  1.00  0.00     0.125 HD
ENDBRANCH  53  60
ENDBRANCH  37  48
ENDBRANCH  33  34
ENDBRANCH  32  33
ENDBRANCH  28  32
ENDBRANCH  27  28
ENDBRANCH  23  27
ENDBRANCH  22  23
ENDBRANCH  21  22
ENDBRANCH  18  21
ENDBRANCH  17  18
BRANCH  17  63
HETATM   63  O17 UNL     1      18.400   6.755  -3.387  1.00  0.00    -0.385 OA
HETATM   64  H38 UNL     1      17.653   6.948  -2.796  1.00  0.00     0.210 HD
ENDBRANCH  17  63
ENDBRANCH  14  17
ENDBRANCH  12  13
ENDBRANCH  11  12
ENDBRANCH   8  11
ENDBRANCH   6   7
ENDBRANCH   5   6
ENDBRANCH   4   5
ENDBRANCH   2   4
TORSDOF 27
ENDMDL
MODEL 18
REMARK VINA RESULT:      -6.1      2.504      4.240
REMARK  27 active torsions:
REMARK  status: ('A' for Active; 'I' for Inactive)
REMARK    1  A    between atoms: C2_2  and  S1_4 
REMARK    2  A    between atoms: S1_4  and  C3_5 
REMARK    3  A    between atoms: C3_5  and  C4_6 
REMARK    4  A    between atoms: C4_6  and  N1_7 
REMARK       I    between atoms: N1_7  and  C5_8 
REMARK    5  A    between atoms: C5_8  and  C6_10 
REMARK    6  A    between atoms: C6_10  and  C7_11 
REMARK    7  A    between atoms: C7_11  and  N2_12 
REMARK       I    between atoms: N2_12  and  C8_13 
REMARK    8  A    between atoms: C8_13  and  C9_15 
REMARK    9  A    between atoms: C9_15  and  C10_16 
REMARK   10  A    between atoms: C9_15  and  O17_54 
REMARK   11  A    between atoms: C10_16  and  C13_19 
REMARK   12  A    between atoms: C13_19  and  O4_20 
REMARK   13  A    between atoms: O4_20  and  P1_21 
REMARK   14  A    between atoms: P1_21  and  O6_23 
REMARK   15  A    between atoms: P1_21  and  O7_24 
REMARK   16  A    between atoms: O7_24  and  P2_25 
REMARK   17  A    between atoms: P2_25  and  O9_27 
REMARK   18  A    between atoms: P2_25  and  O10_28 
REMARK   19  A    between atoms: O10_28  and  C14_29 
REMARK   20  A    between atoms: C14_29  and  C15_30 
REMARK   21  A    between atoms: C16_31  and  O13_49 
REMARK   22  A    between atoms: C17_32  and  O12_48 
REMARK   23  A    between atoms: C18_33  and  N3_35 
REMARK   24  A    between atoms: C21_40  and  N7_47 
REMARK   25  A    between atoms: O13_49  and  P3_50 
REMARK   26  A    between atoms: P3_50  and  O15_52 
REMARK   27  A    between atoms: P3_50  and  O16_53 
ROOT
HETATM    1  C1  UNL     1       4.034  10.683  -2.595  1.00  0.00     0.104 C 
HETATM    2  C2  UNL     1       5.265  10.682  -1.741  1.00  0.00     0.182 C 
HETATM    3  O1  UNL     1       5.234  10.683  -0.513  1.00  0.00    -0.286 OA
ENDROOT
BRANCH   2   4
HETATM    4  S1  UNL     1       6.773  10.721  -2.644  1.00  0.00    -0.091 SA
BRANCH   4   5
HETATM    5  C3  UNL     1       7.524   9.157  -2.087  1.00  0.00     0.102 C 
BRANCH   5   6
HETATM    6  C4  UNL     1       9.021   9.100  -2.400  1.00  0.00     0.133 C 
BRANCH   6   7
HETATM    7  N1  UNL     1       9.313   8.336  -3.596  1.00  0.00    -0.360 N 
HETATM    8  C5  UNL     1      10.110   7.215  -3.562  1.00  0.00     0.219 C 
HETATM    9  O2  UNL     1      10.682   6.842  -2.544  1.00  0.00    -0.274 OA
HETATM   10  H8  UNL     1       8.912   8.635  -4.474  1.00  0.00     0.162 HD
BRANCH   8  11
HETATM   11  C6  UNL     1      10.243   6.534  -4.907  1.00  0.00     0.122 C 
BRANCH  11  12
HETATM   12  C7  UNL     1      11.661   6.018  -5.147  1.00  0.00     0.132 C 
BRANCH  12  13
HETATM   13  N2  UNL     1      12.684   6.946  -4.715  1.00  0.00    -0.358 N 
HETATM   14  C8  UNL     1      13.367   7.712  -5.642  1.00  0.00     0.247 C 
HETATM   15  O3  UNL     1      13.224   7.556  -6.848  1.00  0.00    -0.271 OA
HETATM   16  H13 UNL     1      12.549   7.347  -3.789  1.00  0.00     0.162 HD
BRANCH  14  17
HETATM   17  C9  UNL     1      14.294   8.778  -5.040  1.00  0.00     0.219 C 
BRANCH  17  18
HETATM   18  C10 UNL     1      15.807   8.463  -5.173  1.00  0.00     0.009 C 
HETATM   19  C11 UNL     1      16.189   7.152  -4.470  1.00  0.00     0.020 C 
HETATM   20  C12 UNL     1      16.233   8.352  -6.651  1.00  0.00     0.020 C 
BRANCH  18  21
HETATM   21  C13 UNL     1      16.551   9.653  -4.501  1.00  0.00     0.192 C 
BRANCH  21  22
HETATM   22  O4  UNL     1      15.897  10.105  -3.333  1.00  0.00    -0.296 OA
BRANCH  22  23
HETATM   23  P1  UNL     1      16.604  11.054  -2.251  1.00  0.00     0.401 P 
HETATM   24  O5  UNL     1      16.062  12.448  -2.212  1.00  0.00    -0.631 OA
BRANCH  23  25
HETATM   25  O6  UNL     1      18.188  10.981  -2.532  1.00  0.00    -0.307 OA
HETATM   26  H23 UNL     1      18.389  10.499  -3.345  1.00  0.00     0.222 HD
ENDBRANCH  23  25
BRANCH  23  27
HETATM   27  O7  UNL     1      16.498  10.261  -0.876  1.00  0.00    -0.195 OA
BRANCH  27  28
HETATM   28  P2  UNL     1      16.545  11.079   0.490  1.00  0.00     0.401 P 
HETATM   29  O8  UNL     1      17.054  10.356   1.695  1.00  0.00    -0.631 OA
BRANCH  28  30
HETATM   30  O9  UNL     1      17.386  12.382   0.109  1.00  0.00    -0.307 OA
HETATM   31  H24 UNL     1      18.346  12.322   0.333  1.00  0.00     0.222 HD
ENDBRANCH  28  30
BRANCH  28  32
HETATM   32  O10 UNL     1      15.080  11.702   0.618  1.00  0.00    -0.294 OA
BRANCH  32  33
HETATM   33  C14 UNL     1      13.961  10.953   0.220  1.00  0.00     0.215 C 
BRANCH  33  34
HETATM   34  C15 UNL     1      12.776  11.501   1.014  1.00  0.00     0.180 C 
HETATM   35  C16 UNL     1      12.789  13.023   0.975  1.00  0.00     0.197 C 
HETATM   36  C17 UNL     1      12.957  13.444   2.422  1.00  0.00     0.199 C 
HETATM   37  C18 UNL     1      12.385  12.241   3.176  1.00  0.00     0.262 C 
HETATM   38  O11 UNL     1      12.792  11.100   2.388  1.00  0.00    -0.353 OA
BRANCH  35  39
HETATM   39  O13 UNL     1      11.549  13.461   0.429  1.00  0.00    -0.286 OA
BRANCH  39  40
HETATM   40  P3  UNL     1      11.656  14.534  -0.752  1.00  0.00     0.391 P 
HETATM   41  O14 UNL     1      13.043  14.714  -1.279  1.00  0.00    -0.632 OA
BRANCH  40  42
HETATM   42  O15 UNL     1      10.952  15.799  -0.072  1.00  0.00    -0.307 OA
HETATM   43  H36 UNL     1      10.015  15.593   0.160  1.00  0.00     0.222 HD
ENDBRANCH  40  42
BRANCH  40  44
HETATM   44  O16 UNL     1      10.548  14.002  -1.762  1.00  0.00    -0.307 OA
HETATM   45  H37 UNL     1      10.654  14.359  -2.658  1.00  0.00     0.222 HD
ENDBRANCH  40  44
ENDBRANCH  39  40
ENDBRANCH  35  39
BRANCH  36  46
HETATM   46  O12 UNL     1      12.338  14.713   2.645  1.00  0.00    -0.388 OA
HETATM   47  H35 UNL     1      12.556  15.270   1.860  1.00  0.00     0.210 HD
ENDBRANCH  36  46
BRANCH  37  48
HETATM   48  N3  UNL     1      12.936  12.106   4.510  1.00  0.00    -0.297 N 
HETATM   49  C19 UNL     1      12.341  12.472   5.695  1.00  0.00     0.188 A 
HETATM   50  N4  UNL     1      13.047  12.102   6.742  1.00  0.00    -0.346 N 
HETATM   51  C20 UNL     1      14.151  11.461   6.209  1.00  0.00     0.116 A 
HETATM   52  H4  UNL     1      12.829  12.254   7.726  1.00  0.00     0.167 HD
HETATM   53  C21 UNL     1      15.249  10.808   6.795  1.00  0.00     0.109 A 
HETATM   54  C23 UNL     1      14.114  11.491   4.827  1.00  0.00     0.142 A 
HETATM   55  N5  UNL     1      16.196  10.274   5.985  1.00  0.00    -0.341 N 
HETATM   56  C22 UNL     1      16.040  10.401   4.652  1.00  0.00     0.183 A 
HETATM   57  H5  UNL     1      17.005   9.790   6.374  1.00  0.00     0.167 HD
HETATM   58  N6  UNL     1      15.032  10.993   3.979  1.00  0.00    -0.336 N 
HETATM   59  H6  UNL     1      14.974  11.055   2.963  1.00  0.00     0.168 HD
BRANCH  53  60
HETATM   60  N7  UNL     1      15.422  10.688   8.165  1.00  0.00    -0.287 NA
HETATM   61  H33 UNL     1      15.057   9.823   8.559  1.00  0.00     0.125 HD
HETATM   62  H34 UNL     1      15.211  11.541   8.666  1.00  0.00     0.125 HD
ENDBRANCH  53  60
ENDBRANCH  37  48
ENDBRANCH  33  34
ENDBRANCH  32  33
ENDBRANCH  28  32
ENDBRANCH  27  28
ENDBRANCH  23  27
ENDBRANCH  22  23
ENDBRANCH  21  22
ENDBRANCH  18  21
ENDBRANCH  17  18
BRANCH  17  63
HETATM   63  O17 UNL     1      14.040  10.051  -5.645  1.00  0.00    -0.385 OA
HETATM   64  H38 UNL     1      14.772  10.248  -6.252  1.00  0.00     0.210 HD
ENDBRANCH  17  63
ENDBRANCH  14  17
ENDBRANCH  12  13
ENDBRANCH  11  12
ENDBRANCH   8  11
ENDBRANCH   6   7
ENDBRANCH   5   6
ENDBRANCH   4   5
ENDBRANCH   2   4
TORSDOF 27
ENDMDL
MODEL 19
REMARK VINA RESULT:      -5.9      4.025      7.069
REMARK  27 active torsions:
REMARK  status: ('A' for Active; 'I' for Inactive)
REMARK    1  A    between atoms: C2_2  and  S1_4 
REMARK    2  A    between atoms: S1_4  and  C3_5 
REMARK    3  A    between atoms: C3_5  and  C4_6 
REMARK    4  A    between atoms: C4_6  and  N1_7 
REMARK       I    between atoms: N1_7  and  C5_8 
REMARK    5  A    between atoms: C5_8  and  C6_10 
REMARK    6  A    between atoms: C6_10  and  C7_11 
REMARK    7  A    between atoms: C7_11  and  N2_12 
REMARK       I    between atoms: N2_12  and  C8_13 
REMARK    8  A    between atoms: C8_13  and  C9_15 
REMARK    9  A    between atoms: C9_15  and  C10_16 
REMARK   10  A    between atoms: C9_15  and  O17_54 
REMARK   11  A    between atoms: C10_16  and  C13_19 
REMARK   12  A    between atoms: C13_19  and  O4_20 
REMARK   13  A    between atoms: O4_20  and  P1_21 
REMARK   14  A    between atoms: P1_21  and  O6_23 
REMARK   15  A    between atoms: P1_21  and  O7_24 
REMARK   16  A    between atoms: O7_24  and  P2_25 
REMARK   17  A    between atoms: P2_25  and  O9_27 
REMARK   18  A    between atoms: P2_25  and  O10_28 
REMARK   19  A    between atoms: O10_28  and  C14_29 
REMARK   20  A    between atoms: C14_29  and  C15_30 
REMARK   21  A    between atoms: C16_31  and  O13_49 
REMARK   22  A    between atoms: C17_32  and  O12_48 
REMARK   23  A    between atoms: C18_33  and  N3_35 
REMARK   24  A    between atoms: C21_40  and  N7_47 
REMARK   25  A    between atoms: O13_49  and  P3_50 
REMARK   26  A    between atoms: P3_50  and  O15_52 
REMARK   27  A    between atoms: P3_50  and  O16_53 
ROOT
HETATM    1  C1  UNL     1       3.438  10.667  -2.184  1.00  0.00     0.104 C 
HETATM    2  C2  UNL     1       4.867  10.657  -1.737  1.00  0.00     0.182 C 
HETATM    3  O1  UNL     1       5.204  10.632  -0.556  1.00  0.00    -0.286 OA
ENDROOT
BRANCH   2   4
HETATM    4  S1  UNL     1       6.038  10.724  -3.047  1.00  0.00    -0.091 SA
BRANCH   4   5
HETATM    5  C3  UNL     1       7.566  10.329  -2.137  1.00  0.00     0.102 C 
BRANCH   5   6
HETATM    6  C4  UNL     1       7.923   8.844  -2.240  1.00  0.00     0.133 C 
BRANCH   6   7
HETATM    7  N1  UNL     1       9.338   8.595  -2.058  1.00  0.00    -0.360 N 
HETATM    8  C5  UNL     1      10.217   8.609  -3.115  1.00  0.00     0.219 C 
HETATM    9  O2  UNL     1       9.851   8.751  -4.276  1.00  0.00    -0.274 OA
HETATM   10  H8  UNL     1       9.684   8.414  -1.125  1.00  0.00     0.162 HD
BRANCH   8  11
HETATM   11  C6  UNL     1      11.655   8.381  -2.702  1.00  0.00     0.122 C 
BRANCH  11  12
HETATM   12  C7  UNL     1      12.544   9.576  -3.045  1.00  0.00     0.132 C 
BRANCH  12  13
HETATM   13  N2  UNL     1      12.945  10.338  -1.881  1.00  0.00    -0.358 N 
HETATM   14  C8  UNL     1      13.300  11.668  -2.007  1.00  0.00     0.247 C 
HETATM   15  O3  UNL     1      13.405  12.214  -3.099  1.00  0.00    -0.271 OA
HETATM   16  H13 UNL     1      12.519  10.051  -1.002  1.00  0.00     0.162 HD
BRANCH  14  17
HETATM   17  C9  UNL     1      13.531  12.403  -0.678  1.00  0.00     0.219 C 
BRANCH  17  18
HETATM   18  C10 UNL     1      12.404  13.395  -0.288  1.00  0.00     0.009 C 
HETATM   19  C11 UNL     1      12.408  14.651  -1.172  1.00  0.00     0.020 C 
HETATM   20  C12 UNL     1      11.012  12.741  -0.398  1.00  0.00     0.020 C 
BRANCH  18  21
HETATM   21  C13 UNL     1      12.680  13.795   1.190  1.00  0.00     0.192 C 
BRANCH  21  22
HETATM   22  O4  UNL     1      11.913  13.039   2.105  1.00  0.00    -0.296 OA
BRANCH  22  23
HETATM   23  P1  UNL     1      12.270  12.938   3.665  1.00  0.00     0.401 P 
HETATM   24  O5  UNL     1      11.429  13.809   4.543  1.00  0.00    -0.631 OA
BRANCH  23  25
HETATM   25  O6  UNL     1      13.851  13.213   3.799  1.00  0.00    -0.307 OA
HETATM   26  H23 UNL     1      14.073  13.641   4.636  1.00  0.00     0.222 HD
ENDBRANCH  23  25
BRANCH  23  27
HETATM   27  O7  UNL     1      12.197  11.385   4.002  1.00  0.00    -0.195 OA
BRANCH  27  28
HETATM   28  P2  UNL     1      13.089  10.813   5.192  1.00  0.00     0.401 P 
HETATM   29  O8  UNL     1      13.322  11.717   6.359  1.00  0.00    -0.631 OA
BRANCH  28  30
HETATM   30  O9  UNL     1      12.364   9.440   5.567  1.00  0.00    -0.307 OA
HETATM   31  H24 UNL     1      11.461   9.341   5.177  1.00  0.00     0.222 HD
ENDBRANCH  28  30
BRANCH  28  32
HETATM   32  O10 UNL     1      14.399  10.263   4.463  1.00  0.00    -0.294 OA
BRANCH  32  33
HETATM   33  C14 UNL     1      14.311   9.730   3.168  1.00  0.00     0.215 C 
BRANCH  33  34
HETATM   34  C15 UNL     1      15.748   9.545   2.684  1.00  0.00     0.180 C 
HETATM   35  C16 UNL     1      16.508  10.858   2.810  1.00  0.00     0.197 C 
HETATM   36  C17 UNL     1      16.897  11.216   1.388  1.00  0.00     0.199 C 
HETATM   37  C18 UNL     1      16.920   9.846   0.706  1.00  0.00     0.262 C 
HETATM   38  O11 UNL     1      15.827   9.125   1.317  1.00  0.00    -0.353 OA
BRANCH  35  39
HETATM   39  O13 UNL     1      17.645  10.632   3.637  1.00  0.00    -0.286 OA
BRANCH  39  40
HETATM   40  P3  UNL     1      17.625  11.372   5.054  1.00  0.00     0.391 P 
HETATM   41  O14 UNL     1      18.958  11.895   5.480  1.00  0.00    -0.632 OA
BRANCH  40  42
HETATM   42  O15 UNL     1      16.943  10.250   5.968  1.00  0.00    -0.307 OA
HETATM   43  H36 UNL     1      16.699   9.461   5.428  1.00  0.00     0.222 HD
ENDBRANCH  40  42
BRANCH  40  44
HETATM   44  O16 UNL     1      16.453  12.426   4.843  1.00  0.00    -0.307 OA
HETATM   45  H37 UNL     1      16.231  12.911   5.654  1.00  0.00     0.222 HD
ENDBRANCH  40  44
ENDBRANCH  39  40
ENDBRANCH  35  39
BRANCH  36  46
HETATM   46  O12 UNL     1      18.110  11.974   1.382  1.00  0.00    -0.388 OA
HETATM   47  H35 UNL     1      18.272  12.248   2.316  1.00  0.00     0.210 HD
ENDBRANCH  36  46
BRANCH  37  48
HETATM   48  N3  UNL     1      16.682   9.932  -0.721  1.00  0.00    -0.297 N 
HETATM   49  C19 UNL     1      17.004  10.976  -1.556  1.00  0.00     0.188 A 
HETATM   50  N4  UNL     1      16.772  10.694  -2.820  1.00  0.00    -0.346 N 
HETATM   51  C20 UNL     1      16.280   9.400  -2.803  1.00  0.00     0.116 A 
HETATM   52  H4  UNL     1      16.922  11.293  -3.631  1.00  0.00     0.167 HD
HETATM   53  C21 UNL     1      15.887   8.518  -3.824  1.00  0.00     0.109 A 
HETATM   54  C23 UNL     1      16.182   8.931  -1.506  1.00  0.00     0.142 A 
HETATM   55  N5  UNL     1      15.427   7.290  -3.479  1.00  0.00    -0.341 N 
HETATM   56  C22 UNL     1      15.364   6.977  -2.170  1.00  0.00     0.183 A 
HETATM   57  H5  UNL     1      15.136   6.621  -4.192  1.00  0.00     0.167 HD
HETATM   58  N6  UNL     1      15.719   7.732  -1.110  1.00  0.00    -0.336 N 
HETATM   59  H6  UNL     1      15.646   7.434  -0.137  1.00  0.00     0.168 HD
BRANCH  53  60
HETATM   60  N7  UNL     1      15.935   8.840  -5.171  1.00  0.00    -0.287 NA
HETATM   61  H33 UNL     1      15.163   8.466  -5.719  1.00  0.00     0.125 HD
HETATM   62  H34 UNL     1      16.861   8.748  -5.566  1.00  0.00     0.125 HD
ENDBRANCH  53  60
ENDBRANCH  37  48
ENDBRANCH  33  34
ENDBRANCH  32  33
ENDBRANCH  28  32
ENDBRANCH  27  28
ENDBRANCH  23  27
ENDBRANCH  22  23
ENDBRANCH  21  22
ENDBRANCH  18  21
ENDBRANCH  17  18
BRANCH  17  63
HETATM   63  O17 UNL     1      13.693  11.458   0.385  1.00  0.00    -0.385 OA
HETATM   64  H38 UNL     1      12.868  11.438   0.899  1.00  0.00     0.210 HD
ENDBRANCH  17  63
ENDBRANCH  14  17
ENDBRANCH  12  13
ENDBRANCH  11  12
ENDBRANCH   8  11
ENDBRANCH   6   7
ENDBRANCH   5   6
ENDBRANCH   4   5
ENDBRANCH   2   4
TORSDOF 27
ENDMDL
MODEL 20
REMARK VINA RESULT:      -5.9      3.430      5.649
REMARK  27 active torsions:
REMARK  status: ('A' for Active; 'I' for Inactive)
REMARK    1  A    between atoms: C2_2  and  S1_4 
REMARK    2  A    between atoms: S1_4  and  C3_5 
REMARK    3  A    between atoms: C3_5  and  C4_6 
REMARK    4  A    between atoms: C4_6  and  N1_7 
REMARK       I    between atoms: N1_7  and  C5_8 
REMARK    5  A    between atoms: C5_8  and  C6_10 
REMARK    6  A    between atoms: C6_10  and  C7_11 
REMARK    7  A    between atoms: C7_11  and  N2_12 
REMARK       I    between atoms: N2_12  and  C8_13 
REMARK    8  A    between atoms: C8_13  and  C9_15 
REMARK    9  A    between atoms: C9_15  and  C10_16 
REMARK   10  A    between atoms: C9_15  and  O17_54 
REMARK   11  A    between atoms: C10_16  and  C13_19 
REMARK   12  A    between atoms: C13_19  and  O4_20 
REMARK   13  A    between atoms: O4_20  and  P1_21 
REMARK   14  A    between atoms: P1_21  and  O6_23 
REMARK   15  A    between atoms: P1_21  and  O7_24 
REMARK   16  A    between atoms: O7_24  and  P2_25 
REMARK   17  A    between atoms: P2_25  and  O9_27 
REMARK   18  A    between atoms: P2_25  and  O10_28 
REMARK   19  A    between atoms: O10_28  and  C14_29 
REMARK   20  A    between atoms: C14_29  and  C15_30 
REMARK   21  A    between atoms: C16_31  and  O13_49 
REMARK   22  A    between atoms: C17_32  and  O12_48 
REMARK   23  A    between atoms: C18_33  and  N3_35 
REMARK   24  A    between atoms: C21_40  and  N7_47 
REMARK   25  A    between atoms: O13_49  and  P3_50 
REMARK   26  A    between atoms: P3_50  and  O15_52 
REMARK   27  A    between atoms: P3_50  and  O16_53 
ROOT
HETATM    1  C1  UNL     1       8.607   6.670  -0.657  1.00  0.00     0.104 C 
HETATM    2  C2  UNL     1       8.532   5.383  -1.419  1.00  0.00     0.182 C 
HETATM    3  O1  UNL     1       8.149   4.326  -0.922  1.00  0.00    -0.286 OA
ENDROOT
BRANCH   2   4
HETATM    4  S1  UNL     1       9.078   5.494  -3.087  1.00  0.00    -0.091 SA
BRANCH   4   5
HETATM    5  C3  UNL     1      10.857   5.790  -2.825  1.00  0.00     0.102 C 
BRANCH   5   6
HETATM    6  C4  UNL     1      11.253   7.226  -3.174  1.00  0.00     0.133 C 
BRANCH   6   7
HETATM    7  N1  UNL     1      12.445   7.294  -3.995  1.00  0.00    -0.360 N 
HETATM    8  C5  UNL     1      12.401   7.727  -5.300  1.00  0.00     0.219 C 
HETATM    9  O2  UNL     1      11.351   8.003  -5.869  1.00  0.00    -0.274 OA
HETATM   10  H8  UNL     1      13.330   7.021  -3.590  1.00  0.00     0.162 HD
BRANCH   8  11
HETATM   11  C6  UNL     1      13.762   7.775  -5.961  1.00  0.00     0.122 C 
BRANCH  11  12
HETATM   12  C7  UNL     1      14.485   9.093  -5.685  1.00  0.00     0.132 C 
BRANCH  12  13
HETATM   13  N2  UNL     1      15.696   8.924  -4.911  1.00  0.00    -0.358 N 
HETATM   14  C8  UNL     1      15.647   8.932  -3.529  1.00  0.00     0.247 C 
HETATM   15  O3  UNL     1      14.621   9.195  -2.915  1.00  0.00    -0.271 OA
HETATM   16  H13 UNL     1      16.420   8.356  -5.348  1.00  0.00     0.162 HD
BRANCH  14  17
HETATM   17  C9  UNL     1      16.968   8.566  -2.835  1.00  0.00     0.219 C 
BRANCH  17  18
HETATM   18  C10 UNL     1      17.041   7.104  -2.321  1.00  0.00     0.009 C 
HETATM   19  C11 UNL     1      16.107   6.169  -3.103  1.00  0.00     0.020 C 
HETATM   20  C12 UNL     1      18.473   6.540  -2.424  1.00  0.00     0.020 C 
BRANCH  18  21
HETATM   21  C13 UNL     1      16.603   7.154  -0.830  1.00  0.00     0.192 C 
BRANCH  21  22
HETATM   22  O4  UNL     1      17.586   7.739   0.001  1.00  0.00    -0.296 OA
BRANCH  22  23
HETATM   23  P1  UNL     1      17.809   7.299   1.527  1.00  0.00     0.401 P 
HETATM   24  O5  UNL     1      18.186   5.862   1.701  1.00  0.00    -0.631 OA
BRANCH  23  25
HETATM   25  O6  UNL     1      16.482   7.724   2.333  1.00  0.00    -0.307 OA
HETATM   26  H23 UNL     1      15.718   7.816   1.749  1.00  0.00     0.222 HD
ENDBRANCH  23  25
BRANCH  23  27
HETATM   27  O7  UNL     1      18.867   8.339   2.103  1.00  0.00    -0.195 OA
BRANCH  27  28
HETATM   28  P2  UNL     1      18.493   9.887   2.122  1.00  0.00     0.401 P 
HETATM   29  O8  UNL     1      19.619  10.853   2.295  1.00  0.00    -0.631 OA
BRANCH  28  30
HETATM   30  O9  UNL     1      17.669  10.082   0.769  1.00  0.00    -0.307 OA
HETATM   31  H24 UNL     1      18.219  10.368  -0.001  1.00  0.00     0.222 HD
ENDBRANCH  28  30
BRANCH  28  32
HETATM   32  O10 UNL     1      17.317   9.987   3.199  1.00  0.00    -0.294 OA
BRANCH  32  33
HETATM   33  C14 UNL     1      17.622  10.056   4.567  1.00  0.00     0.215 C 
BRANCH  33  34
HETATM   34  C15 UNL     1      16.403  10.680   5.245  1.00  0.00     0.180 C 
HETATM   35  C16 UNL     1      15.496   9.582   5.785  1.00  0.00     0.197 C 
HETATM   36  C17 UNL     1      14.193   9.753   5.027  1.00  0.00     0.199 C 
HETATM   37  C18 UNL     1      14.233  11.234   4.646  1.00  0.00     0.262 C 
HETATM   38  O11 UNL     1      15.625  11.491   4.358  1.00  0.00    -0.353 OA
BRANCH  35  39
HETATM   39  O13 UNL     1      15.335   9.792   7.184  1.00  0.00    -0.286 OA
BRANCH  39  40
HETATM   40  P3  UNL     1      15.732   8.556   8.117  1.00  0.00     0.391 P 
HETATM   41  O14 UNL     1      15.474   8.790   9.570  1.00  0.00    -0.632 OA
BRANCH  40  42
HETATM   42  O15 UNL     1      17.247   8.314   7.663  1.00  0.00    -0.307 OA
HETATM   43  H36 UNL     1      17.785   7.969   8.415  1.00  0.00     0.222 HD
ENDBRANCH  40  42
BRANCH  40  44
HETATM   44  O16 UNL     1      14.949   7.365   7.412  1.00  0.00    -0.307 OA
HETATM   45  H37 UNL     1      15.077   7.347   6.450  1.00  0.00     0.222 HD
ENDBRANCH  40  44
ENDBRANCH  39  40
ENDBRANCH  35  39
BRANCH  36  46
HETATM   46  O12 UNL     1      13.093   9.309   5.826  1.00  0.00    -0.388 OA
HETATM   47  H35 UNL     1      13.481   8.958   6.663  1.00  0.00     0.210 HD
ENDBRANCH  36  46
BRANCH  37  48
HETATM   48  N3  UNL     1      13.450  11.526   3.462  1.00  0.00    -0.297 N 
HETATM   49  C19 UNL     1      12.400  12.408   3.355  1.00  0.00     0.188 A 
HETATM   50  N4  UNL     1      11.982  12.538   2.115  1.00  0.00    -0.346 N 
HETATM   51  C20 UNL     1      12.805  11.703   1.380  1.00  0.00     0.116 A 
HETATM   52  H4  UNL     1      11.221  13.124   1.771  1.00  0.00     0.167 HD
HETATM   53  C21 UNL     1      12.899  11.428   0.005  1.00  0.00     0.109 A 
HETATM   54  C23 UNL     1      13.693  11.040   2.207  1.00  0.00     0.142 A 
HETATM   55  N5  UNL     1      13.825  10.531  -0.415  1.00  0.00    -0.341 N 
HETATM   56  C22 UNL     1      14.609   9.943   0.509  1.00  0.00     0.183 A 
HETATM   57  H5  UNL     1      13.925  10.308  -1.406  1.00  0.00     0.167 HD
HETATM   58  N6  UNL     1      14.617  10.132   1.845  1.00  0.00    -0.336 N 
HETATM   59  H6  UNL     1      15.240   9.652   2.494  1.00  0.00     0.168 HD
BRANCH  53  60
HETATM   60  N7  UNL     1      12.085  12.019  -0.948  1.00  0.00    -0.287 NA
HETATM   61  H33 UNL     1      12.030  11.508  -1.827  1.00  0.00     0.125 HD
HETATM   62  H34 UNL     1      12.214  13.020  -1.011  1.00  0.00     0.125 HD
ENDBRANCH  53  60
ENDBRANCH  37  48
ENDBRANCH  33  34
ENDBRANCH  32  33
ENDBRANCH  28  32
ENDBRANCH  27  28
ENDBRANCH  23  27
ENDBRANCH  22  23
ENDBRANCH  21  22
ENDBRANCH  18  21
ENDBRANCH  17  18
BRANCH  17  63
HETATM   63  O17 UNL     1      18.069   8.792  -3.722  1.00  0.00    -0.385 OA
HETATM   64  H38 UNL     1      18.199   9.751  -3.805  1.00  0.00     0.210 HD
ENDBRANCH  17  63
ENDBRANCH  14  17
ENDBRANCH  12  13
ENDBRANCH  11  12
ENDBRANCH   8  11
ENDBRANCH   6   7
ENDBRANCH   5   6
ENDBRANCH   4   5
ENDBRANCH   2   4
TORSDOF 27
ENDMDL
