MODEL 1
REMARK VINA RESULT:      -3.4      0.000      0.000
REMARK  2 active torsions:
REMARK  status: ('A' for Active; 'I' for Inactive)
REMARK    1  A    between atoms: C3_3  and  O1_8 
REMARK    2  A    between atoms: C6_6  and  N1_7 
ROOT
HETATM    1  C1  UNL     1      11.297   2.163  11.975  1.00  0.00     0.026 A 
HETATM    2  C2  UNL     1      11.363   0.777  12.131  1.00  0.00     0.038 A 
HETATM    3  C3  UNL     1      10.310   0.102  12.732  1.00  0.00     0.065 A 
HETATM    4  C4  UNL     1       9.183   0.791  13.166  1.00  0.00     0.038 A 
HETATM    5  C5  UNL     1       9.125   2.179  13.008  1.00  0.00     0.026 A 
HETATM    6  C6  UNL     1      10.200   2.884  12.458  1.00  0.00     0.005 A 
ENDROOT
BRANCH   6   7
HETATM    7  N1  UNL     1      10.085   4.253  12.194  1.00  0.00    -0.303 NA
HETATM    8  H5  UNL     1      10.880   4.798  12.512  1.00  0.00     0.124 HD
HETATM    9  H6  UNL     1       9.200   4.654  12.488  1.00  0.00     0.124 HD
ENDBRANCH   6   7
BRANCH   3  10
HETATM   10  O1  UNL     1      10.411  -1.251  12.864  1.00  0.00    -0.361 OA
HETATM   11  H7  UNL     1      10.840  -1.448  13.712  1.00  0.00     0.217 HD
ENDBRANCH   3  10
TORSDOF 2
ENDMDL
MODEL 2
REMARK VINA RESULT:      -3.3      2.782      3.677
REMARK  2 active torsions:
REMARK  status: ('A' for Active; 'I' for Inactive)
REMARK    1  A    between atoms: C3_3  and  O1_8 
REMARK    2  A    between atoms: C6_6  and  N1_7 
ROOT
HETATM    1  C1  UNL     1       9.352   0.812  13.466  1.00  0.00     0.026 A 
HETATM    2  C2  UNL     1       9.190   2.175  13.203  1.00  0.00     0.038 A 
HETATM    3  C3  UNL     1      10.121   2.839  12.418  1.00  0.00     0.065 A 
HETATM    4  C4  UNL     1      11.206   2.158  11.877  1.00  0.00     0.038 A 
HETATM    5  C5  UNL     1      11.363   0.795  12.145  1.00  0.00     0.026 A 
HETATM    6  C6  UNL     1      10.467   0.121  12.982  1.00  0.00     0.005 A 
ENDROOT
BRANCH   6   7
HETATM    7  N1  UNL     1      10.565  -1.265  13.148  1.00  0.00    -0.303 NA
HETATM    8  H5  UNL     1      11.513  -1.591  13.307  1.00  0.00     0.124 HD
HETATM    9  H6  UNL     1      10.088  -1.799  12.429  1.00  0.00     0.124 HD
ENDBRANCH   6   7
BRANCH   3  10
HETATM   10  O1  UNL     1       9.926   4.167  12.182  1.00  0.00    -0.361 OA
HETATM   11  H7  UNL     1      10.280   4.670  12.932  1.00  0.00     0.217 HD
ENDBRANCH   3  10
TORSDOF 2
ENDMDL
MODEL 3
REMARK VINA RESULT:      -3.1     17.038     17.757
REMARK  2 active torsions:
REMARK  status: ('A' for Active; 'I' for Inactive)
REMARK    1  A    between atoms: C3_3  and  O1_8 
REMARK    2  A    between atoms: C6_6  and  N1_7 
ROOT
HETATM    1  C1  UNL     1      -3.441  12.959  12.669  1.00  0.00     0.026 A 
HETATM    2  C2  UNL     1      -4.077  13.012  11.427  1.00  0.00     0.038 A 
HETATM    3  C3  UNL     1      -3.334  13.274  10.284  1.00  0.00     0.065 A 
HETATM    4  C4  UNL     1      -1.959  13.469  10.363  1.00  0.00     0.038 A 
HETATM    5  C5  UNL     1      -1.330  13.416  11.610  1.00  0.00     0.026 A 
HETATM    6  C6  UNL     1      -2.070  13.211  12.779  1.00  0.00     0.005 A 
ENDROOT
BRANCH   6   7
HETATM    7  N1  UNL     1      -1.417  13.041  14.005  1.00  0.00    -0.303 NA
HETATM    8  H5  UNL     1      -1.919  12.442  14.654  1.00  0.00     0.124 HD
HETATM    9  H6  UNL     1      -1.117  13.909  14.434  1.00  0.00     0.124 HD
ENDBRANCH   6   7
BRANCH   3  10
HETATM   10  O1  UNL     1      -3.991  13.315   9.091  1.00  0.00    -0.361 OA
HETATM   11  H7  UNL     1      -4.914  13.569   9.254  1.00  0.00     0.217 HD
ENDBRANCH   3  10
TORSDOF 2
ENDMDL
MODEL 4
REMARK VINA RESULT:      -3.1     11.044     12.030
REMARK  2 active torsions:
REMARK  status: ('A' for Active; 'I' for Inactive)
REMARK    1  A    between atoms: C3_3  and  O1_8 
REMARK    2  A    between atoms: C6_6  and  N1_7 
ROOT
HETATM    1  C1  UNL     1       0.802   1.368  20.103  1.00  0.00     0.026 A 
HETATM    2  C2  UNL     1      -0.479   1.862  19.846  1.00  0.00     0.038 A 
HETATM    3  C3  UNL     1      -0.782   2.366  18.590  1.00  0.00     0.065 A 
HETATM    4  C4  UNL     1       0.173   2.370  17.579  1.00  0.00     0.038 A 
HETATM    5  C5  UNL     1       1.454   1.876  17.844  1.00  0.00     0.026 A 
HETATM    6  C6  UNL     1       1.795   1.417  19.120  1.00  0.00     0.005 A 
ENDROOT
BRANCH   6   7
HETATM    7  N1  UNL     1       3.039   0.816  19.343  1.00  0.00    -0.303 NA
HETATM    8  H5  UNL     1       2.977  -0.161  19.614  1.00  0.00     0.124 HD
HETATM    9  H6  UNL     1       3.649   1.348  19.955  1.00  0.00     0.124 HD
ENDBRANCH   6   7
BRANCH   3  10
HETATM   10  O1  UNL     1      -2.044   2.836  18.378  1.00  0.00    -0.361 OA
HETATM   11  H7  UNL     1      -2.048   3.794  18.535  1.00  0.00     0.217 HD
ENDBRANCH   3  10
TORSDOF 2
ENDMDL
MODEL 5
REMARK VINA RESULT:      -3.0     10.446     11.380
REMARK  2 active torsions:
REMARK  status: ('A' for Active; 'I' for Inactive)
REMARK    1  A    between atoms: C3_3  and  O1_8 
REMARK    2  A    between atoms: C6_6  and  N1_7 
ROOT
HETATM    1  C1  UNL     1       1.636   2.958  17.303  1.00  0.00     0.026 A 
HETATM    2  C2  UNL     1       0.376   2.399  17.530  1.00  0.00     0.038 A 
HETATM    3  C3  UNL     1      -0.640   3.183  18.056  1.00  0.00     0.065 A 
HETATM    4  C4  UNL     1      -0.422   4.525  18.345  1.00  0.00     0.038 A 
HETATM    5  C5  UNL     1       0.842   5.078  18.116  1.00  0.00     0.026 A 
HETATM    6  C6  UNL     1       1.895   4.290  17.642  1.00  0.00     0.005 A 
ENDROOT
BRANCH   6   7
HETATM    7  N1  UNL     1       3.119   4.878  17.305  1.00  0.00    -0.303 NA
HETATM    8  H5  UNL     1       3.085   5.891  17.254  1.00  0.00     0.124 HD
HETATM    9  H6  UNL     1       3.563   4.465  16.491  1.00  0.00     0.124 HD
ENDBRANCH   6   7
BRANCH   3  10
HETATM   10  O1  UNL     1      -1.855   2.600  18.260  1.00  0.00    -0.361 OA
HETATM   11  H7  UNL     1      -1.735   1.822  18.828  1.00  0.00     0.217 HD
ENDBRANCH   3  10
TORSDOF 2
ENDMDL
MODEL 6
REMARK VINA RESULT:      -3.0      1.474      2.360
REMARK  2 active torsions:
REMARK  status: ('A' for Active; 'I' for Inactive)
REMARK    1  A    between atoms: C3_3  and  O1_8 
REMARK    2  A    between atoms: C6_6  and  N1_7 
ROOT
HETATM    1  C1  UNL     1       8.757   3.198  14.034  1.00  0.00     0.026 A 
HETATM    2  C2  UNL     1       8.356   2.017  14.661  1.00  0.00     0.038 A 
HETATM    3  C3  UNL     1       8.830   0.797  14.199  1.00  0.00     0.065 A 
HETATM    4  C4  UNL     1       9.714   0.742  13.127  1.00  0.00     0.038 A 
HETATM    5  C5  UNL     1      10.110   1.929  12.503  1.00  0.00     0.026 A 
HETATM    6  C6  UNL     1       9.598   3.162  12.917  1.00  0.00     0.005 A 
ENDROOT
BRANCH   6   7
HETATM    7  N1  UNL     1      10.091   4.351  12.367  1.00  0.00    -0.303 NA
HETATM    8  H5  UNL     1      11.006   4.253  11.939  1.00  0.00     0.124 HD
HETATM    9  H6  UNL     1      10.041   5.146  12.995  1.00  0.00     0.124 HD
ENDBRANCH   6   7
BRANCH   3  10
HETATM   10  O1  UNL     1       8.417  -0.332  14.839  1.00  0.00    -0.361 OA
HETATM   11  H7  UNL     1       7.780  -0.795  14.271  1.00  0.00     0.217 HD
ENDBRANCH   3  10
TORSDOF 2
ENDMDL
MODEL 7
REMARK VINA RESULT:      -3.0      9.306      9.973
REMARK  2 active torsions:
REMARK  status: ('A' for Active; 'I' for Inactive)
REMARK    1  A    between atoms: C3_3  and  O1_8 
REMARK    2  A    between atoms: C6_6  and  N1_7 
ROOT
HETATM    1  C1  UNL     1       2.816   1.444  18.728  1.00  0.00     0.026 A 
HETATM    2  C2  UNL     1       1.509   1.530  18.242  1.00  0.00     0.038 A 
HETATM    3  C3  UNL     1       1.127   2.631  17.489  1.00  0.00     0.065 A 
HETATM    4  C4  UNL     1       2.038   3.642  17.199  1.00  0.00     0.038 A 
HETATM    5  C5  UNL     1       3.343   3.549  17.690  1.00  0.00     0.026 A 
HETATM    6  C6  UNL     1       3.731   2.477  18.500  1.00  0.00     0.005 A 
ENDROOT
BRANCH   6   7
HETATM    7  N1  UNL     1       5.068   2.332  18.886  1.00  0.00    -0.303 NA
HETATM    8  H5  UNL     1       5.727   2.765  18.246  1.00  0.00     0.124 HD
HETATM    9  H6  UNL     1       5.327   1.380  19.122  1.00  0.00     0.124 HD
ENDBRANCH   6   7
BRANCH   3  10
HETATM   10  O1  UNL     1      -0.155   2.677  17.031  1.00  0.00    -0.361 OA
HETATM   11  H7  UNL     1      -0.137   2.825  16.071  1.00  0.00     0.217 HD
ENDBRANCH   3  10
TORSDOF 2
ENDMDL
MODEL 8
REMARK VINA RESULT:      -3.0     10.529     11.520
REMARK  2 active torsions:
REMARK  status: ('A' for Active; 'I' for Inactive)
REMARK    1  A    between atoms: C3_3  and  O1_8 
REMARK    2  A    between atoms: C6_6  and  N1_7 
ROOT
HETATM    1  C1  UNL     1       0.486   2.529  17.448  1.00  0.00     0.026 A 
HETATM    2  C2  UNL     1       1.717   3.140  17.199  1.00  0.00     0.038 A 
HETATM    3  C3  UNL     1       1.905   4.472  17.540  1.00  0.00     0.065 A 
HETATM    4  C4  UNL     1       0.884   5.200  18.141  1.00  0.00     0.038 A 
HETATM    5  C5  UNL     1      -0.346   4.582  18.386  1.00  0.00     0.026 A 
HETATM    6  C6  UNL     1      -0.574   3.258  17.996  1.00  0.00     0.005 A 
ENDROOT
BRANCH   6   7
HETATM    7  N1  UNL     1      -1.764   2.613  18.352  1.00  0.00    -0.303 NA
HETATM    8  H5  UNL     1      -1.836   1.665  17.996  1.00  0.00     0.124 HD
HETATM    9  H6  UNL     1      -2.598   3.160  18.166  1.00  0.00     0.124 HD
ENDBRANCH   6   7
BRANCH   3  10
HETATM   10  O1  UNL     1       3.121   5.032  17.284  1.00  0.00    -0.361 OA
HETATM   11  H7  UNL     1       3.254   5.057  16.323  1.00  0.00     0.217 HD
ENDBRANCH   3  10
TORSDOF 2
ENDMDL
MODEL 9
REMARK VINA RESULT:      -3.0      6.600      7.463
REMARK  2 active torsions:
REMARK  status: ('A' for Active; 'I' for Inactive)
REMARK    1  A    between atoms: C3_3  and  O1_8 
REMARK    2  A    between atoms: C6_6  and  N1_7 
ROOT
HETATM    1  C1  UNL     1       5.778   4.976  14.491  1.00  0.00     0.026 A 
HETATM    2  C2  UNL     1       5.212   4.594  15.709  1.00  0.00     0.038 A 
HETATM    3  C3  UNL     1       4.884   5.561  16.648  1.00  0.00     0.065 A 
HETATM    4  C4  UNL     1       5.098   6.909  16.381  1.00  0.00     0.038 A 
HETATM    5  C5  UNL     1       5.667   7.283  15.160  1.00  0.00     0.026 A 
HETATM    6  C6  UNL     1       6.059   6.319  14.225  1.00  0.00     0.005 A 
ENDROOT
BRANCH   6   7
HETATM    7  N1  UNL     1       6.515   6.708  12.961  1.00  0.00    -0.303 NA
HETATM    8  H5  UNL     1       5.875   7.322  12.467  1.00  0.00     0.124 HD
HETATM    9  H6  UNL     1       6.833   5.937  12.384  1.00  0.00     0.124 HD
ENDBRANCH   6   7
BRANCH   3  10
HETATM   10  O1  UNL     1       4.331   5.149  17.823  1.00  0.00    -0.361 OA
HETATM   11  H7  UNL     1       4.485   4.196  17.921  1.00  0.00     0.217 HD
ENDBRANCH   3  10
TORSDOF 2
ENDMDL
MODEL 10
REMARK VINA RESULT:      -3.0      9.212      9.863
REMARK  2 active torsions:
REMARK  status: ('A' for Active; 'I' for Inactive)
REMARK    1  A    between atoms: C3_3  and  O1_8 
REMARK    2  A    between atoms: C6_6  and  N1_7 
ROOT
HETATM    1  C1  UNL     1       1.613   1.538  18.292  1.00  0.00     0.026 A 
HETATM    2  C2  UNL     1       2.927   1.461  18.760  1.00  0.00     0.038 A 
HETATM    3  C3  UNL     1       3.821   2.483  18.473  1.00  0.00     0.065 A 
HETATM    4  C4  UNL     1       3.416   3.591  17.737  1.00  0.00     0.038 A 
HETATM    5  C5  UNL     1       2.100   3.661  17.271  1.00  0.00     0.026 A 
HETATM    6  C6  UNL     1       1.201   2.614  17.500  1.00  0.00     0.005 A 
ENDROOT
BRANCH   6   7
HETATM    7  N1  UNL     1      -0.143   2.746  17.134  1.00  0.00    -0.303 NA
HETATM    8  H5  UNL     1      -0.608   1.860  16.963  1.00  0.00     0.124 HD
HETATM    9  H6  UNL     1      -0.301   3.415  16.388  1.00  0.00     0.124 HD
ENDBRANCH   6   7
BRANCH   3  10
HETATM   10  O1  UNL     1       5.092   2.372  18.950  1.00  0.00    -0.361 OA
HETATM   11  H7  UNL     1       5.088   1.762  19.705  1.00  0.00     0.217 HD
ENDBRANCH   3  10
TORSDOF 2
ENDMDL
MODEL 11
REMARK VINA RESULT:      -2.9      7.459      8.344
REMARK  2 active torsions:
REMARK  status: ('A' for Active; 'I' for Inactive)
REMARK    1  A    between atoms: C3_3  and  O1_8 
REMARK    2  A    between atoms: C6_6  and  N1_7 
ROOT
HETATM    1  C1  UNL     1       5.762   7.064  14.854  1.00  0.00     0.026 A 
HETATM    2  C2  UNL     1       5.380   7.516  16.119  1.00  0.00     0.038 A 
HETATM    3  C3  UNL     1       6.318   8.116  16.947  1.00  0.00     0.065 A 
HETATM    4  C4  UNL     1       7.631   8.287  16.522  1.00  0.00     0.038 A 
HETATM    5  C5  UNL     1       8.006   7.831  15.255  1.00  0.00     0.026 A 
HETATM    6  C6  UNL     1       7.090   7.171  14.430  1.00  0.00     0.005 A 
ENDROOT
BRANCH   6   7
HETATM    7  N1  UNL     1       7.442   6.826  13.120  1.00  0.00    -0.303 NA
HETATM    8  H5  UNL     1       7.906   7.573  12.612  1.00  0.00     0.124 HD
HETATM    9  H6  UNL     1       6.686   6.409  12.588  1.00  0.00     0.124 HD
ENDBRANCH   6   7
BRANCH   3  10
HETATM   10  O1  UNL     1       5.906   8.545  18.173  1.00  0.00    -0.361 OA
HETATM   11  H7  UNL     1       6.682   8.629  18.749  1.00  0.00     0.217 HD
ENDBRANCH   3  10
TORSDOF 2
ENDMDL
MODEL 12
REMARK VINA RESULT:      -2.9     11.075     11.982
REMARK  2 active torsions:
REMARK  status: ('A' for Active; 'I' for Inactive)
REMARK    1  A    between atoms: C3_3  and  O1_8 
REMARK    2  A    between atoms: C6_6  and  N1_7 
ROOT
HETATM    1  C1  UNL     1      -0.315   2.287  20.076  1.00  0.00     0.026 A 
HETATM    2  C2  UNL     1       0.849   1.541  19.878  1.00  0.00     0.038 A 
HETATM    3  C3  UNL     1       1.437   1.505  18.621  1.00  0.00     0.065 A 
HETATM    4  C4  UNL     1       0.887   2.216  17.561  1.00  0.00     0.038 A 
HETATM    5  C5  UNL     1      -0.280   2.959  17.767  1.00  0.00     0.026 A 
HETATM    6  C6  UNL     1      -0.919   2.961  19.011  1.00  0.00     0.005 A 
ENDROOT
BRANCH   6   7
HETATM    7  N1  UNL     1      -2.016   3.800  19.238  1.00  0.00    -0.303 NA
HETATM    8  H5  UNL     1      -2.451   3.665  20.145  1.00  0.00     0.124 HD
HETATM    9  H6  UNL     1      -2.693   3.804  18.482  1.00  0.00     0.124 HD
ENDBRANCH   6   7
BRANCH   3  10
HETATM   10  O1  UNL     1       2.574   0.769  18.470  1.00  0.00    -0.361 OA
HETATM   11  H7  UNL     1       2.374   0.002  17.909  1.00  0.00     0.217 HD
ENDBRANCH   3  10
TORSDOF 2
ENDMDL
MODEL 13
REMARK VINA RESULT:      -2.8      6.755      7.366
REMARK  2 active torsions:
REMARK  status: ('A' for Active; 'I' for Inactive)
REMARK    1  A    between atoms: C3_3  and  O1_8 
REMARK    2  A    between atoms: C6_6  and  N1_7 
ROOT
HETATM    1  C1  UNL     1       7.738   6.919  13.805  1.00  0.00     0.026 A 
HETATM    2  C2  UNL     1       8.452   7.200  14.972  1.00  0.00     0.038 A 
HETATM    3  C3  UNL     1       7.767   7.479  16.146  1.00  0.00     0.065 A 
HETATM    4  C4  UNL     1       6.377   7.466  16.175  1.00  0.00     0.038 A 
HETATM    5  C5  UNL     1       5.669   7.185  15.002  1.00  0.00     0.026 A 
HETATM    6  C6  UNL     1       6.341   6.959  13.797  1.00  0.00     0.005 A 
ENDROOT
BRANCH   6   7
HETATM    7  N1  UNL     1       5.630   6.562  12.658  1.00  0.00    -0.303 NA
HETATM    8  H5  UNL     1       4.830   7.152  12.450  1.00  0.00     0.124 HD
HETATM    9  H6  UNL     1       5.396   5.575  12.643  1.00  0.00     0.124 HD
ENDBRANCH   6   7
BRANCH   3  10
HETATM   10  O1  UNL     1       8.499   7.745  17.264  1.00  0.00    -0.361 OA
HETATM   11  H7  UNL     1       9.321   8.188  16.998  1.00  0.00     0.217 HD
ENDBRANCH   3  10
TORSDOF 2
ENDMDL
MODEL 14
REMARK VINA RESULT:      -2.7      6.916      7.794
REMARK  2 active torsions:
REMARK  status: ('A' for Active; 'I' for Inactive)
REMARK    1  A    between atoms: C3_3  and  O1_8 
REMARK    2  A    between atoms: C6_6  and  N1_7 
ROOT
HETATM    1  C1  UNL     1       6.065   6.100  14.223  1.00  0.00     0.026 A 
HETATM    2  C2  UNL     1       5.774   7.208  15.022  1.00  0.00     0.038 A 
HETATM    3  C3  UNL     1       5.147   7.028  16.246  1.00  0.00     0.065 A 
HETATM    4  C4  UNL     1       4.820   5.752  16.694  1.00  0.00     0.038 A 
HETATM    5  C5  UNL     1       5.114   4.648  15.889  1.00  0.00     0.026 A 
HETATM    6  C6  UNL     1       5.692   4.814  14.626  1.00  0.00     0.005 A 
ENDROOT
BRANCH   6   7
HETATM    7  N1  UNL     1       6.090   3.698  13.881  1.00  0.00    -0.303 NA
HETATM    8  H5  UNL     1       5.462   3.473  13.116  1.00  0.00     0.124 HD
HETATM    9  H6  UNL     1       6.316   2.886  14.446  1.00  0.00     0.124 HD
ENDBRANCH   6   7
BRANCH   3  10
HETATM   10  O1  UNL     1       4.882   8.134  16.997  1.00  0.00    -0.361 OA
HETATM   11  H7  UNL     1       4.159   7.926  17.611  1.00  0.00     0.217 HD
ENDBRANCH   3  10
TORSDOF 2
ENDMDL
MODEL 15
REMARK VINA RESULT:      -2.7     11.286     12.293
REMARK  2 active torsions:
REMARK  status: ('A' for Active; 'I' for Inactive)
REMARK    1  A    between atoms: C3_3  and  O1_8 
REMARK    2  A    between atoms: C6_6  and  N1_7 
ROOT
HETATM    1  C1  UNL     1      -0.977   2.100  19.534  1.00  0.00     0.026 A 
HETATM    2  C2  UNL     1      -0.822   2.667  18.267  1.00  0.00     0.038 A 
HETATM    3  C3  UNL     1       0.415   2.618  17.639  1.00  0.00     0.065 A 
HETATM    4  C4  UNL     1       1.496   1.995  18.252  1.00  0.00     0.038 A 
HETATM    5  C5  UNL     1       1.333   1.431  19.520  1.00  0.00     0.026 A 
HETATM    6  C6  UNL     1       0.111   1.522  20.194  1.00  0.00     0.005 A 
ENDROOT
BRANCH   6   7
HETATM    7  N1  UNL     1      -0.075   0.852  21.409  1.00  0.00    -0.303 NA
HETATM    8  H5  UNL     1       0.472   1.234  22.174  1.00  0.00     0.124 HD
HETATM    9  H6  UNL     1       0.010  -0.156  21.339  1.00  0.00     0.124 HD
ENDBRANCH   6   7
BRANCH   3  10
HETATM   10  O1  UNL     1       0.525   3.180  16.402  1.00  0.00    -0.361 OA
HETATM   11  H7  UNL     1       1.319   3.738  16.385  1.00  0.00     0.217 HD
ENDBRANCH   3  10
TORSDOF 2
ENDMDL
MODEL 16
REMARK VINA RESULT:      -2.7     10.706     11.692
REMARK  2 active torsions:
REMARK  status: ('A' for Active; 'I' for Inactive)
REMARK    1  A    between atoms: C3_3  and  O1_8 
REMARK    2  A    between atoms: C6_6  and  N1_7 
ROOT
HETATM    1  C1  UNL     1       1.219   3.416  19.856  1.00  0.00     0.026 A 
HETATM    2  C2  UNL     1      -0.155   3.284  19.639  1.00  0.00     0.038 A 
HETATM    3  C3  UNL     1      -0.614   2.746  18.445  1.00  0.00     0.065 A 
HETATM    4  C4  UNL     1       0.281   2.323  17.469  1.00  0.00     0.038 A 
HETATM    5  C5  UNL     1       1.654   2.460  17.692  1.00  0.00     0.026 A 
HETATM    6  C6  UNL     1       2.135   3.053  18.864  1.00  0.00     0.005 A 
ENDROOT
BRANCH   6   7
HETATM    7  N1  UNL     1       3.509   3.077  19.130  1.00  0.00    -0.303 NA
HETATM    8  H5  UNL     1       3.942   3.979  18.957  1.00  0.00     0.124 HD
HETATM    9  H6  UNL     1       4.022   2.314  18.703  1.00  0.00     0.124 HD
ENDBRANCH   6   7
BRANCH   3  10
HETATM   10  O1  UNL     1      -1.961   2.631  18.273  1.00  0.00    -0.361 OA
HETATM   11  H7  UNL     1      -2.192   2.979  17.397  1.00  0.00     0.217 HD
ENDBRANCH   3  10
TORSDOF 2
ENDMDL
MODEL 17
REMARK VINA RESULT:      -2.6      5.836      6.717
REMARK  2 active torsions:
REMARK  status: ('A' for Active; 'I' for Inactive)
REMARK    1  A    between atoms: C3_3  and  O1_8 
REMARK    2  A    between atoms: C6_6  and  N1_7 
ROOT
HETATM    1  C1  UNL     1       7.377   4.604  15.085  1.00  0.00     0.026 A 
HETATM    2  C2  UNL     1       8.093   5.525  14.318  1.00  0.00     0.038 A 
HETATM    3  C3  UNL     1       7.544   6.771  14.050  1.00  0.00     0.065 A 
HETATM    4  C4  UNL     1       6.294   7.117  14.552  1.00  0.00     0.038 A 
HETATM    5  C5  UNL     1       5.582   6.188  15.317  1.00  0.00     0.026 A 
HETATM    6  C6  UNL     1       6.094   4.907  15.549  1.00  0.00     0.005 A 
ENDROOT
BRANCH   6   7
HETATM    7  N1  UNL     1       5.430   4.029  16.413  1.00  0.00    -0.303 NA
HETATM    8  H5  UNL     1       4.882   4.497  17.128  1.00  0.00     0.124 HD
HETATM    9  H6  UNL     1       6.025   3.302  16.796  1.00  0.00     0.124 HD
ENDBRANCH   6   7
BRANCH   3  10
HETATM   10  O1  UNL     1       8.276   7.643  13.301  1.00  0.00    -0.361 OA
HETATM   11  H7  UNL     1       9.217   7.441  13.420  1.00  0.00     0.217 HD
ENDBRANCH   3  10
TORSDOF 2
ENDMDL
MODEL 18
REMARK VINA RESULT:      -2.6      5.928      6.825
REMARK  2 active torsions:
REMARK  status: ('A' for Active; 'I' for Inactive)
REMARK    1  A    between atoms: C3_3  and  O1_8 
REMARK    2  A    between atoms: C6_6  and  N1_7 
ROOT
HETATM    1  C1  UNL     1       7.604   5.027  15.336  1.00  0.00     0.026 A 
HETATM    2  C2  UNL     1       6.483   5.299  16.124  1.00  0.00     0.038 A 
HETATM    3  C3  UNL     1       5.620   6.324  15.763  1.00  0.00     0.065 A 
HETATM    4  C4  UNL     1       5.853   7.073  14.615  1.00  0.00     0.038 A 
HETATM    5  C5  UNL     1       6.977   6.797  13.832  1.00  0.00     0.026 A 
HETATM    6  C6  UNL     1       7.889   5.807  14.211  1.00  0.00     0.005 A 
ENDROOT
BRANCH   6   7
HETATM    7  N1  UNL     1       8.945   5.458  13.361  1.00  0.00    -0.303 NA
HETATM    8  H5  UNL     1       9.235   6.208  12.741  1.00  0.00     0.124 HD
HETATM    9  H6  UNL     1       8.802   4.583  12.867  1.00  0.00     0.124 HD
ENDBRANCH   6   7
BRANCH   3  10
HETATM   10  O1  UNL     1       4.537   6.556  16.556  1.00  0.00    -0.361 OA
HETATM   11  H7  UNL     1       4.833   7.013  17.360  1.00  0.00     0.217 HD
ENDBRANCH   3  10
TORSDOF 2
ENDMDL
MODEL 19
REMARK VINA RESULT:      -2.5      5.830      6.722
REMARK  2 active torsions:
REMARK  status: ('A' for Active; 'I' for Inactive)
REMARK    1  A    between atoms: C3_3  and  O1_8 
REMARK    2  A    between atoms: C6_6  and  N1_7 
ROOT
HETATM    1  C1  UNL     1       5.852   7.085  14.721  1.00  0.00     0.026 A 
HETATM    2  C2  UNL     1       6.919   6.831  13.857  1.00  0.00     0.038 A 
HETATM    3  C3  UNL     1       7.805   5.802  14.142  1.00  0.00     0.065 A 
HETATM    4  C4  UNL     1       7.630   5.010  15.271  1.00  0.00     0.038 A 
HETATM    5  C5  UNL     1       6.560   5.270  16.132  1.00  0.00     0.026 A 
HETATM    6  C6  UNL     1       5.691   6.340  15.893  1.00  0.00     0.005 A 
ENDROOT
BRANCH   6   7
HETATM    7  N1  UNL     1       4.557   6.519  16.693  1.00  0.00    -0.303 NA
HETATM    8  H5  UNL     1       3.737   6.026  16.353  1.00  0.00     0.124 HD
HETATM    9  H6  UNL     1       4.360   7.489  16.915  1.00  0.00     0.124 HD
ENDBRANCH   6   7
BRANCH   3  10
HETATM   10  O1  UNL     1       8.832   5.584  13.273  1.00  0.00    -0.361 OA
HETATM   11  H7  UNL     1       8.491   5.651  12.367  1.00  0.00     0.217 HD
ENDBRANCH   3  10
TORSDOF 2
ENDMDL
MODEL 20
REMARK VINA RESULT:      -2.4     12.404     13.334
REMARK  2 active torsions:
REMARK  status: ('A' for Active; 'I' for Inactive)
REMARK    1  A    between atoms: C3_3  and  O1_8 
REMARK    2  A    between atoms: C6_6  and  N1_7 
ROOT
HETATM    1  C1  UNL     1      -1.081   5.139  19.263  1.00  0.00     0.026 A 
HETATM    2  C2  UNL     1      -0.303   4.786  18.158  1.00  0.00     0.038 A 
HETATM    3  C3  UNL     1      -0.274   3.466  17.731  1.00  0.00     0.065 A 
HETATM    4  C4  UNL     1      -1.025   2.494  18.383  1.00  0.00     0.038 A 
HETATM    5  C5  UNL     1      -1.800   2.855  19.489  1.00  0.00     0.026 A 
HETATM    6  C6  UNL     1      -1.796   4.168  19.970  1.00  0.00     0.005 A 
ENDROOT
BRANCH   6   7
HETATM    7  N1  UNL     1      -2.665   4.544  21.001  1.00  0.00    -0.303 NA
HETATM    8  H5  UNL     1      -3.646   4.406  20.779  1.00  0.00     0.124 HD
HETATM    9  H6  UNL     1      -2.481   5.468  21.377  1.00  0.00     0.124 HD
ENDBRANCH   6   7
BRANCH   3  10
HETATM   10  O1  UNL     1       0.495   3.162  16.648  1.00  0.00    -0.361 OA
HETATM   11  H7  UNL     1       0.262   3.765  15.923  1.00  0.00     0.217 HD
ENDBRANCH   3  10
TORSDOF 2
ENDMDL
