MODEL 1
REMARK VINA RESULT:      -5.1      0.000      0.000
REMARK  2 active torsions:
REMARK  status: ('A' for Active; 'I' for Inactive)
REMARK    1  A    between atoms: C3_3  and  O1_8 
REMARK    2  A    between atoms: C6_6  and  N1_7 
ROOT
HETATM    1  C1  UNL     1      -5.022   3.453  -1.676  1.00  0.00     0.026 A 
HETATM    2  C2  UNL     1      -3.847   3.560  -0.929  1.00  0.00     0.038 A 
HETATM    3  C3  UNL     1      -2.780   2.714  -1.200  1.00  0.00     0.065 A 
HETATM    4  C4  UNL     1      -2.865   1.773  -2.220  1.00  0.00     0.038 A 
HETATM    5  C5  UNL     1      -4.045   1.671  -2.963  1.00  0.00     0.026 A 
HETATM    6  C6  UNL     1      -5.151   2.474  -2.665  1.00  0.00     0.005 A 
ENDROOT
BRANCH   6   7
HETATM    7  N1  UNL     1      -6.283   2.449  -3.489  1.00  0.00    -0.303 NA
HETATM    8  H5  UNL     1      -6.574   3.366  -3.810  1.00  0.00     0.124 HD
HETATM    9  H6  UNL     1      -7.054   1.909  -3.110  1.00  0.00     0.124 HD
ENDBRANCH   6   7
BRANCH   3  10
HETATM   10  O1  UNL     1      -1.650   2.851  -0.451  1.00  0.00    -0.361 OA
HETATM   11  H7  UNL     1      -1.221   1.984  -0.377  1.00  0.00     0.217 HD
ENDBRANCH   3  10
TORSDOF 2
ENDMDL
MODEL 2
REMARK VINA RESULT:      -5.0      2.780      3.682
REMARK  2 active torsions:
REMARK  status: ('A' for Active; 'I' for Inactive)
REMARK    1  A    between atoms: C3_3  and  O1_8 
REMARK    2  A    between atoms: C6_6  and  N1_7 
ROOT
HETATM    1  C1  UNL     1      -2.950   1.852  -2.308  1.00  0.00     0.026 A 
HETATM    2  C2  UNL     1      -4.116   1.723  -3.067  1.00  0.00     0.038 A 
HETATM    3  C3  UNL     1      -5.229   2.489  -2.753  1.00  0.00     0.065 A 
HETATM    4  C4  UNL     1      -5.190   3.396  -1.699  1.00  0.00     0.038 A 
HETATM    5  C5  UNL     1      -4.021   3.518  -0.943  1.00  0.00     0.026 A 
HETATM    6  C6  UNL     1      -2.908   2.713  -1.207  1.00  0.00     0.005 A 
ENDROOT
BRANCH   6   7
HETATM    7  N1  UNL     1      -1.706   2.926  -0.524  1.00  0.00    -0.303 NA
HETATM    8  H5  UNL     1      -1.572   2.306   0.270  1.00  0.00     0.124 HD
HETATM    9  H6  UNL     1      -1.534   3.897  -0.288  1.00  0.00     0.124 HD
ENDBRANCH   6   7
BRANCH   3  10
HETATM   10  O1  UNL     1      -6.346   2.337  -3.519  1.00  0.00    -0.361 OA
HETATM   11  H7  UNL     1      -6.363   1.430  -3.865  1.00  0.00     0.217 HD
ENDBRANCH   3  10
TORSDOF 2
ENDMDL
MODEL 3
REMARK VINA RESULT:      -4.2      2.347      2.944
REMARK  2 active torsions:
REMARK  status: ('A' for Active; 'I' for Inactive)
REMARK    1  A    between atoms: C3_3  and  O1_8 
REMARK    2  A    between atoms: C6_6  and  N1_7 
ROOT
HETATM    1  C1  UNL     1      -1.947   2.936  -0.886  1.00  0.00     0.026 A 
HETATM    2  C2  UNL     1      -1.832   4.326  -0.962  1.00  0.00     0.038 A 
HETATM    3  C3  UNL     1      -2.814   5.063  -1.609  1.00  0.00     0.065 A 
HETATM    4  C4  UNL     1      -3.919   4.431  -2.170  1.00  0.00     0.038 A 
HETATM    5  C5  UNL     1      -4.026   3.040  -2.091  1.00  0.00     0.026 A 
HETATM    6  C6  UNL     1      -3.018   2.275  -1.494  1.00  0.00     0.005 A 
ENDROOT
BRANCH   6   7
HETATM    7  N1  UNL     1      -3.191   0.898  -1.316  1.00  0.00    -0.303 NA
HETATM    8  H5  UNL     1      -3.710   0.451  -2.066  1.00  0.00     0.124 HD
HETATM    9  H6  UNL     1      -3.543   0.644  -0.398  1.00  0.00     0.124 HD
ENDBRANCH   6   7
BRANCH   3  10
HETATM   10  O1  UNL     1      -2.667   6.417  -1.659  1.00  0.00    -0.361 OA
HETATM   11  H7  UNL     1      -2.768   6.705  -2.580  1.00  0.00     0.217 HD
ENDBRANCH   3  10
TORSDOF 2
ENDMDL
MODEL 4
REMARK VINA RESULT:      -4.2      2.436      2.926
REMARK  2 active torsions:
REMARK  status: ('A' for Active; 'I' for Inactive)
REMARK    1  A    between atoms: C3_3  and  O1_8 
REMARK    2  A    between atoms: C6_6  and  N1_7 
ROOT
HETATM    1  C1  UNL     1      -4.352   4.235  -1.337  1.00  0.00     0.026 A 
HETATM    2  C2  UNL     1      -4.387   2.840  -1.309  1.00  0.00     0.038 A 
HETATM    3  C3  UNL     1      -3.201   2.122  -1.256  1.00  0.00     0.065 A 
HETATM    4  C4  UNL     1      -1.977   2.781  -1.215  1.00  0.00     0.038 A 
HETATM    5  C5  UNL     1      -1.949   4.178  -1.245  1.00  0.00     0.026 A 
HETATM    6  C6  UNL     1      -3.131   4.917  -1.358  1.00  0.00     0.005 A 
ENDROOT
BRANCH   6   7
HETATM    7  N1  UNL     1      -3.101   6.313  -1.267  1.00  0.00    -0.303 NA
HETATM    8  H5  UNL     1      -2.569   6.659  -0.474  1.00  0.00     0.124 HD
HETATM    9  H6  UNL     1      -4.014   6.749  -1.339  1.00  0.00     0.124 HD
ENDBRANCH   6   7
BRANCH   3  10
HETATM   10  O1  UNL     1      -3.278   0.762  -1.227  1.00  0.00    -0.361 OA
HETATM   11  H7  UNL     1      -2.882   0.412  -2.041  1.00  0.00     0.217 HD
ENDBRANCH   3  10
TORSDOF 2
ENDMDL
MODEL 5
REMARK VINA RESULT:      -4.0      2.318      2.884
REMARK  2 active torsions:
REMARK  status: ('A' for Active; 'I' for Inactive)
REMARK    1  A    between atoms: C3_3  and  O1_8 
REMARK    2  A    between atoms: C6_6  and  N1_7 
ROOT
HETATM    1  C1  UNL     1      -4.196   3.141  -1.454  1.00  0.00     0.026 A 
HETATM    2  C2  UNL     1      -4.139   4.536  -1.417  1.00  0.00     0.038 A 
HETATM    3  C3  UNL     1      -2.917   5.170  -1.240  1.00  0.00     0.065 A 
HETATM    4  C4  UNL     1      -1.747   4.429  -1.115  1.00  0.00     0.038 A 
HETATM    5  C5  UNL     1      -1.813   3.033  -1.152  1.00  0.00     0.026 A 
HETATM    6  C6  UNL     1      -3.041   2.376  -1.271  1.00  0.00     0.005 A 
ENDROOT
BRANCH   6   7
HETATM    7  N1  UNL     1      -3.084   0.985  -1.426  1.00  0.00    -0.303 NA
HETATM    8  H5  UNL     1      -2.168   0.556  -1.514  1.00  0.00     0.124 HD
HETATM    9  H6  UNL     1      -3.728   0.673  -2.145  1.00  0.00     0.124 HD
ENDBRANCH   6   7
BRANCH   3  10
HETATM   10  O1  UNL     1      -2.903   6.532  -1.212  1.00  0.00    -0.361 OA
HETATM   11  H7  UNL     1      -1.988   6.830  -1.085  1.00  0.00     0.217 HD
ENDBRANCH   3  10
TORSDOF 2
ENDMDL
MODEL 6
REMARK VINA RESULT:      -4.0      6.630      7.523
REMARK  2 active torsions:
REMARK  status: ('A' for Active; 'I' for Inactive)
REMARK    1  A    between atoms: C3_3  and  O1_8 
REMARK    2  A    between atoms: C6_6  and  N1_7 
ROOT
HETATM    1  C1  UNL     1      -1.442   7.699  -0.288  1.00  0.00     0.026 A 
HETATM    2  C2  UNL     1      -0.609   8.169  -1.306  1.00  0.00     0.038 A 
HETATM    3  C3  UNL     1      -0.637   9.513  -1.651  1.00  0.00     0.065 A 
HETATM    4  C4  UNL     1      -1.474  10.399  -0.982  1.00  0.00     0.038 A 
HETATM    5  C5  UNL     1      -2.306   9.920   0.035  1.00  0.00     0.026 A 
HETATM    6  C6  UNL     1      -2.335   8.560   0.357  1.00  0.00     0.005 A 
ENDROOT
BRANCH   6   7
HETATM    7  N1  UNL     1      -3.080   8.111   1.454  1.00  0.00    -0.303 NA
HETATM    8  H5  UNL     1      -3.710   8.812   1.833  1.00  0.00     0.124 HD
HETATM    9  H6  UNL     1      -2.523   7.663   2.173  1.00  0.00     0.124 HD
ENDBRANCH   6   7
BRANCH   3  10
HETATM   10  O1  UNL     1       0.192   9.933  -2.648  1.00  0.00    -0.361 OA
HETATM   11  H7  UNL     1       1.110   9.783  -2.370  1.00  0.00     0.217 HD
ENDBRANCH   3  10
TORSDOF 2
ENDMDL
MODEL 7
REMARK VINA RESULT:      -4.0      5.896      6.799
REMARK  2 active torsions:
REMARK  status: ('A' for Active; 'I' for Inactive)
REMARK    1  A    between atoms: C3_3  and  O1_8 
REMARK    2  A    between atoms: C6_6  and  N1_7 
ROOT
HETATM    1  C1  UNL     1      -1.179   7.655  -1.486  1.00  0.00     0.026 A 
HETATM    2  C2  UNL     1      -1.148   9.051  -1.455  1.00  0.00     0.038 A 
HETATM    3  C3  UNL     1      -1.873   9.734  -0.489  1.00  0.00     0.065 A 
HETATM    4  C4  UNL     1      -2.617   9.041   0.460  1.00  0.00     0.038 A 
HETATM    5  C5  UNL     1      -2.645   7.643   0.422  1.00  0.00     0.026 A 
HETATM    6  C6  UNL     1      -1.968   6.940  -0.580  1.00  0.00     0.005 A 
ENDROOT
BRANCH   6   7
HETATM    7  N1  UNL     1      -1.904   5.542  -0.538  1.00  0.00    -0.303 NA
HETATM    8  H5  UNL     1      -1.435   5.180   0.286  1.00  0.00     0.124 HD
HETATM    9  H6  UNL     1      -1.559   5.122  -1.395  1.00  0.00     0.124 HD
ENDBRANCH   6   7
BRANCH   3  10
HETATM   10  O1  UNL     1      -1.815  11.095  -0.490  1.00  0.00    -0.361 OA
HETATM   11  H7  UNL     1      -1.145  11.376  -1.134  1.00  0.00     0.217 HD
ENDBRANCH   3  10
TORSDOF 2
ENDMDL
MODEL 8
REMARK VINA RESULT:      -3.8      5.862      6.787
REMARK  2 active torsions:
REMARK  status: ('A' for Active; 'I' for Inactive)
REMARK    1  A    between atoms: C3_3  and  O1_8 
REMARK    2  A    between atoms: C6_6  and  N1_7 
ROOT
HETATM    1  C1  UNL     1      -1.077   8.852  -1.474  1.00  0.00     0.026 A 
HETATM    2  C2  UNL     1      -1.147   7.458  -1.448  1.00  0.00     0.038 A 
HETATM    3  C3  UNL     1      -1.937   6.826  -0.499  1.00  0.00     0.065 A 
HETATM    4  C4  UNL     1      -2.675   7.569   0.416  1.00  0.00     0.038 A 
HETATM    5  C5  UNL     1      -2.599   8.965   0.385  1.00  0.00     0.026 A 
HETATM    6  C6  UNL     1      -1.762   9.618  -0.526  1.00  0.00     0.005 A 
ENDROOT
BRANCH   6   7
HETATM    7  N1  UNL     1      -1.785  11.013  -0.628  1.00  0.00    -0.303 NA
HETATM    8  H5  UNL     1      -1.927  11.485   0.260  1.00  0.00     0.124 HD
HETATM    9  H6  UNL     1      -2.402  11.362  -1.354  1.00  0.00     0.124 HD
ENDBRANCH   6   7
BRANCH   3  10
HETATM   10  O1  UNL     1      -1.981   5.464  -0.508  1.00  0.00    -0.361 OA
HETATM   11  H7  UNL     1      -2.688   5.173   0.089  1.00  0.00     0.217 HD
ENDBRANCH   3  10
TORSDOF 2
ENDMDL
MODEL 9
REMARK VINA RESULT:      -3.8     16.913     17.405
REMARK  2 active torsions:
REMARK  status: ('A' for Active; 'I' for Inactive)
REMARK    1  A    between atoms: C3_3  and  O1_8 
REMARK    2  A    between atoms: C6_6  and  N1_7 
ROOT
HETATM    1  C1  UNL     1       8.692  14.907  -7.313  1.00  0.00     0.026 A 
HETATM    2  C2  UNL     1       9.749  13.995  -7.277  1.00  0.00     0.038 A 
HETATM    3  C3  UNL     1       9.503  12.670  -6.946  1.00  0.00     0.065 A 
HETATM    4  C4  UNL     1       8.211  12.239  -6.666  1.00  0.00     0.038 A 
HETATM    5  C5  UNL     1       7.158  13.158  -6.702  1.00  0.00     0.026 A 
HETATM    6  C6  UNL     1       7.395  14.509  -6.977  1.00  0.00     0.005 A 
ENDROOT
BRANCH   6   7
HETATM    7  N1  UNL     1       6.323  15.396  -7.128  1.00  0.00    -0.303 NA
HETATM    8  H5  UNL     1       5.976  15.770  -6.250  1.00  0.00     0.124 HD
HETATM    9  H6  UNL     1       5.579  15.043  -7.719  1.00  0.00     0.124 HD
ENDBRANCH   6   7
BRANCH   3  10
HETATM   10  O1  UNL     1      10.559  11.810  -6.924  1.00  0.00    -0.361 OA
HETATM   11  H7  UNL     1      10.704  11.475  -7.824  1.00  0.00     0.217 HD
ENDBRANCH   3  10
TORSDOF 2
ENDMDL
MODEL 10
REMARK VINA RESULT:      -3.8     17.072     17.622
REMARK  2 active torsions:
REMARK  status: ('A' for Active; 'I' for Inactive)
REMARK    1  A    between atoms: C3_3  and  O1_8 
REMARK    2  A    between atoms: C6_6  and  N1_7 
ROOT
HETATM    1  C1  UNL     1       8.268  12.247  -6.691  1.00  0.00     0.026 A 
HETATM    2  C2  UNL     1       7.188  13.131  -6.728  1.00  0.00     0.038 A 
HETATM    3  C3  UNL     1       7.401  14.463  -7.056  1.00  0.00     0.065 A 
HETATM    4  C4  UNL     1       8.677  14.921  -7.364  1.00  0.00     0.038 A 
HETATM    5  C5  UNL     1       9.753  14.030  -7.324  1.00  0.00     0.026 A 
HETATM    6  C6  UNL     1       9.568  12.698  -6.938  1.00  0.00     0.005 A 
ENDROOT
BRANCH   6   7
HETATM    7  N1  UNL     1      10.628  11.788  -7.016  1.00  0.00    -0.303 NA
HETATM    8  H5  UNL     1      10.382  10.849  -6.718  1.00  0.00     0.124 HD
HETATM    9  H6  UNL     1      11.485  12.118  -6.584  1.00  0.00     0.124 HD
ENDBRANCH   6   7
BRANCH   3  10
HETATM   10  O1  UNL     1       6.321  15.294  -7.084  1.00  0.00    -0.361 OA
HETATM   11  H7  UNL     1       6.532  16.057  -7.646  1.00  0.00     0.217 HD
ENDBRANCH   3  10
TORSDOF 2
ENDMDL
MODEL 11
REMARK VINA RESULT:      -3.7     15.526     16.110
REMARK  2 active torsions:
REMARK  status: ('A' for Active; 'I' for Inactive)
REMARK    1  A    between atoms: C3_3  and  O1_8 
REMARK    2  A    between atoms: C6_6  and  N1_7 
ROOT
HETATM    1  C1  UNL     1      -2.357  17.141  -3.708  1.00  0.00     0.026 A 
HETATM    2  C2  UNL     1      -2.855  18.322  -3.153  1.00  0.00     0.038 A 
HETATM    3  C3  UNL     1      -3.035  19.438  -3.958  1.00  0.00     0.065 A 
HETATM    4  C4  UNL     1      -2.739  19.386  -5.316  1.00  0.00     0.038 A 
HETATM    5  C5  UNL     1      -2.239  18.201  -5.864  1.00  0.00     0.026 A 
HETATM    6  C6  UNL     1      -1.996  17.085  -5.058  1.00  0.00     0.005 A 
ENDROOT
BRANCH   6   7
HETATM    7  N1  UNL     1      -1.610  15.869  -5.635  1.00  0.00    -0.303 NA
HETATM    8  H5  UNL     1      -2.312  15.467  -6.248  1.00  0.00     0.124 HD
HETATM    9  H6  UNL     1      -1.247  15.196  -4.968  1.00  0.00     0.124 HD
ENDBRANCH   6   7
BRANCH   3  10
HETATM   10  O1  UNL     1      -3.526  20.570  -3.380  1.00  0.00    -0.361 OA
HETATM   11  H7  UNL     1      -3.334  21.323  -3.961  1.00  0.00     0.217 HD
ENDBRANCH   3  10
TORSDOF 2
ENDMDL
MODEL 12
REMARK VINA RESULT:      -3.7     15.401     15.990
REMARK  2 active torsions:
REMARK  status: ('A' for Active; 'I' for Inactive)
REMARK    1  A    between atoms: C3_3  and  O1_8 
REMARK    2  A    between atoms: C6_6  and  N1_7 
ROOT
HETATM    1  C1  UNL     1      -3.261  19.111  -5.428  1.00  0.00     0.026 A 
HETATM    2  C2  UNL     1      -2.607  17.987  -5.939  1.00  0.00     0.038 A 
HETATM    3  C3  UNL     1      -2.116  17.024  -5.069  1.00  0.00     0.065 A 
HETATM    4  C4  UNL     1      -2.284  17.158  -3.696  1.00  0.00     0.038 A 
HETATM    5  C5  UNL     1      -2.938  18.287  -3.192  1.00  0.00     0.026 A 
HETATM    6  C6  UNL     1      -3.387  19.297  -4.048  1.00  0.00     0.005 A 
ENDROOT
BRANCH   6   7
HETATM    7  N1  UNL     1      -4.144  20.362  -3.546  1.00  0.00    -0.303 NA
HETATM    8  H5  UNL     1      -5.027  20.498  -4.028  1.00  0.00     0.124 HD
HETATM    9  H6  UNL     1      -3.621  21.226  -3.447  1.00  0.00     0.124 HD
ENDBRANCH   6   7
BRANCH   3  10
HETATM   10  O1  UNL     1      -1.487  15.941  -5.606  1.00  0.00    -0.361 OA
HETATM   11  H7  UNL     1      -2.118  15.463  -6.169  1.00  0.00     0.217 HD
ENDBRANCH   3  10
TORSDOF 2
ENDMDL
MODEL 13
REMARK VINA RESULT:      -3.7     15.644     16.222
REMARK  2 active torsions:
REMARK  status: ('A' for Active; 'I' for Inactive)
REMARK    1  A    between atoms: C3_3  and  O1_8 
REMARK    2  A    between atoms: C6_6  and  N1_7 
ROOT
HETATM    1  C1  UNL     1      -2.741  18.428  -3.235  1.00  0.00     0.026 A 
HETATM    2  C2  UNL     1      -2.326  17.203  -3.763  1.00  0.00     0.038 A 
HETATM    3  C3  UNL     1      -1.966  17.117  -5.100  1.00  0.00     0.065 A 
HETATM    4  C4  UNL     1      -1.999  18.242  -5.916  1.00  0.00     0.038 A 
HETATM    5  C5  UNL     1      -2.416  19.465  -5.381  1.00  0.00     0.026 A 
HETATM    6  C6  UNL     1      -2.839  19.559  -4.051  1.00  0.00     0.005 A 
ENDROOT
BRANCH   6   7
HETATM    7  N1  UNL     1      -3.140  20.807  -3.495  1.00  0.00    -0.303 NA
HETATM    8  H5  UNL     1      -4.103  21.097  -3.639  1.00  0.00     0.124 HD
HETATM    9  H6  UNL     1      -2.477  21.536  -3.737  1.00  0.00     0.124 HD
ENDBRANCH   6   7
BRANCH   3  10
HETATM   10  O1  UNL     1      -1.564  15.905  -5.576  1.00  0.00    -0.361 OA
HETATM   11  H7  UNL     1      -0.720  16.019  -6.041  1.00  0.00     0.217 HD
ENDBRANCH   3  10
TORSDOF 2
ENDMDL
MODEL 14
REMARK VINA RESULT:      -3.6     17.067     17.632
REMARK  2 active torsions:
REMARK  status: ('A' for Active; 'I' for Inactive)
REMARK    1  A    between atoms: C3_3  and  O1_8 
REMARK    2  A    between atoms: C6_6  and  N1_7 
ROOT
HETATM    1  C1  UNL     1      11.030  11.992  -7.373  1.00  0.00     0.026 A 
HETATM    2  C2  UNL     1      10.438  13.170  -6.913  1.00  0.00     0.038 A 
HETATM    3  C3  UNL     1       9.055  13.266  -6.851  1.00  0.00     0.065 A 
HETATM    4  C4  UNL     1       8.253  12.195  -7.228  1.00  0.00     0.038 A 
HETATM    5  C5  UNL     1       8.852  11.019  -7.689  1.00  0.00     0.026 A 
HETATM    6  C6  UNL     1      10.242  10.924  -7.814  1.00  0.00     0.005 A 
ENDROOT
BRANCH   6   7
HETATM    7  N1  UNL     1      10.837   9.706  -8.163  1.00  0.00    -0.303 NA
HETATM    8  H5  UNL     1      10.329   8.893  -7.827  1.00  0.00     0.124 HD
HETATM    9  H6  UNL     1      11.827   9.657  -7.950  1.00  0.00     0.124 HD
ENDBRANCH   6   7
BRANCH   3  10
HETATM   10  O1  UNL     1       8.516  14.431  -6.393  1.00  0.00    -0.361 OA
HETATM   11  H7  UNL     1       8.470  14.392  -5.424  1.00  0.00     0.217 HD
ENDBRANCH   3  10
TORSDOF 2
ENDMDL
MODEL 15
REMARK VINA RESULT:      -3.6     17.015     17.568
REMARK  2 active torsions:
REMARK  status: ('A' for Active; 'I' for Inactive)
REMARK    1  A    between atoms: C3_3  and  O1_8 
REMARK    2  A    between atoms: C6_6  and  N1_7 
ROOT
HETATM    1  C1  UNL     1      10.412  13.085  -6.937  1.00  0.00     0.026 A 
HETATM    2  C2  UNL     1      11.067  11.931  -7.374  1.00  0.00     0.038 A 
HETATM    3  C3  UNL     1      10.325  10.832  -7.782  1.00  0.00     0.065 A 
HETATM    4  C4  UNL     1       8.935  10.874  -7.775  1.00  0.00     0.038 A 
HETATM    5  C5  UNL     1       8.287  12.032  -7.335  1.00  0.00     0.026 A 
HETATM    6  C6  UNL     1       9.017  13.128  -6.865  1.00  0.00     0.005 A 
ENDROOT
BRANCH   6   7
HETATM    7  N1  UNL     1       8.364  14.323  -6.540  1.00  0.00    -0.303 NA
HETATM    8  H5  UNL     1       8.554  14.648  -5.597  1.00  0.00     0.124 HD
HETATM    9  H6  UNL     1       7.373  14.320  -6.755  1.00  0.00     0.124 HD
ENDBRANCH   6   7
BRANCH   3  10
HETATM   10  O1  UNL     1      11.000   9.726  -8.204  1.00  0.00    -0.361 OA
HETATM   11  H7  UNL     1      11.356   9.900  -9.091  1.00  0.00     0.217 HD
ENDBRANCH   3  10
TORSDOF 2
ENDMDL
MODEL 16
REMARK VINA RESULT:      -3.5      9.773     10.769
REMARK  2 active torsions:
REMARK  status: ('A' for Active; 'I' for Inactive)
REMARK    1  A    between atoms: C3_3  and  O1_8 
REMARK    2  A    between atoms: C6_6  and  N1_7 
ROOT
HETATM    1  C1  UNL     1      -0.173  11.832   4.449  1.00  0.00     0.026 A 
HETATM    2  C2  UNL     1       0.160  10.477   4.502  1.00  0.00     0.038 A 
HETATM    3  C3  UNL     1      -0.583   9.558   3.774  1.00  0.00     0.065 A 
HETATM    4  C4  UNL     1      -1.644   9.976   2.979  1.00  0.00     0.038 A 
HETATM    5  C5  UNL     1      -1.972  11.334   2.932  1.00  0.00     0.026 A 
HETATM    6  C6  UNL     1      -1.273  12.268   3.704  1.00  0.00     0.005 A 
ENDROOT
BRANCH   6   7
HETATM    7  N1  UNL     1      -1.530  13.636   3.560  1.00  0.00    -0.303 NA
HETATM    8  H5  UNL     1      -1.777  13.907   2.613  1.00  0.00     0.124 HD
HETATM    9  H6  UNL     1      -0.813  14.233   3.957  1.00  0.00     0.124 HD
ENDBRANCH   6   7
BRANCH   3  10
HETATM   10  O1  UNL     1      -0.225   8.245   3.850  1.00  0.00    -0.361 OA
HETATM   11  H7  UNL     1       0.733   8.193   3.996  1.00  0.00     0.217 HD
ENDBRANCH   3  10
TORSDOF 2
ENDMDL
MODEL 17
REMARK VINA RESULT:      -3.5     10.096     11.129
REMARK  2 active torsions:
REMARK  status: ('A' for Active; 'I' for Inactive)
REMARK    1  A    between atoms: C3_3  and  O1_8 
REMARK    2  A    between atoms: C6_6  and  N1_7 
ROOT
HETATM    1  C1  UNL     1      -1.678  10.359   2.999  1.00  0.00     0.026 A 
HETATM    2  C2  UNL     1      -1.973  11.723   2.948  1.00  0.00     0.038 A 
HETATM    3  C3  UNL     1      -1.235  12.616   3.713  1.00  0.00     0.065 A 
HETATM    4  C4  UNL     1      -0.193  12.166   4.517  1.00  0.00     0.038 A 
HETATM    5  C5  UNL     1       0.096  10.799   4.563  1.00  0.00     0.026 A 
HETATM    6  C6  UNL     1      -0.675   9.878   3.846  1.00  0.00     0.005 A 
ENDROOT
BRANCH   6   7
HETATM    7  N1  UNL     1      -0.305   8.529   3.805  1.00  0.00    -0.303 NA
HETATM    8  H5  UNL     1      -0.453   8.039   4.682  1.00  0.00     0.124 HD
HETATM    9  H6  UNL     1       0.622   8.369   3.426  1.00  0.00     0.124 HD
ENDBRANCH   6   7
BRANCH   3  10
HETATM   10  O1  UNL     1      -1.551  13.939   3.634  1.00  0.00    -0.361 OA
HETATM   11  H7  UNL     1      -0.855  14.451   4.076  1.00  0.00     0.217 HD
ENDBRANCH   3  10
TORSDOF 2
ENDMDL
MODEL 18
REMARK VINA RESULT:      -3.5      9.847     10.868
REMARK  2 active torsions:
REMARK  status: ('A' for Active; 'I' for Inactive)
REMARK    1  A    between atoms: C3_3  and  O1_8 
REMARK    2  A    between atoms: C6_6  and  N1_7 
ROOT
HETATM    1  C1  UNL     1      -1.969  11.384   2.972  1.00  0.00     0.026 A 
HETATM    2  C2  UNL     1      -1.632  10.031   3.054  1.00  0.00     0.038 A 
HETATM    3  C3  UNL     1      -0.552   9.637   3.831  1.00  0.00     0.065 A 
HETATM    4  C4  UNL     1       0.188  10.575   4.543  1.00  0.00     0.038 A 
HETATM    5  C5  UNL     1      -0.155  11.928   4.455  1.00  0.00     0.026 A 
HETATM    6  C6  UNL     1      -1.202  12.350   3.631  1.00  0.00     0.005 A 
ENDROOT
BRANCH   6   7
HETATM    7  N1  UNL     1      -1.612  13.689   3.642  1.00  0.00    -0.303 NA
HETATM    8  H5  UNL     1      -0.843  14.351   3.617  1.00  0.00     0.124 HD
HETATM    9  H6  UNL     1      -2.285  13.905   4.370  1.00  0.00     0.124 HD
ENDBRANCH   6   7
BRANCH   3  10
HETATM   10  O1  UNL     1      -0.257   8.308   3.887  1.00  0.00    -0.361 OA
HETATM   11  H7  UNL     1      -0.187   7.968   2.981  1.00  0.00     0.217 HD
ENDBRANCH   3  10
TORSDOF 2
ENDMDL
MODEL 19
REMARK VINA RESULT:      -3.4     17.839     18.543
REMARK  2 active torsions:
REMARK  status: ('A' for Active; 'I' for Inactive)
REMARK    1  A    between atoms: C3_3  and  O1_8 
REMARK    2  A    between atoms: C6_6  and  N1_7 
ROOT
HETATM    1  C1  UNL     1       9.449  12.944   2.697  1.00  0.00     0.026 A 
HETATM    2  C2  UNL     1       8.704  13.205   3.849  1.00  0.00     0.038 A 
HETATM    3  C3  UNL     1       8.547  14.513   4.285  1.00  0.00     0.065 A 
HETATM    4  C4  UNL     1       9.112  15.568   3.577  1.00  0.00     0.038 A 
HETATM    5  C5  UNL     1       9.858  15.299   2.426  1.00  0.00     0.026 A 
HETATM    6  C6  UNL     1      10.076  13.983   2.004  1.00  0.00     0.005 A 
ENDROOT
BRANCH   6   7
HETATM    7  N1  UNL     1      10.722  13.731   0.788  1.00  0.00    -0.303 NA
HETATM    8  H5  UNL     1      11.417  14.430   0.543  1.00  0.00     0.124 HD
HETATM    9  H6  UNL     1      10.089  13.530   0.021  1.00  0.00     0.124 HD
ENDBRANCH   6   7
BRANCH   3  10
HETATM   10  O1  UNL     1       7.810  14.726   5.411  1.00  0.00    -0.361 OA
HETATM   11  H7  UNL     1       7.892  15.660   5.663  1.00  0.00     0.217 HD
ENDBRANCH   3  10
TORSDOF 2
ENDMDL
MODEL 20
REMARK VINA RESULT:      -3.4     17.737     18.240
REMARK  2 active torsions:
REMARK  status: ('A' for Active; 'I' for Inactive)
REMARK    1  A    between atoms: C3_3  and  O1_8 
REMARK    2  A    between atoms: C6_6  and  N1_7 
ROOT
HETATM    1  C1  UNL     1       9.012  13.886  -7.717  1.00  0.00     0.026 A 
HETATM    2  C2  UNL     1       9.108  15.128  -8.350  1.00  0.00     0.038 A 
HETATM    3  C3  UNL     1       8.122  16.082  -8.145  1.00  0.00     0.065 A 
HETATM    4  C4  UNL     1       7.048  15.820  -7.301  1.00  0.00     0.038 A 
HETATM    5  C5  UNL     1       6.958  14.575  -6.672  1.00  0.00     0.026 A 
HETATM    6  C6  UNL     1       7.911  13.580  -6.912  1.00  0.00     0.005 A 
ENDROOT
BRANCH   6   7
HETATM    7  N1  UNL     1       7.878  12.383  -6.188  1.00  0.00    -0.303 NA
HETATM    8  H5  UNL     1       7.482  11.604  -6.705  1.00  0.00     0.124 HD
HETATM    9  H6  UNL     1       7.476  12.475  -5.261  1.00  0.00     0.124 HD
ENDBRANCH   6   7
BRANCH   3  10
HETATM   10  O1  UNL     1       8.252  17.282  -8.778  1.00  0.00    -0.361 OA
HETATM   11  H7  UNL     1       7.863  17.208  -9.664  1.00  0.00     0.217 HD
ENDBRANCH   3  10
TORSDOF 2
ENDMDL
