MODEL 1
REMARK VINA RESULT:      -6.1      0.000      0.000
REMARK  27 active torsions:
REMARK  status: ('A' for Active; 'I' for Inactive)
REMARK    1  A    between atoms: C2_2  and  S1_4 
REMARK    2  A    between atoms: S1_4  and  C3_5 
REMARK    3  A    between atoms: C3_5  and  C4_6 
REMARK    4  A    between atoms: C4_6  and  N1_7 
REMARK       I    between atoms: N1_7  and  C5_8 
REMARK    5  A    between atoms: C5_8  and  C6_10 
REMARK    6  A    between atoms: C6_10  and  C7_11 
REMARK    7  A    between atoms: C7_11  and  N2_12 
REMARK       I    between atoms: N2_12  and  C8_13 
REMARK    8  A    between atoms: C8_13  and  C9_15 
REMARK    9  A    between atoms: C9_15  and  C10_16 
REMARK   10  A    between atoms: C9_15  and  O17_54 
REMARK   11  A    between atoms: C10_16  and  C13_19 
REMARK   12  A    between atoms: C13_19  and  O4_20 
REMARK   13  A    between atoms: O4_20  and  P1_21 
REMARK   14  A    between atoms: P1_21  and  O6_23 
REMARK   15  A    between atoms: P1_21  and  O7_24 
REMARK   16  A    between atoms: O7_24  and  P2_25 
REMARK   17  A    between atoms: P2_25  and  O9_27 
REMARK   18  A    between atoms: P2_25  and  O10_28 
REMARK   19  A    between atoms: O10_28  and  C14_29 
REMARK   20  A    between atoms: C14_29  and  C15_30 
REMARK   21  A    between atoms: C16_31  and  O13_49 
REMARK   22  A    between atoms: C17_32  and  O12_48 
REMARK   23  A    between atoms: C18_33  and  N3_35 
REMARK   24  A    between atoms: C21_40  and  N7_47 
REMARK   25  A    between atoms: O13_49  and  P3_50 
REMARK   26  A    between atoms: P3_50  and  O15_52 
REMARK   27  A    between atoms: P3_50  and  O16_53 
ROOT
HETATM    1  C1  UNL     1       2.033   8.507  14.834  1.00  0.00     0.104 C 
HETATM    2  C2  UNL     1       2.363   7.672  13.634  1.00  0.00     0.182 C 
HETATM    3  O1  UNL     1       2.738   8.147  12.565  1.00  0.00    -0.286 OA
ENDROOT
BRANCH   2   4
HETATM    4  S1  UNL     1       2.130   5.945  13.866  1.00  0.00    -0.091 SA
BRANCH   4   5
HETATM    5  C3  UNL     1       0.412   5.928  14.472  1.00  0.00     0.102 C 
BRANCH   5   6
HETATM    6  C4  UNL     1      -0.598   5.970  13.323  1.00  0.00     0.133 C 
BRANCH   6   7
HETATM    7  N1  UNL     1      -1.278   7.245  13.223  1.00  0.00    -0.360 N 
HETATM    8  C5  UNL     1      -1.131   8.060  12.124  1.00  0.00     0.219 C 
HETATM    9  O2  UNL     1      -0.360   7.798  11.207  1.00  0.00    -0.274 OA
HETATM   10  H8  UNL     1      -1.881   7.536  13.980  1.00  0.00     0.162 HD
BRANCH   8  11
HETATM   11  C6  UNL     1      -1.969   9.317  12.193  1.00  0.00     0.122 C 
BRANCH  11  12
HETATM   12  C7  UNL     1      -2.315   9.851  10.804  1.00  0.00     0.132 C 
BRANCH  12  13
HETATM   13  N2  UNL     1      -3.077   8.911  10.008  1.00  0.00    -0.358 N 
HETATM   14  C8  UNL     1      -3.532   9.270   8.752  1.00  0.00     0.247 C 
HETATM   15  O3  UNL     1      -3.417  10.409   8.318  1.00  0.00    -0.271 OA
HETATM   16  H13 UNL     1      -2.857   7.929  10.161  1.00  0.00     0.162 HD
BRANCH  14  17
HETATM   17  C9  UNL     1      -4.168   8.127   7.948  1.00  0.00     0.219 C 
BRANCH  17  18
HETATM   18  C10 UNL     1      -5.713   8.039   8.068  1.00  0.00     0.009 C 
HETATM   19  C11 UNL     1      -6.204   6.587   8.161  1.00  0.00     0.020 C 
HETATM   20  C12 UNL     1      -6.227   8.795   9.309  1.00  0.00     0.020 C 
BRANCH  18  21
HETATM   21  C13 UNL     1      -6.279   8.700   6.779  1.00  0.00     0.192 C 
BRANCH  21  22
HETATM   22  O4  UNL     1      -6.463  10.094   6.924  1.00  0.00    -0.296 OA
BRANCH  22  23
HETATM   23  P1  UNL     1      -6.093  11.146   5.773  1.00  0.00     0.401 P 
HETATM   24  O5  UNL     1      -7.245  11.525   4.896  1.00  0.00    -0.631 OA
BRANCH  23  25
HETATM   25  O6  UNL     1      -4.839  10.534   4.969  1.00  0.00    -0.307 OA
HETATM   26  H23 UNL     1      -4.177  10.157   5.563  1.00  0.00     0.222 HD
ENDBRANCH  23  25
BRANCH  23  27
HETATM   27  O7  UNL     1      -5.407  12.363   6.534  1.00  0.00    -0.195 OA
BRANCH  27  28
HETATM   28  P2  UNL     1      -4.418  13.317   5.727  1.00  0.00     0.401 P 
HETATM   29  O8  UNL     1      -4.658  13.455   4.259  1.00  0.00    -0.631 OA
BRANCH  28  30
HETATM   30  O9  UNL     1      -4.497  14.693   6.533  1.00  0.00    -0.307 OA
HETATM   31  H24 UNL     1      -4.996  14.634   7.384  1.00  0.00     0.222 HD
ENDBRANCH  28  30
BRANCH  28  32
HETATM   32  O10 UNL     1      -2.963  12.812   6.151  1.00  0.00    -0.294 OA
BRANCH  32  33
HETATM   33  C14 UNL     1      -1.912  13.732   6.284  1.00  0.00     0.215 C 
BRANCH  33  34
HETATM   34  C15 UNL     1      -1.023  13.544   5.056  1.00  0.00     0.180 C 
HETATM   35  C16 UNL     1      -0.384  12.162   5.088  1.00  0.00     0.197 C 
HETATM   36  C17 UNL     1       1.107  12.430   5.165  1.00  0.00     0.199 C 
HETATM   37  C18 UNL     1       1.219  13.818   4.531  1.00  0.00     0.262 C 
HETATM   38  O11 UNL     1       0.032  14.510   4.977  1.00  0.00    -0.353 OA
BRANCH  35  39
HETATM   39  O13 UNL     1      -0.746  11.481   3.892  1.00  0.00    -0.286 OA
BRANCH  39  40
HETATM   40  P3  UNL     1      -1.420  10.045   4.093  1.00  0.00     0.391 P 
HETATM   41  O14 UNL     1      -2.395   9.681   3.020  1.00  0.00    -0.632 OA
BRANCH  40  42
HETATM   42  O15 UNL     1      -1.978  10.183   5.586  1.00  0.00    -0.307 OA
HETATM   43  H36 UNL     1      -2.445   9.359   5.861  1.00  0.00     0.222 HD
ENDBRANCH  40  42
BRANCH  40  44
HETATM   44  O16 UNL     1      -0.140   9.118   4.270  1.00  0.00    -0.307 OA
HETATM   45  H37 UNL     1       0.685   9.625   4.336  1.00  0.00     0.222 HD
ENDBRANCH  40  44
ENDBRANCH  39  40
ENDBRANCH  35  39
BRANCH  36  46
HETATM   46  O12 UNL     1       1.835  11.365   4.547  1.00  0.00    -0.388 OA
HETATM   47  H35 UNL     1       1.523  11.322   3.611  1.00  0.00     0.210 HD
ENDBRANCH  36  46
BRANCH  37  48
HETATM   48  N3  UNL     1       2.384  14.548   4.992  1.00  0.00    -0.297 N 
HETATM   49  C19 UNL     1       3.521  14.837   4.274  1.00  0.00     0.188 A 
HETATM   50  N4  UNL     1       4.341  15.624   4.935  1.00  0.00    -0.346 N 
HETATM   51  C20 UNL     1       3.702  15.861   6.139  1.00  0.00     0.116 A 
HETATM   52  H4  UNL     1       5.246  15.980   4.629  1.00  0.00     0.167 HD
HETATM   53  C21 UNL     1       4.034  16.650   7.255  1.00  0.00     0.109 A 
HETATM   54  C23 UNL     1       2.507  15.169   6.203  1.00  0.00     0.142 A 
HETATM   55  N5  UNL     1       3.186  16.668   8.312  1.00  0.00    -0.341 N 
HETATM   56  C22 UNL     1       2.065  15.923   8.243  1.00  0.00     0.183 A 
HETATM   57  H5  UNL     1       3.391  17.232   9.137  1.00  0.00     0.167 HD
HETATM   58  N6  UNL     1       1.640  15.140   7.231  1.00  0.00    -0.336 N 
HETATM   59  H6  UNL     1       0.776  14.598   7.242  1.00  0.00     0.168 HD
BRANCH  53  60
HETATM   60  N7  UNL     1       5.192  17.407   7.336  1.00  0.00    -0.287 NA
HETATM   61  H33 UNL     1       5.497  17.605   8.286  1.00  0.00     0.125 HD
HETATM   62  H34 UNL     1       5.206  18.178   6.683  1.00  0.00     0.125 HD
ENDBRANCH  53  60
ENDBRANCH  37  48
ENDBRANCH  33  34
ENDBRANCH  32  33
ENDBRANCH  28  32
ENDBRANCH  27  28
ENDBRANCH  23  27
ENDBRANCH  22  23
ENDBRANCH  21  22
ENDBRANCH  18  21
ENDBRANCH  17  18
BRANCH  17  63
HETATM   63  O17 UNL     1      -3.826   8.249   6.563  1.00  0.00    -0.385 OA
HETATM   64  H38 UNL     1      -4.626   8.511   6.076  1.00  0.00     0.210 HD
ENDBRANCH  17  63
ENDBRANCH  14  17
ENDBRANCH  12  13
ENDBRANCH  11  12
ENDBRANCH   8  11
ENDBRANCH   6   7
ENDBRANCH   5   6
ENDBRANCH   4   5
ENDBRANCH   2   4
TORSDOF 27
ENDMDL
MODEL 2
REMARK VINA RESULT:      -5.4      3.163      4.175
REMARK  27 active torsions:
REMARK  status: ('A' for Active; 'I' for Inactive)
REMARK    1  A    between atoms: C2_2  and  S1_4 
REMARK    2  A    between atoms: S1_4  and  C3_5 
REMARK    3  A    between atoms: C3_5  and  C4_6 
REMARK    4  A    between atoms: C4_6  and  N1_7 
REMARK       I    between atoms: N1_7  and  C5_8 
REMARK    5  A    between atoms: C5_8  and  C6_10 
REMARK    6  A    between atoms: C6_10  and  C7_11 
REMARK    7  A    between atoms: C7_11  and  N2_12 
REMARK       I    between atoms: N2_12  and  C8_13 
REMARK    8  A    between atoms: C8_13  and  C9_15 
REMARK    9  A    between atoms: C9_15  and  C10_16 
REMARK   10  A    between atoms: C9_15  and  O17_54 
REMARK   11  A    between atoms: C10_16  and  C13_19 
REMARK   12  A    between atoms: C13_19  and  O4_20 
REMARK   13  A    between atoms: O4_20  and  P1_21 
REMARK   14  A    between atoms: P1_21  and  O6_23 
REMARK   15  A    between atoms: P1_21  and  O7_24 
REMARK   16  A    between atoms: O7_24  and  P2_25 
REMARK   17  A    between atoms: P2_25  and  O9_27 
REMARK   18  A    between atoms: P2_25  and  O10_28 
REMARK   19  A    between atoms: O10_28  and  C14_29 
REMARK   20  A    between atoms: C14_29  and  C15_30 
REMARK   21  A    between atoms: C16_31  and  O13_49 
REMARK   22  A    between atoms: C17_32  and  O12_48 
REMARK   23  A    between atoms: C18_33  and  N3_35 
REMARK   24  A    between atoms: C21_40  and  N7_47 
REMARK   25  A    between atoms: O13_49  and  P3_50 
REMARK   26  A    between atoms: P3_50  and  O15_52 
REMARK   27  A    between atoms: P3_50  and  O16_53 
ROOT
HETATM    1  C1  UNL     1      -2.328  19.196  11.244  1.00  0.00     0.104 C 
HETATM    2  C2  UNL     1      -2.147  17.821  10.678  1.00  0.00     0.182 C 
HETATM    3  O1  UNL     1      -3.082  17.115  10.308  1.00  0.00    -0.286 OA
ENDROOT
BRANCH   2   4
HETATM    4  S1  UNL     1      -0.477  17.274  10.622  1.00  0.00    -0.091 SA
BRANCH   4   5
HETATM    5  C3  UNL     1      -0.640  15.652  11.434  1.00  0.00     0.102 C 
BRANCH   5   6
HETATM    6  C4  UNL     1      -0.826  14.522  10.419  1.00  0.00     0.133 C 
BRANCH   6   7
HETATM    7  N1  UNL     1      -2.219  14.211  10.177  1.00  0.00    -0.360 N 
HETATM    8  C5  UNL     1      -2.656  12.916  10.023  1.00  0.00     0.219 C 
HETATM    9  O2  UNL     1      -1.890  11.959   9.999  1.00  0.00    -0.274 OA
HETATM   10  H8  UNL     1      -2.886  14.970  10.129  1.00  0.00     0.162 HD
BRANCH   8  11
HETATM   11  C6  UNL     1      -4.154  12.806   9.835  1.00  0.00     0.122 C 
BRANCH  11  12
HETATM   12  C7  UNL     1      -4.678  11.424  10.222  1.00  0.00     0.132 C 
BRANCH  12  13
HETATM   13  N2  UNL     1      -4.532  10.446   9.165  1.00  0.00    -0.358 N 
HETATM   14  C8  UNL     1      -4.197   9.138   9.467  1.00  0.00     0.247 C 
HETATM   15  O3  UNL     1      -3.899   8.788  10.602  1.00  0.00    -0.271 OA
HETATM   16  H13 UNL     1      -5.112  10.599   8.342  1.00  0.00     0.162 HD
BRANCH  14  17
HETATM   17  C9  UNL     1      -4.249   8.169   8.277  1.00  0.00     0.219 C 
BRANCH  17  18
HETATM   18  C10 UNL     1      -5.673   7.668   7.918  1.00  0.00     0.009 C 
HETATM   19  C11 UNL     1      -5.706   6.153   7.666  1.00  0.00     0.020 C 
HETATM   20  C12 UNL     1      -6.683   7.986   9.038  1.00  0.00     0.020 C 
BRANCH  18  21
HETATM   21  C13 UNL     1      -6.075   8.422   6.618  1.00  0.00     0.192 C 
BRANCH  21  22
HETATM   22  O4  UNL     1      -6.368   9.784   6.856  1.00  0.00    -0.296 OA
BRANCH  22  23
HETATM   23  P1  UNL     1      -6.078  10.937   5.779  1.00  0.00     0.401 P 
HETATM   24  O5  UNL     1      -7.274  11.338   4.975  1.00  0.00    -0.631 OA
BRANCH  23  25
HETATM   25  O6  UNL     1      -4.833  10.440   4.888  1.00  0.00    -0.307 OA
HETATM   26  H23 UNL     1      -5.081  10.302   3.965  1.00  0.00     0.222 HD
ENDBRANCH  23  25
BRANCH  23  27
HETATM   27  O7  UNL     1      -5.410  12.117   6.611  1.00  0.00    -0.195 OA
BRANCH  27  28
HETATM   28  P2  UNL     1      -4.474  13.160   5.853  1.00  0.00     0.401 P 
HETATM   29  O8  UNL     1      -4.827  13.482   4.438  1.00  0.00    -0.631 OA
BRANCH  28  30
HETATM   30  O9  UNL     1      -4.470  14.425   6.828  1.00  0.00    -0.307 OA
HETATM   31  H24 UNL     1      -5.196  15.072   6.652  1.00  0.00     0.222 HD
ENDBRANCH  28  30
BRANCH  28  32
HETATM   32  O10 UNL     1      -2.998  12.599   6.094  1.00  0.00    -0.294 OA
BRANCH  32  33
HETATM   33  C14 UNL     1      -1.932  13.491   6.292  1.00  0.00     0.215 C 
BRANCH  33  34
HETATM   34  C15 UNL     1      -1.044  13.376   5.055  1.00  0.00     0.180 C 
HETATM   35  C16 UNL     1      -0.353  12.019   5.039  1.00  0.00     0.197 C 
HETATM   36  C17 UNL     1       1.127  12.339   5.118  1.00  0.00     0.199 C 
HETATM   37  C18 UNL     1       1.184  13.751   4.529  1.00  0.00     0.262 C 
HETATM   38  O11 UNL     1      -0.026  14.383   5.002  1.00  0.00    -0.353 OA
BRANCH  35  39
HETATM   39  O13 UNL     1      -0.697  11.363   3.823  1.00  0.00    -0.286 OA
BRANCH  39  40
HETATM   40  P3  UNL     1      -1.355   9.915   3.982  1.00  0.00     0.391 P 
HETATM   41  O14 UNL     1      -2.363   9.592   2.927  1.00  0.00    -0.632 OA
BRANCH  40  42
HETATM   42  O15 UNL     1      -1.864   9.983   5.497  1.00  0.00    -0.307 OA
HETATM   43  H36 UNL     1      -1.146  10.306   6.092  1.00  0.00     0.222 HD
ENDBRANCH  40  42
BRANCH  40  44
HETATM   44  O16 UNL     1      -0.065   8.991   4.076  1.00  0.00    -0.307 OA
HETATM   45  H37 UNL     1       0.458   8.990   3.258  1.00  0.00     0.222 HD
ENDBRANCH  40  44
ENDBRANCH  39  40
ENDBRANCH  35  39
BRANCH  36  46
HETATM   46  O12 UNL     1       1.890  11.323   4.462  1.00  0.00    -0.388 OA
HETATM   47  H35 UNL     1       1.989  11.612   3.523  1.00  0.00     0.210 HD
ENDBRANCH  36  46
BRANCH  37  48
HETATM   48  N3  UNL     1       2.323  14.508   5.007  1.00  0.00    -0.297 N 
HETATM   49  C19 UNL     1       3.467  14.818   4.309  1.00  0.00     0.188 A 
HETATM   50  N4  UNL     1       4.257  15.627   4.982  1.00  0.00    -0.346 N 
HETATM   51  C20 UNL     1       3.590  15.856   6.172  1.00  0.00     0.116 A 
HETATM   52  H4  UNL     1       5.160  16.001   4.691  1.00  0.00     0.167 HD
HETATM   53  C21 UNL     1       3.883  16.657   7.289  1.00  0.00     0.109 A 
HETATM   54  C23 UNL     1       2.409  15.138   6.217  1.00  0.00     0.142 A 
HETATM   55  N5  UNL     1       3.015  16.662   8.330  1.00  0.00    -0.341 N 
HETATM   56  C22 UNL     1       1.912  15.892   8.245  1.00  0.00     0.183 A 
HETATM   57  H5  UNL     1       3.191  17.234   9.156  1.00  0.00     0.167 HD
HETATM   58  N6  UNL     1       1.524  15.095   7.229  1.00  0.00    -0.336 N 
HETATM   59  H6  UNL     1       0.672  14.533   7.227  1.00  0.00     0.168 HD
BRANCH  53  60
HETATM   60  N7  UNL     1       5.023  17.440   7.388  1.00  0.00    -0.287 NA
HETATM   61  H33 UNL     1       5.624  17.409   6.568  1.00  0.00     0.125 HD
HETATM   62  H34 UNL     1       5.476  17.365   8.289  1.00  0.00     0.125 HD
ENDBRANCH  53  60
ENDBRANCH  37  48
ENDBRANCH  33  34
ENDBRANCH  32  33
ENDBRANCH  28  32
ENDBRANCH  27  28
ENDBRANCH  23  27
ENDBRANCH  22  23
ENDBRANCH  21  22
ENDBRANCH  18  21
ENDBRANCH  17  18
BRANCH  17  63
HETATM   63  O17 UNL     1      -3.677   8.781   7.116  1.00  0.00    -0.385 OA
HETATM   64  H38 UNL     1      -3.404   9.683   7.355  1.00  0.00     0.210 HD
ENDBRANCH  17  63
ENDBRANCH  14  17
ENDBRANCH  12  13
ENDBRANCH  11  12
ENDBRANCH   8  11
ENDBRANCH   6   7
ENDBRANCH   5   6
ENDBRANCH   4   5
ENDBRANCH   2   4
TORSDOF 27
ENDMDL
MODEL 3
REMARK VINA RESULT:      -5.3      1.683      2.239
REMARK  27 active torsions:
REMARK  status: ('A' for Active; 'I' for Inactive)
REMARK    1  A    between atoms: C2_2  and  S1_4 
REMARK    2  A    between atoms: S1_4  and  C3_5 
REMARK    3  A    between atoms: C3_5  and  C4_6 
REMARK    4  A    between atoms: C4_6  and  N1_7 
REMARK       I    between atoms: N1_7  and  C5_8 
REMARK    5  A    between atoms: C5_8  and  C6_10 
REMARK    6  A    between atoms: C6_10  and  C7_11 
REMARK    7  A    between atoms: C7_11  and  N2_12 
REMARK       I    between atoms: N2_12  and  C8_13 
REMARK    8  A    between atoms: C8_13  and  C9_15 
REMARK    9  A    between atoms: C9_15  and  C10_16 
REMARK   10  A    between atoms: C9_15  and  O17_54 
REMARK   11  A    between atoms: C10_16  and  C13_19 
REMARK   12  A    between atoms: C13_19  and  O4_20 
REMARK   13  A    between atoms: O4_20  and  P1_21 
REMARK   14  A    between atoms: P1_21  and  O6_23 
REMARK   15  A    between atoms: P1_21  and  O7_24 
REMARK   16  A    between atoms: O7_24  and  P2_25 
REMARK   17  A    between atoms: P2_25  and  O9_27 
REMARK   18  A    between atoms: P2_25  and  O10_28 
REMARK   19  A    between atoms: O10_28  and  C14_29 
REMARK   20  A    between atoms: C14_29  and  C15_30 
REMARK   21  A    between atoms: C16_31  and  O13_49 
REMARK   22  A    between atoms: C17_32  and  O12_48 
REMARK   23  A    between atoms: C18_33  and  N3_35 
REMARK   24  A    between atoms: C21_40  and  N7_47 
REMARK   25  A    between atoms: O13_49  and  P3_50 
REMARK   26  A    between atoms: P3_50  and  O15_52 
REMARK   27  A    between atoms: P3_50  and  O16_53 
ROOT
HETATM    1  C1  UNL     1       1.162   5.342  14.868  1.00  0.00     0.104 C 
HETATM    2  C2  UNL     1       1.685   5.169  13.474  1.00  0.00     0.182 C 
HETATM    3  O1  UNL     1       1.795   4.076  12.926  1.00  0.00    -0.286 OA
ENDROOT
BRANCH   2   4
HETATM    4  S1  UNL     1       2.171   6.667  12.692  1.00  0.00    -0.091 SA
BRANCH   4   5
HETATM    5  C3  UNL     1       2.242   7.778  14.135  1.00  0.00     0.102 C 
BRANCH   5   6
HETATM    6  C4  UNL     1       1.237   8.926  14.020  1.00  0.00     0.133 C 
BRANCH   6   7
HETATM    7  N1  UNL     1       0.034   8.547  13.308  1.00  0.00    -0.360 N 
HETATM    8  C5  UNL     1      -1.117   8.188  13.970  1.00  0.00     0.219 C 
HETATM    9  O2  UNL     1      -1.172   8.089  15.191  1.00  0.00    -0.274 OA
HETATM   10  H8  UNL     1       0.044   8.556  12.297  1.00  0.00     0.162 HD
BRANCH   8  11
HETATM   11  C6  UNL     1      -2.273   7.884  13.042  1.00  0.00     0.122 C 
BRANCH  11  12
HETATM   12  C7  UNL     1      -2.402   8.925  11.931  1.00  0.00     0.132 C 
BRANCH  12  13
HETATM   13  N2  UNL     1      -3.439   8.607  10.972  1.00  0.00    -0.358 N 
HETATM   14  C8  UNL     1      -3.472   9.241   9.744  1.00  0.00     0.247 C 
HETATM   15  O3  UNL     1      -2.715  10.163   9.467  1.00  0.00    -0.271 OA
HETATM   16  H13 UNL     1      -3.797   7.655  11.014  1.00  0.00     0.162 HD
BRANCH  14  17
HETATM   17  C9  UNL     1      -4.511   8.685   8.759  1.00  0.00     0.219 C 
BRANCH  17  18
HETATM   18  C10 UNL     1      -5.949   9.230   8.967  1.00  0.00     0.009 C 
HETATM   19  C11 UNL     1      -6.862   8.204   9.654  1.00  0.00     0.020 C 
HETATM   20  C12 UNL     1      -5.949  10.513   9.821  1.00  0.00     0.020 C 
BRANCH  18  21
HETATM   21  C13 UNL     1      -6.495   9.545   7.545  1.00  0.00     0.192 C 
BRANCH  21  22
HETATM   22  O4  UNL     1      -6.373  10.914   7.213  1.00  0.00    -0.296 OA
BRANCH  22  23
HETATM   23  P1  UNL     1      -6.235  11.435   5.703  1.00  0.00     0.401 P 
HETATM   24  O5  UNL     1      -7.516  11.416   4.929  1.00  0.00    -0.631 OA
BRANCH  23  25
HETATM   25  O6  UNL     1      -5.053  10.580   5.022  1.00  0.00    -0.307 OA
HETATM   26  H23 UNL     1      -4.230  10.636   5.525  1.00  0.00     0.222 HD
ENDBRANCH  23  25
BRANCH  23  27
HETATM   27  O7  UNL     1      -5.552  12.867   5.823  1.00  0.00    -0.195 OA
BRANCH  27  28
HETATM   28  P2  UNL     1      -4.476  13.112   6.972  1.00  0.00     0.401 P 
HETATM   29  O8  UNL     1      -4.978  13.680   8.259  1.00  0.00    -0.631 OA
BRANCH  28  30
HETATM   30  O9  UNL     1      -3.767  11.689   7.120  1.00  0.00    -0.307 OA
HETATM   31  H24 UNL     1      -3.093  11.499   6.423  1.00  0.00     0.222 HD
ENDBRANCH  28  30
BRANCH  28  32
HETATM   32  O10 UNL     1      -3.320  13.942   6.247  1.00  0.00    -0.294 OA
BRANCH  32  33
HETATM   33  C14 UNL     1      -1.977  13.729   6.597  1.00  0.00     0.215 C 
BRANCH  33  34
HETATM   34  C15 UNL     1      -1.195  13.690   5.285  1.00  0.00     0.180 C 
HETATM   35  C16 UNL     1      -0.346  12.427   5.228  1.00  0.00     0.197 C 
HETATM   36  C17 UNL     1       1.084  12.928   5.166  1.00  0.00     0.199 C 
HETATM   37  C18 UNL     1       0.912  14.319   4.551  1.00  0.00     0.262 C 
HETATM   38  O11 UNL     1      -0.320  14.812   5.123  1.00  0.00    -0.353 OA
BRANCH  35  39
HETATM   39  O13 UNL     1      -0.712  11.701   4.060  1.00  0.00    -0.286 OA
BRANCH  39  40
HETATM   40  P3  UNL     1      -1.234  10.211   4.309  1.00  0.00     0.391 P 
HETATM   41  O14 UNL     1      -2.121  10.075   5.505  1.00  0.00    -0.632 OA
BRANCH  40  42
HETATM   42  O15 UNL     1       0.148   9.407   4.318  1.00  0.00    -0.307 OA
HETATM   43  H36 UNL     1       0.911  10.022   4.201  1.00  0.00     0.222 HD
ENDBRANCH  40  42
BRANCH  40  44
HETATM   44  O16 UNL     1      -1.853   9.852   2.889  1.00  0.00    -0.307 OA
HETATM   45  H37 UNL     1      -1.311  10.171   2.150  1.00  0.00     0.222 HD
ENDBRANCH  40  44
ENDBRANCH  39  40
ENDBRANCH  35  39
BRANCH  36  46
HETATM   46  O12 UNL     1       1.906  11.995   4.460  1.00  0.00    -0.388 OA
HETATM   47  H35 UNL     1       1.415  11.139   4.456  1.00  0.00     0.210 HD
ENDBRANCH  36  46
BRANCH  37  48
HETATM   48  N3  UNL     1       1.987  15.223   4.911  1.00  0.00    -0.297 N 
HETATM   49  C19 UNL     1       3.099  14.934   5.667  1.00  0.00     0.188 A 
HETATM   50  N4  UNL     1       3.950  15.935   5.706  1.00  0.00    -0.346 N 
HETATM   51  C20 UNL     1       3.363  16.922   4.933  1.00  0.00     0.116 A 
HETATM   52  H4  UNL     1       4.843  15.977   6.196  1.00  0.00     0.167 HD
HETATM   53  C21 UNL     1       3.782  18.208   4.550  1.00  0.00     0.109 A 
HETATM   54  C23 UNL     1       2.128  16.508   4.467  1.00  0.00     0.142 A 
HETATM   55  N5  UNL     1       2.958  18.955   3.776  1.00  0.00    -0.341 N 
HETATM   56  C22 UNL     1       1.770  18.430   3.416  1.00  0.00     0.183 A 
HETATM   57  H5  UNL     1       3.230  19.891   3.475  1.00  0.00     0.167 HD
HETATM   58  N6  UNL     1       1.267  17.214   3.713  1.00  0.00    -0.336 N 
HETATM   59  H6  UNL     1       0.355  16.875   3.407  1.00  0.00     0.168 HD
BRANCH  53  60
HETATM   60  N7  UNL     1       4.996  18.758   4.930  1.00  0.00    -0.287 NA
HETATM   61  H33 UNL     1       5.708  18.074   5.176  1.00  0.00     0.125 HD
HETATM   62  H34 UNL     1       4.893  19.551   5.549  1.00  0.00     0.125 HD
ENDBRANCH  53  60
ENDBRANCH  37  48
ENDBRANCH  33  34
ENDBRANCH  32  33
ENDBRANCH  28  32
ENDBRANCH  27  28
ENDBRANCH  23  27
ENDBRANCH  22  23
ENDBRANCH  21  22
ENDBRANCH  18  21
ENDBRANCH  17  18
BRANCH  17  63
HETATM   63  O17 UNL     1      -4.110   8.960   7.412  1.00  0.00    -0.385 OA
HETATM   64  H38 UNL     1      -4.626   9.720   7.094  1.00  0.00     0.210 HD
ENDBRANCH  17  63
ENDBRANCH  14  17
ENDBRANCH  12  13
ENDBRANCH  11  12
ENDBRANCH   8  11
ENDBRANCH   6   7
ENDBRANCH   5   6
ENDBRANCH   4   5
ENDBRANCH   2   4
TORSDOF 27
ENDMDL
MODEL 4
REMARK VINA RESULT:      -5.2      5.364      7.340
REMARK  27 active torsions:
REMARK  status: ('A' for Active; 'I' for Inactive)
REMARK    1  A    between atoms: C2_2  and  S1_4 
REMARK    2  A    between atoms: S1_4  and  C3_5 
REMARK    3  A    between atoms: C3_5  and  C4_6 
REMARK    4  A    between atoms: C4_6  and  N1_7 
REMARK       I    between atoms: N1_7  and  C5_8 
REMARK    5  A    between atoms: C5_8  and  C6_10 
REMARK    6  A    between atoms: C6_10  and  C7_11 
REMARK    7  A    between atoms: C7_11  and  N2_12 
REMARK       I    between atoms: N2_12  and  C8_13 
REMARK    8  A    between atoms: C8_13  and  C9_15 
REMARK    9  A    between atoms: C9_15  and  C10_16 
REMARK   10  A    between atoms: C9_15  and  O17_54 
REMARK   11  A    between atoms: C10_16  and  C13_19 
REMARK   12  A    between atoms: C13_19  and  O4_20 
REMARK   13  A    between atoms: O4_20  and  P1_21 
REMARK   14  A    between atoms: P1_21  and  O6_23 
REMARK   15  A    between atoms: P1_21  and  O7_24 
REMARK   16  A    between atoms: O7_24  and  P2_25 
REMARK   17  A    between atoms: P2_25  and  O9_27 
REMARK   18  A    between atoms: P2_25  and  O10_28 
REMARK   19  A    between atoms: O10_28  and  C14_29 
REMARK   20  A    between atoms: C14_29  and  C15_30 
REMARK   21  A    between atoms: C16_31  and  O13_49 
REMARK   22  A    between atoms: C17_32  and  O12_48 
REMARK   23  A    between atoms: C18_33  and  N3_35 
REMARK   24  A    between atoms: C21_40  and  N7_47 
REMARK   25  A    between atoms: O13_49  and  P3_50 
REMARK   26  A    between atoms: P3_50  and  O15_52 
REMARK   27  A    between atoms: P3_50  and  O16_53 
ROOT
HETATM    1  C1  UNL     1      -7.296  13.186  11.263  1.00  0.00     0.104 C 
HETATM    2  C2  UNL     1      -6.864  11.753  11.327  1.00  0.00     0.182 C 
HETATM    3  O1  UNL     1      -6.564  11.185  12.374  1.00  0.00    -0.286 OA
ENDROOT
BRANCH   2   4
HETATM    4  S1  UNL     1      -6.780  10.951   9.764  1.00  0.00    -0.091 SA
BRANCH   4   5
HETATM    5  C3  UNL     1      -6.858   9.208  10.291  1.00  0.00     0.102 C 
BRANCH   5   6
HETATM    6  C4  UNL     1      -6.425   8.256   9.174  1.00  0.00     0.133 C 
BRANCH   6   7
HETATM    7  N1  UNL     1      -7.276   7.088   9.074  1.00  0.00    -0.360 N 
HETATM    8  C5  UNL     1      -7.212   6.236   7.996  1.00  0.00     0.219 C 
HETATM    9  O2  UNL     1      -6.496   6.452   7.025  1.00  0.00    -0.274 OA
HETATM   10  H8  UNL     1      -7.928   6.895   9.823  1.00  0.00     0.162 HD
BRANCH   8  11
HETATM   11  C6  UNL     1      -8.144   5.049   8.114  1.00  0.00     0.122 C 
BRANCH  11  12
HETATM   12  C7  UNL     1      -9.608   5.455   7.945  1.00  0.00     0.132 C 
BRANCH  12  13
HETATM   13  N2  UNL     1      -9.787   6.574   7.045  1.00  0.00    -0.358 N 
HETATM   14  C8  UNL     1     -11.031   7.160   6.901  1.00  0.00     0.247 C 
HETATM   15  O3  UNL     1     -12.035   6.694   7.423  1.00  0.00    -0.271 OA
HETATM   16  H13 UNL     1      -8.973   7.174   6.925  1.00  0.00     0.162 HD
BRANCH  14  17
HETATM   17  C9  UNL     1     -11.044   8.443   6.056  1.00  0.00     0.219 C 
BRANCH  17  18
HETATM   18  C10 UNL     1     -11.192   9.751   6.876  1.00  0.00     0.009 C 
HETATM   19  C11 UNL     1     -12.658  10.062   7.211  1.00  0.00     0.020 C 
HETATM   20  C12 UNL     1     -10.407   9.679   8.202  1.00  0.00     0.020 C 
BRANCH  18  21
HETATM   21  C13 UNL     1     -10.609  10.884   5.983  1.00  0.00     0.192 C 
BRANCH  21  22
HETATM   22  O4  UNL     1      -9.263  11.180   6.298  1.00  0.00    -0.296 OA
BRANCH  22  23
HETATM   23  P1  UNL     1      -8.757  12.659   6.651  1.00  0.00     0.401 P 
HETATM   24  O5  UNL     1      -9.221  13.164   7.981  1.00  0.00    -0.631 OA
BRANCH  23  25
HETATM   25  O6  UNL     1      -9.178  13.602   5.416  1.00  0.00    -0.307 OA
HETATM   26  H23 UNL     1     -10.091  13.448   5.139  1.00  0.00     0.222 HD
ENDBRANCH  23  25
BRANCH  23  27
HETATM   27  O7  UNL     1      -7.177  12.606   6.475  1.00  0.00    -0.195 OA
BRANCH  27  28
HETATM   28  P2  UNL     1      -6.348  13.965   6.544  1.00  0.00     0.401 P 
HETATM   29  O8  UNL     1      -6.524  14.923   5.411  1.00  0.00    -0.631 OA
BRANCH  28  30
HETATM   30  O9  UNL     1      -6.743  14.563   7.970  1.00  0.00    -0.307 OA
HETATM   31  H24 UNL     1      -6.120  14.319   8.697  1.00  0.00     0.222 HD
ENDBRANCH  28  30
BRANCH  28  32
HETATM   32  O10 UNL     1      -4.851  13.490   6.829  1.00  0.00    -0.294 OA
BRANCH  32  33
HETATM   33  C14 UNL     1      -3.892  14.416   7.269  1.00  0.00     0.215 C 
BRANCH  33  34
HETATM   34  C15 UNL     1      -2.559  13.966   6.673  1.00  0.00     0.180 C 
HETATM   35  C16 UNL     1      -2.442  14.463   5.238  1.00  0.00     0.197 C 
HETATM   36  C17 UNL     1      -2.357  13.202   4.399  1.00  0.00     0.199 C 
HETATM   37  C18 UNL     1      -1.790  12.189   5.396  1.00  0.00     0.262 C 
HETATM   38  O11 UNL     1      -2.408  12.542   6.654  1.00  0.00    -0.353 OA
BRANCH  35  39
HETATM   39  O13 UNL     1      -1.262  15.254   5.140  1.00  0.00    -0.286 OA
BRANCH  39  40
HETATM   40  P3  UNL     1      -1.494  16.834   5.079  1.00  0.00     0.391 P 
HETATM   41  O14 UNL     1      -2.925  17.240   5.231  1.00  0.00    -0.632 OA
BRANCH  40  42
HETATM   42  O15 UNL     1      -0.766  17.191   3.700  1.00  0.00    -0.307 OA
HETATM   43  H36 UNL     1      -0.502  18.141   3.680  1.00  0.00     0.222 HD
ENDBRANCH  40  42
BRANCH  40  44
HETATM   44  O16 UNL     1      -0.463  17.347   6.175  1.00  0.00    -0.307 OA
HETATM   45  H37 UNL     1      -0.355  16.724   6.911  1.00  0.00     0.222 HD
ENDBRANCH  40  44
ENDBRANCH  39  40
ENDBRANCH  35  39
BRANCH  36  46
HETATM   46  O12 UNL     1      -1.602  13.448   3.210  1.00  0.00    -0.388 OA
HETATM   47  H35 UNL     1      -0.886  14.079   3.461  1.00  0.00     0.210 HD
ENDBRANCH  36  46
BRANCH  37  48
HETATM   48  N3  UNL     1      -2.148  10.824   5.067  1.00  0.00    -0.297 N 
HETATM   49  C19 UNL     1      -1.309   9.829   4.621  1.00  0.00     0.188 A 
HETATM   50  N4  UNL     1      -1.917   8.666   4.535  1.00  0.00    -0.346 N 
HETATM   51  C20 UNL     1      -3.213   8.918   4.949  1.00  0.00     0.116 A 
HETATM   52  H4  UNL     1      -1.522   7.777   4.230  1.00  0.00     0.167 HD
HETATM   53  C21 UNL     1      -4.336   8.091   5.122  1.00  0.00     0.109 A 
HETATM   54  C23 UNL     1      -3.380  10.259   5.244  1.00  0.00     0.142 A 
HETATM   55  N5  UNL     1      -5.497   8.652   5.542  1.00  0.00    -0.341 N 
HETATM   56  C22 UNL     1      -5.518   9.980   5.769  1.00  0.00     0.183 A 
HETATM   57  H5  UNL     1      -6.332   8.083   5.683  1.00  0.00     0.167 HD
HETATM   58  N6  UNL     1      -4.510  10.867   5.647  1.00  0.00    -0.336 N 
HETATM   59  H6  UNL     1      -4.592  11.866   5.836  1.00  0.00     0.168 HD
BRANCH  53  60
HETATM   60  N7  UNL     1      -4.324   6.727   4.876  1.00  0.00    -0.287 NA
HETATM   61  H33 UNL     1      -3.735   6.193   5.511  1.00  0.00     0.125 HD
HETATM   62  H34 UNL     1      -4.252   6.505   3.892  1.00  0.00     0.125 HD
ENDBRANCH  53  60
ENDBRANCH  37  48
ENDBRANCH  33  34
ENDBRANCH  32  33
ENDBRANCH  28  32
ENDBRANCH  27  28
ENDBRANCH  23  27
ENDBRANCH  22  23
ENDBRANCH  21  22
ENDBRANCH  18  21
ENDBRANCH  17  18
BRANCH  17  63
HETATM   63  O17 UNL     1      -9.849   8.530   5.273  1.00  0.00    -0.385 OA
HETATM   64  H38 UNL     1     -10.019   8.106   4.415  1.00  0.00     0.210 HD
ENDBRANCH  17  63
ENDBRANCH  14  17
ENDBRANCH  12  13
ENDBRANCH  11  12
ENDBRANCH   8  11
ENDBRANCH   6   7
ENDBRANCH   5   6
ENDBRANCH   4   5
ENDBRANCH   2   4
TORSDOF 27
ENDMDL
MODEL 5
REMARK VINA RESULT:      -5.2     18.141     20.939
REMARK  27 active torsions:
REMARK  status: ('A' for Active; 'I' for Inactive)
REMARK    1  A    between atoms: C2_2  and  S1_4 
REMARK    2  A    between atoms: S1_4  and  C3_5 
REMARK    3  A    between atoms: C3_5  and  C4_6 
REMARK    4  A    between atoms: C4_6  and  N1_7 
REMARK       I    between atoms: N1_7  and  C5_8 
REMARK    5  A    between atoms: C5_8  and  C6_10 
REMARK    6  A    between atoms: C6_10  and  C7_11 
REMARK    7  A    between atoms: C7_11  and  N2_12 
REMARK       I    between atoms: N2_12  and  C8_13 
REMARK    8  A    between atoms: C8_13  and  C9_15 
REMARK    9  A    between atoms: C9_15  and  C10_16 
REMARK   10  A    between atoms: C9_15  and  O17_54 
REMARK   11  A    between atoms: C10_16  and  C13_19 
REMARK   12  A    between atoms: C13_19  and  O4_20 
REMARK   13  A    between atoms: O4_20  and  P1_21 
REMARK   14  A    between atoms: P1_21  and  O6_23 
REMARK   15  A    between atoms: P1_21  and  O7_24 
REMARK   16  A    between atoms: O7_24  and  P2_25 
REMARK   17  A    between atoms: P2_25  and  O9_27 
REMARK   18  A    between atoms: P2_25  and  O10_28 
REMARK   19  A    between atoms: O10_28  and  C14_29 
REMARK   20  A    between atoms: C14_29  and  C15_30 
REMARK   21  A    between atoms: C16_31  and  O13_49 
REMARK   22  A    between atoms: C17_32  and  O12_48 
REMARK   23  A    between atoms: C18_33  and  N3_35 
REMARK   24  A    between atoms: C21_40  and  N7_47 
REMARK   25  A    between atoms: O13_49  and  P3_50 
REMARK   26  A    between atoms: P3_50  and  O15_52 
REMARK   27  A    between atoms: P3_50  and  O16_53 
ROOT
HETATM    1  C1  UNL     1      14.157  13.341  -8.525  1.00  0.00     0.104 C 
HETATM    2  C2  UNL     1      15.300  13.528  -7.574  1.00  0.00     0.182 C 
HETATM    3  O1  UNL     1      15.816  14.619  -7.345  1.00  0.00    -0.286 OA
ENDROOT
BRANCH   2   4
HETATM    4  S1  UNL     1      15.876  12.041  -6.833  1.00  0.00    -0.091 SA
BRANCH   4   5
HETATM    5  C3  UNL     1      14.294  11.177  -6.568  1.00  0.00     0.102 C 
BRANCH   5   6
HETATM    6  C4  UNL     1      14.279   9.799  -7.232  1.00  0.00     0.133 C 
BRANCH   6   7
HETATM    7  N1  UNL     1      14.206   9.875  -8.677  1.00  0.00    -0.360 N 
HETATM    8  C5  UNL     1      13.029   9.659  -9.354  1.00  0.00     0.219 C 
HETATM    9  O2  UNL     1      11.997   9.313  -8.791  1.00  0.00    -0.274 OA
HETATM   10  H8  UNL     1      15.045  10.100  -9.195  1.00  0.00     0.162 HD
BRANCH   8  11
HETATM   11  C6  UNL     1      13.158   9.841 -10.851  1.00  0.00     0.122 C 
BRANCH  11  12
HETATM   12  C7  UNL     1      12.071  10.759 -11.410  1.00  0.00     0.132 C 
BRANCH  12  13
HETATM   13  N2  UNL     1      11.570  11.705 -10.435  1.00  0.00    -0.358 N 
HETATM   14  C8  UNL     1      10.224  12.019 -10.397  1.00  0.00     0.247 C 
HETATM   15  O3  UNL     1       9.436  11.614 -11.242  1.00  0.00    -0.271 OA
HETATM   16  H13 UNL     1      12.081  11.739  -9.555  1.00  0.00     0.162 HD
BRANCH  14  17
HETATM   17  C9  UNL     1       9.800  12.893  -9.207  1.00  0.00     0.219 C 
BRANCH  17  18
HETATM   18  C10 UNL     1       9.550  12.111  -7.891  1.00  0.00     0.009 C 
HETATM   19  C11 UNL     1       9.064  10.678  -8.154  1.00  0.00     0.020 C 
HETATM   20  C12 UNL     1      10.828  12.028  -7.032  1.00  0.00     0.020 C 
BRANCH  18  21
HETATM   21  C13 UNL     1       8.452  12.903  -7.125  1.00  0.00     0.192 C 
BRANCH  21  22
HETATM   22  O4  UNL     1       7.998  14.029  -7.848  1.00  0.00    -0.296 OA
BRANCH  22  23
HETATM   23  P1  UNL     1       7.666  15.435  -7.152  1.00  0.00     0.401 P 
HETATM   24  O5  UNL     1       8.492  15.728  -5.939  1.00  0.00    -0.631 OA
BRANCH  23  25
HETATM   25  O6  UNL     1       6.080  15.454  -6.876  1.00  0.00    -0.307 OA
HETATM   26  H23 UNL     1       5.818  16.198  -6.319  1.00  0.00     0.222 HD
ENDBRANCH  23  25
BRANCH  23  27
HETATM   27  O7  UNL     1       7.790  16.510  -8.317  1.00  0.00    -0.195 OA
BRANCH  27  28
HETATM   28  P2  UNL     1       7.042  17.908  -8.158  1.00  0.00     0.401 P 
HETATM   29  O8  UNL     1       5.616  17.967  -8.596  1.00  0.00    -0.631 OA
BRANCH  28  30
HETATM   30  O9  UNL     1       7.266  18.270  -6.619  1.00  0.00    -0.307 OA
HETATM   31  H24 UNL     1       8.113  17.927  -6.242  1.00  0.00     0.222 HD
ENDBRANCH  28  30
BRANCH  28  32
HETATM   32  O10 UNL     1       8.029  18.955  -8.852  1.00  0.00    -0.294 OA
BRANCH  32  33
HETATM   33  C14 UNL     1       8.686  18.616 -10.045  1.00  0.00     0.215 C 
BRANCH  33  34
HETATM   34  C15 UNL     1      10.181  18.759  -9.763  1.00  0.00     0.180 C 
HETATM   35  C16 UNL     1      10.835  17.383  -9.738  1.00  0.00     0.197 C 
HETATM   36  C17 UNL     1      11.373  17.239  -8.327  1.00  0.00     0.199 C 
HETATM   37  C18 UNL     1      11.567  18.698  -7.905  1.00  0.00     0.262 C 
HETATM   38  O11 UNL     1      10.456  19.395  -8.510  1.00  0.00    -0.353 OA
BRANCH  35  39
HETATM   39  O13 UNL     1      11.873  17.370 -10.712  1.00  0.00    -0.286 OA
BRANCH  39  40
HETATM   40  P3  UNL     1      11.835  16.149 -11.743  1.00  0.00     0.391 P 
HETATM   41  O14 UNL     1      12.135  14.824 -11.119  1.00  0.00    -0.632 OA
BRANCH  40  42
HETATM   42  O15 UNL     1      12.836  16.679 -12.873  1.00  0.00    -0.307 OA
HETATM   43  H36 UNL     1      12.357  16.821 -13.724  1.00  0.00     0.222 HD
ENDBRANCH  40  42
BRANCH  40  44
HETATM   44  O16 UNL     1      10.403  16.342 -12.408  1.00  0.00    -0.307 OA
HETATM   45  H37 UNL     1      10.442  16.822 -13.251  1.00  0.00     0.222 HD
ENDBRANCH  40  44
ENDBRANCH  39  40
ENDBRANCH  35  39
BRANCH  36  46
HETATM   46  O12 UNL     1      12.527  16.394  -8.320  1.00  0.00    -0.388 OA
HETATM   47  H35 UNL     1      13.287  16.960  -8.598  1.00  0.00     0.210 HD
ENDBRANCH  36  46
BRANCH  37  48
HETATM   48  N3  UNL     1      11.503  18.875  -6.468  1.00  0.00    -0.297 N 
HETATM   49  C19 UNL     1      10.388  18.781  -5.668  1.00  0.00     0.188 A 
HETATM   50  N4  UNL     1      10.683  18.869  -4.390  1.00  0.00    -0.346 N 
HETATM   51  C20 UNL     1      12.057  19.023  -4.359  1.00  0.00     0.116 A 
HETATM   52  H4  UNL     1      10.041  18.831  -3.598  1.00  0.00     0.167 HD
HETATM   53  C21 UNL     1      12.981  19.130  -3.304  1.00  0.00     0.109 A 
HETATM   54  C23 UNL     1      12.574  19.068  -5.641  1.00  0.00     0.142 A 
HETATM   55  N5  UNL     1      14.293  19.286  -3.604  1.00  0.00    -0.341 N 
HETATM   56  C22 UNL     1      14.649  19.336  -4.903  1.00  0.00     0.183 A 
HETATM   57  H5  UNL     1      14.993  19.363  -2.865  1.00  0.00     0.167 HD
HETATM   58  N6  UNL     1      13.861  19.237  -5.992  1.00  0.00    -0.336 N 
HETATM   59  H6  UNL     1      14.195  19.284  -6.955  1.00  0.00     0.168 HD
BRANCH  53  60
HETATM   60  N7  UNL     1      12.618  19.093  -1.967  1.00  0.00    -0.287 NA
HETATM   61  H33 UNL     1      13.006  19.849  -1.407  1.00  0.00     0.125 HD
HETATM   62  H34 UNL     1      12.662  18.164  -1.571  1.00  0.00     0.125 HD
ENDBRANCH  53  60
ENDBRANCH  37  48
ENDBRANCH  33  34
ENDBRANCH  32  33
ENDBRANCH  28  32
ENDBRANCH  27  28
ENDBRANCH  23  27
ENDBRANCH  22  23
ENDBRANCH  21  22
ENDBRANCH  18  21
ENDBRANCH  17  18
BRANCH  17  63
HETATM   63  O17 UNL     1      10.788  13.899  -8.958  1.00  0.00    -0.385 OA
HETATM   64  H38 UNL     1      11.104  13.791  -8.045  1.00  0.00     0.210 HD
ENDBRANCH  17  63
ENDBRANCH  14  17
ENDBRANCH  12  13
ENDBRANCH  11  12
ENDBRANCH   8  11
ENDBRANCH   6   7
ENDBRANCH   5   6
ENDBRANCH   4   5
ENDBRANCH   2   4
TORSDOF 27
ENDMDL
MODEL 6
REMARK VINA RESULT:      -5.1      3.502      4.857
REMARK  27 active torsions:
REMARK  status: ('A' for Active; 'I' for Inactive)
REMARK    1  A    between atoms: C2_2  and  S1_4 
REMARK    2  A    between atoms: S1_4  and  C3_5 
REMARK    3  A    between atoms: C3_5  and  C4_6 
REMARK    4  A    between atoms: C4_6  and  N1_7 
REMARK       I    between atoms: N1_7  and  C5_8 
REMARK    5  A    between atoms: C5_8  and  C6_10 
REMARK    6  A    between atoms: C6_10  and  C7_11 
REMARK    7  A    between atoms: C7_11  and  N2_12 
REMARK       I    between atoms: N2_12  and  C8_13 
REMARK    8  A    between atoms: C8_13  and  C9_15 
REMARK    9  A    between atoms: C9_15  and  C10_16 
REMARK   10  A    between atoms: C9_15  and  O17_54 
REMARK   11  A    between atoms: C10_16  and  C13_19 
REMARK   12  A    between atoms: C13_19  and  O4_20 
REMARK   13  A    between atoms: O4_20  and  P1_21 
REMARK   14  A    between atoms: P1_21  and  O6_23 
REMARK   15  A    between atoms: P1_21  and  O7_24 
REMARK   16  A    between atoms: O7_24  and  P2_25 
REMARK   17  A    between atoms: P2_25  and  O9_27 
REMARK   18  A    between atoms: P2_25  and  O10_28 
REMARK   19  A    between atoms: O10_28  and  C14_29 
REMARK   20  A    between atoms: C14_29  and  C15_30 
REMARK   21  A    between atoms: C16_31  and  O13_49 
REMARK   22  A    between atoms: C17_32  and  O12_48 
REMARK   23  A    between atoms: C18_33  and  N3_35 
REMARK   24  A    between atoms: C21_40  and  N7_47 
REMARK   25  A    between atoms: O13_49  and  P3_50 
REMARK   26  A    between atoms: P3_50  and  O15_52 
REMARK   27  A    between atoms: P3_50  and  O16_53 
ROOT
HETATM    1  C1  UNL     1      -6.008  11.838  12.731  1.00  0.00     0.104 C 
HETATM    2  C2  UNL     1      -5.737  11.428  11.315  1.00  0.00     0.182 C 
HETATM    3  O1  UNL     1      -6.546  11.580  10.403  1.00  0.00    -0.286 OA
ENDROOT
BRANCH   2   4
HETATM    4  S1  UNL     1      -4.170  10.669  11.067  1.00  0.00    -0.091 SA
BRANCH   4   5
HETATM    5  C3  UNL     1      -4.315  10.194   9.314  1.00  0.00     0.102 C 
BRANCH   5   6
HETATM    6  C4  UNL     1      -4.447   8.680   9.143  1.00  0.00     0.133 C 
BRANCH   6   7
HETATM    7  N1  UNL     1      -5.807   8.265   8.862  1.00  0.00    -0.360 N 
HETATM    8  C5  UNL     1      -6.676   7.905   9.865  1.00  0.00     0.219 C 
HETATM    9  O2  UNL     1      -6.335   7.835  11.040  1.00  0.00    -0.274 OA
HETATM   10  H8  UNL     1      -6.121   8.249   7.901  1.00  0.00     0.162 HD
BRANCH   8  11
HETATM   11  C6  UNL     1      -8.061   7.560   9.362  1.00  0.00     0.122 C 
BRANCH  11  12
HETATM   12  C7  UNL     1      -8.013   6.748   8.069  1.00  0.00     0.132 C 
BRANCH  12  13
HETATM   13  N2  UNL     1      -8.837   7.307   7.017  1.00  0.00    -0.358 N 
HETATM   14  C8  UNL     1     -10.179   6.984   6.938  1.00  0.00     0.247 C 
HETATM   15  O3  UNL     1     -10.690   6.140   7.662  1.00  0.00    -0.271 OA
HETATM   16  H13 UNL     1      -8.559   8.228   6.686  1.00  0.00     0.162 HD
BRANCH  14  17
HETATM   17  C9  UNL     1     -10.972   7.779   5.890  1.00  0.00     0.219 C 
BRANCH  17  18
HETATM   18  C10 UNL     1     -11.339   9.224   6.321  1.00  0.00     0.009 C 
HETATM   19  C11 UNL     1     -12.719   9.650   5.799  1.00  0.00     0.020 C 
HETATM   20  C12 UNL     1     -11.346   9.370   7.856  1.00  0.00     0.020 C 
BRANCH  18  21
HETATM   21  C13 UNL     1     -10.242  10.143   5.711  1.00  0.00     0.192 C 
BRANCH  21  22
HETATM   22  O4  UNL     1      -9.148  10.330   6.586  1.00  0.00    -0.296 OA
BRANCH  22  23
HETATM   23  P1  UNL     1      -7.710  10.832   6.087  1.00  0.00     0.401 P 
HETATM   24  O5  UNL     1      -7.692  11.335   4.678  1.00  0.00    -0.631 OA
BRANCH  23  25
HETATM   25  O6  UNL     1      -6.677   9.627   6.359  1.00  0.00    -0.307 OA
HETATM   26  H23 UNL     1      -7.077   8.917   6.877  1.00  0.00     0.222 HD
ENDBRANCH  23  25
BRANCH  23  27
HETATM   27  O7  UNL     1      -7.243  11.891   7.178  1.00  0.00    -0.195 OA
BRANCH  27  28
HETATM   28  P2  UNL     1      -6.142  12.972   6.780  1.00  0.00     0.401 P 
HETATM   29  O8  UNL     1      -6.557  14.038   5.819  1.00  0.00    -0.631 OA
BRANCH  28  30
HETATM   30  O9  UNL     1      -5.645  13.526   8.192  1.00  0.00    -0.307 OA
HETATM   31  H24 UNL     1      -6.270  14.162   8.619  1.00  0.00     0.222 HD
ENDBRANCH  28  30
BRANCH  28  32
HETATM   32  O10 UNL     1      -4.879  12.096   6.347  1.00  0.00    -0.294 OA
BRANCH  32  33
HETATM   33  C14 UNL     1      -3.583  12.517   6.684  1.00  0.00     0.215 C 
BRANCH  33  34
HETATM   34  C15 UNL     1      -2.776  12.492   5.387  1.00  0.00     0.180 C 
HETATM   35  C16 UNL     1      -2.115  11.131   5.218  1.00  0.00     0.197 C 
HETATM   36  C17 UNL     1      -0.626  11.422   5.228  1.00  0.00     0.199 C 
HETATM   37  C18 UNL     1      -0.578  12.876   4.754  1.00  0.00     0.262 C 
HETATM   38  O11 UNL     1      -1.744  13.485   5.352  1.00  0.00    -0.353 OA
BRANCH  35  39
HETATM   39  O13 UNL     1      -2.545  10.583   3.976  1.00  0.00    -0.286 OA
BRANCH  39  40
HETATM   40  P3  UNL     1      -3.249   9.150   4.062  1.00  0.00     0.391 P 
HETATM   41  O14 UNL     1      -4.614   9.184   4.672  1.00  0.00    -0.632 OA
BRANCH  40  42
HETATM   42  O15 UNL     1      -2.121   8.307   4.820  1.00  0.00    -0.307 OA
HETATM   43  H36 UNL     1      -2.381   7.358   4.889  1.00  0.00     0.222 HD
ENDBRANCH  40  42
BRANCH  40  44
HETATM   44  O16 UNL     1      -3.127   8.648   2.559  1.00  0.00    -0.307 OA
HETATM   45  H37 UNL     1      -2.722   9.307   1.973  1.00  0.00     0.222 HD
ENDBRANCH  40  44
ENDBRANCH  39  40
ENDBRANCH  35  39
BRANCH  36  46
HETATM   46  O12 UNL     1       0.075  10.452   4.445  1.00  0.00    -0.388 OA
HETATM   47  H35 UNL     1       0.658   9.959   5.070  1.00  0.00     0.210 HD
ENDBRANCH  36  46
BRANCH  37  48
HETATM   48  N3  UNL     1       0.603  13.575   5.219  1.00  0.00    -0.297 N 
HETATM   49  C19 UNL     1       1.793  13.734   4.548  1.00  0.00     0.188 A 
HETATM   50  N4  UNL     1       2.624  14.527   5.188  1.00  0.00    -0.346 N 
HETATM   51  C20 UNL     1       1.937  14.906   6.328  1.00  0.00     0.116 A 
HETATM   52  H4  UNL     1       3.565  14.803   4.907  1.00  0.00     0.167 HD
HETATM   53  C21 UNL     1       2.256  15.769   7.391  1.00  0.00     0.109 A 
HETATM   54  C23 UNL     1       0.699  14.292   6.379  1.00  0.00     0.142 A 
HETATM   55  N5  UNL     1       1.355  15.929   8.390  1.00  0.00    -0.341 N 
HETATM   56  C22 UNL     1       0.195  15.246   8.319  1.00  0.00     0.183 A 
HETATM   57  H5  UNL     1       1.550  16.550   9.176  1.00  0.00     0.167 HD
HETATM   58  N6  UNL     1      -0.223  14.403   7.352  1.00  0.00    -0.336 N 
HETATM   59  H6  UNL     1      -1.118  13.915   7.358  1.00  0.00     0.168 HD
BRANCH  53  60
HETATM   60  N7  UNL     1       3.453  16.462   7.476  1.00  0.00    -0.287 NA
HETATM   61  H33 UNL     1       3.829  16.762   6.579  1.00  0.00     0.125 HD
HETATM   62  H34 UNL     1       4.105  16.044   8.126  1.00  0.00     0.125 HD
ENDBRANCH  53  60
ENDBRANCH  37  48
ENDBRANCH  33  34
ENDBRANCH  32  33
ENDBRANCH  28  32
ENDBRANCH  27  28
ENDBRANCH  23  27
ENDBRANCH  22  23
ENDBRANCH  21  22
ENDBRANCH  18  21
ENDBRANCH  17  18
BRANCH  17  63
HETATM   63  O17 UNL     1     -10.238   7.844   4.662  1.00  0.00    -0.385 OA
HETATM   64  H38 UNL     1     -10.863   8.054   3.948  1.00  0.00     0.210 HD
ENDBRANCH  17  63
ENDBRANCH  14  17
ENDBRANCH  12  13
ENDBRANCH  11  12
ENDBRANCH   8  11
ENDBRANCH   6   7
ENDBRANCH   5   6
ENDBRANCH   4   5
ENDBRANCH   2   4
TORSDOF 27
ENDMDL
MODEL 7
REMARK VINA RESULT:      -5.1      4.663      6.938
REMARK  27 active torsions:
REMARK  status: ('A' for Active; 'I' for Inactive)
REMARK    1  A    between atoms: C2_2  and  S1_4 
REMARK    2  A    between atoms: S1_4  and  C3_5 
REMARK    3  A    between atoms: C3_5  and  C4_6 
REMARK    4  A    between atoms: C4_6  and  N1_7 
REMARK       I    between atoms: N1_7  and  C5_8 
REMARK    5  A    between atoms: C5_8  and  C6_10 
REMARK    6  A    between atoms: C6_10  and  C7_11 
REMARK    7  A    between atoms: C7_11  and  N2_12 
REMARK       I    between atoms: N2_12  and  C8_13 
REMARK    8  A    between atoms: C8_13  and  C9_15 
REMARK    9  A    between atoms: C9_15  and  C10_16 
REMARK   10  A    between atoms: C9_15  and  O17_54 
REMARK   11  A    between atoms: C10_16  and  C13_19 
REMARK   12  A    between atoms: C13_19  and  O4_20 
REMARK   13  A    between atoms: O4_20  and  P1_21 
REMARK   14  A    between atoms: P1_21  and  O6_23 
REMARK   15  A    between atoms: P1_21  and  O7_24 
REMARK   16  A    between atoms: O7_24  and  P2_25 
REMARK   17  A    between atoms: P2_25  and  O9_27 
REMARK   18  A    between atoms: P2_25  and  O10_28 
REMARK   19  A    between atoms: O10_28  and  C14_29 
REMARK   20  A    between atoms: C14_29  and  C15_30 
REMARK   21  A    between atoms: C16_31  and  O13_49 
REMARK   22  A    between atoms: C17_32  and  O12_48 
REMARK   23  A    between atoms: C18_33  and  N3_35 
REMARK   24  A    between atoms: C21_40  and  N7_47 
REMARK   25  A    between atoms: O13_49  and  P3_50 
REMARK   26  A    between atoms: P3_50  and  O15_52 
REMARK   27  A    between atoms: P3_50  and  O16_53 
ROOT
HETATM    1  C1  UNL     1      -4.779   7.441   5.055  1.00  0.00     0.104 C 
HETATM    2  C2  UNL     1      -3.700   7.358   6.091  1.00  0.00     0.182 C 
HETATM    3  O1  UNL     1      -2.713   6.635   5.981  1.00  0.00    -0.286 OA
ENDROOT
BRANCH   2   4
HETATM    4  S1  UNL     1      -3.980   8.358   7.511  1.00  0.00    -0.091 SA
BRANCH   4   5
HETATM    5  C3  UNL     1      -5.759   8.062   7.769  1.00  0.00     0.102 C 
BRANCH   5   6
HETATM    6  C4  UNL     1      -6.018   6.731   8.479  1.00  0.00     0.133 C 
BRANCH   6   7
HETATM    7  N1  UNL     1      -7.248   6.098   8.049  1.00  0.00    -0.360 N 
HETATM    8  C5  UNL     1      -8.458   6.396   8.634  1.00  0.00     0.219 C 
HETATM    9  O2  UNL     1      -8.558   7.145   9.598  1.00  0.00    -0.274 OA
HETATM   10  H8  UNL     1      -7.212   5.427   7.294  1.00  0.00     0.162 HD
BRANCH   8  11
HETATM   11  C6  UNL     1      -9.624   5.668   8.001  1.00  0.00     0.122 C 
BRANCH  11  12
HETATM   12  C7  UNL     1     -10.784   6.612   7.687  1.00  0.00     0.132 C 
BRANCH  12  13
HETATM   13  N2  UNL     1     -10.351   7.881   7.140  1.00  0.00    -0.358 N 
HETATM   14  C8  UNL     1     -11.247   8.926   7.011  1.00  0.00     0.247 C 
HETATM   15  O3  UNL     1     -12.443   8.790   7.236  1.00  0.00    -0.271 OA
HETATM   16  H13 UNL     1      -9.377   8.121   7.310  1.00  0.00     0.162 HD
BRANCH  14  17
HETATM   17  C9  UNL     1     -10.621  10.262   6.587  1.00  0.00     0.219 C 
BRANCH  17  18
HETATM   18  C10 UNL     1     -10.792  10.603   5.083  1.00  0.00     0.009 C 
HETATM   19  C11 UNL     1     -10.939   9.343   4.217  1.00  0.00     0.020 C 
HETATM   20  C12 UNL     1     -12.028  11.493   4.842  1.00  0.00     0.020 C 
BRANCH  18  21
HETATM   21  C13 UNL     1      -9.504  11.372   4.671  1.00  0.00     0.192 C 
BRANCH  21  22
HETATM   22  O4  UNL     1      -8.795  11.873   5.787  1.00  0.00    -0.296 OA
BRANCH  22  23
HETATM   23  P1  UNL     1      -7.242  11.568   6.040  1.00  0.00     0.401 P 
HETATM   24  O5  UNL     1      -6.755  10.302   5.407  1.00  0.00    -0.631 OA
BRANCH  23  25
HETATM   25  O6  UNL     1      -7.009  11.629   7.632  1.00  0.00    -0.307 OA
HETATM   26  H23 UNL     1      -7.836  11.535   8.122  1.00  0.00     0.222 HD
ENDBRANCH  23  25
BRANCH  23  27
HETATM   27  O7  UNL     1      -6.482  12.883   5.566  1.00  0.00    -0.195 OA
BRANCH  27  28
HETATM   28  P2  UNL     1      -5.148  13.316   6.321  1.00  0.00     0.401 P 
HETATM   29  O8  UNL     1      -5.305  14.179   7.531  1.00  0.00    -0.631 OA
BRANCH  28  30
HETATM   30  O9  UNL     1      -4.419  11.925   6.605  1.00  0.00    -0.307 OA
HETATM   31  H24 UNL     1      -3.513  11.858   6.215  1.00  0.00     0.222 HD
ENDBRANCH  28  30
BRANCH  28  32
HETATM   32  O10 UNL     1      -4.221  13.903   5.161  1.00  0.00    -0.294 OA
BRANCH  32  33
HETATM   33  C14 UNL     1      -3.725  15.214   5.253  1.00  0.00     0.215 C 
BRANCH  33  34
HETATM   34  C15 UNL     1      -2.349  15.104   5.907  1.00  0.00     0.180 C 
HETATM   35  C16 UNL     1      -1.348  15.965   5.147  1.00  0.00     0.197 C 
HETATM   36  C17 UNL     1      -0.318  14.983   4.621  1.00  0.00     0.199 C 
HETATM   37  C18 UNL     1      -0.434  13.828   5.618  1.00  0.00     0.262 C 
HETATM   38  O11 UNL     1      -1.844  13.764   5.927  1.00  0.00    -0.353 OA
BRANCH  35  39
HETATM   39  O13 UNL     1      -0.782  16.896   6.063  1.00  0.00    -0.286 OA
BRANCH  39  40
HETATM   40  P3  UNL     1      -0.862  18.431   5.623  1.00  0.00     0.391 P 
HETATM   41  O14 UNL     1      -1.465  19.325   6.659  1.00  0.00    -0.632 OA
BRANCH  40  42
HETATM   42  O15 UNL     1      -1.625  18.302   4.223  1.00  0.00    -0.307 OA
HETATM   43  H36 UNL     1      -0.980  18.232   3.480  1.00  0.00     0.222 HD
ENDBRANCH  40  42
BRANCH  40  44
HETATM   44  O16 UNL     1       0.642  18.714   5.191  1.00  0.00    -0.307 OA
HETATM   45  H37 UNL     1       0.718  19.023   4.275  1.00  0.00     0.222 HD
ENDBRANCH  40  44
ENDBRANCH  39  40
ENDBRANCH  35  39
BRANCH  36  46
HETATM   46  O12 UNL     1       0.957  15.620   4.499  1.00  0.00    -0.388 OA
HETATM   47  H35 UNL     1       1.242  15.492   3.563  1.00  0.00     0.210 HD
ENDBRANCH  36  46
BRANCH  37  48
HETATM   48  N3  UNL     1      -0.024  12.559   5.050  1.00  0.00    -0.297 N 
HETATM   49  C19 UNL     1       1.252  12.050   4.989  1.00  0.00     0.188 A 
HETATM   50  N4  UNL     1       1.277  10.819   4.528  1.00  0.00    -0.346 N 
HETATM   51  C20 UNL     1      -0.050  10.513   4.281  1.00  0.00     0.116 A 
HETATM   52  H4  UNL     1       2.091  10.222   4.383  1.00  0.00     0.167 HD
HETATM   53  C21 UNL     1      -0.690   9.348   3.823  1.00  0.00     0.109 A 
HETATM   54  C23 UNL     1      -0.862  11.596   4.563  1.00  0.00     0.142 A 
HETATM   55  N5  UNL     1      -2.037   9.365   3.670  1.00  0.00    -0.341 N 
HETATM   56  C22 UNL     1      -2.698  10.502   3.963  1.00  0.00     0.183 A 
HETATM   57  H5  UNL     1      -2.536   8.538   3.344  1.00  0.00     0.167 HD
HETATM   58  N6  UNL     1      -2.197  11.670   4.415  1.00  0.00    -0.336 N 
HETATM   59  H6  UNL     1      -2.756  12.499   4.618  1.00  0.00     0.168 HD
BRANCH  53  60
HETATM   60  N7  UNL     1      -0.013   8.181   3.507  1.00  0.00    -0.287 NA
HETATM   61  H33 UNL     1       0.730   8.300   2.822  1.00  0.00     0.125 HD
HETATM   62  H34 UNL     1      -0.630   7.390   3.377  1.00  0.00     0.125 HD
ENDBRANCH  53  60
ENDBRANCH  37  48
ENDBRANCH  33  34
ENDBRANCH  32  33
ENDBRANCH  28  32
ENDBRANCH  27  28
ENDBRANCH  23  27
ENDBRANCH  22  23
ENDBRANCH  21  22
ENDBRANCH  18  21
ENDBRANCH  17  18
BRANCH  17  63
HETATM   63  O17 UNL     1     -11.173  11.333   7.361  1.00  0.00    -0.385 OA
HETATM   64  H38 UNL     1     -11.396  12.060   6.755  1.00  0.00     0.210 HD
ENDBRANCH  17  63
ENDBRANCH  14  17
ENDBRANCH  12  13
ENDBRANCH  11  12
ENDBRANCH   8  11
ENDBRANCH   6   7
ENDBRANCH   5   6
ENDBRANCH   4   5
ENDBRANCH   2   4
TORSDOF 27
ENDMDL
MODEL 8
REMARK VINA RESULT:      -5.1      5.023      7.799
REMARK  27 active torsions:
REMARK  status: ('A' for Active; 'I' for Inactive)
REMARK    1  A    between atoms: C2_2  and  S1_4 
REMARK    2  A    between atoms: S1_4  and  C3_5 
REMARK    3  A    between atoms: C3_5  and  C4_6 
REMARK    4  A    between atoms: C4_6  and  N1_7 
REMARK       I    between atoms: N1_7  and  C5_8 
REMARK    5  A    between atoms: C5_8  and  C6_10 
REMARK    6  A    between atoms: C6_10  and  C7_11 
REMARK    7  A    between atoms: C7_11  and  N2_12 
REMARK       I    between atoms: N2_12  and  C8_13 
REMARK    8  A    between atoms: C8_13  and  C9_15 
REMARK    9  A    between atoms: C9_15  and  C10_16 
REMARK   10  A    between atoms: C9_15  and  O17_54 
REMARK   11  A    between atoms: C10_16  and  C13_19 
REMARK   12  A    between atoms: C13_19  and  O4_20 
REMARK   13  A    between atoms: O4_20  and  P1_21 
REMARK   14  A    between atoms: P1_21  and  O6_23 
REMARK   15  A    between atoms: P1_21  and  O7_24 
REMARK   16  A    between atoms: O7_24  and  P2_25 
REMARK   17  A    between atoms: P2_25  and  O9_27 
REMARK   18  A    between atoms: P2_25  and  O10_28 
REMARK   19  A    between atoms: O10_28  and  C14_29 
REMARK   20  A    between atoms: C14_29  and  C15_30 
REMARK   21  A    between atoms: C16_31  and  O13_49 
REMARK   22  A    between atoms: C17_32  and  O12_48 
REMARK   23  A    between atoms: C18_33  and  N3_35 
REMARK   24  A    between atoms: C21_40  and  N7_47 
REMARK   25  A    between atoms: O13_49  and  P3_50 
REMARK   26  A    between atoms: P3_50  and  O15_52 
REMARK   27  A    between atoms: P3_50  and  O16_53 
ROOT
HETATM    1  C1  UNL     1      -1.580  13.835  13.285  1.00  0.00     0.104 C 
HETATM    2  C2  UNL     1      -2.721  12.875  13.143  1.00  0.00     0.182 C 
HETATM    3  O1  UNL     1      -3.587  12.979  12.278  1.00  0.00    -0.286 OA
ENDROOT
BRANCH   2   4
HETATM    4  S1  UNL     1      -2.748  11.597  14.351  1.00  0.00    -0.091 SA
BRANCH   4   5
HETATM    5  C3  UNL     1      -1.489  10.474  13.661  1.00  0.00     0.102 C 
BRANCH   5   6
HETATM    6  C4  UNL     1      -1.871   9.979  12.265  1.00  0.00     0.133 C 
BRANCH   6   7
HETATM    7  N1  UNL     1      -3.295   9.749  12.123  1.00  0.00    -0.360 N 
HETATM    8  C5  UNL     1      -3.813   9.057  11.053  1.00  0.00     0.219 C 
HETATM    9  O2  UNL     1      -3.119   8.666  10.121  1.00  0.00    -0.274 OA
HETATM   10  H8  UNL     1      -3.918  10.102  12.836  1.00  0.00     0.162 HD
BRANCH   8  11
HETATM   11  C6  UNL     1      -5.314   8.881  11.124  1.00  0.00     0.122 C 
BRANCH  11  12
HETATM   12  C7  UNL     1      -5.815   7.843  10.120  1.00  0.00     0.132 C 
BRANCH  12  13
HETATM   13  N2  UNL     1      -5.509   8.187   8.747  1.00  0.00    -0.358 N 
HETATM   14  C8  UNL     1      -5.581   7.226   7.755  1.00  0.00     0.247 C 
HETATM   15  O3  UNL     1      -5.785   6.045   8.006  1.00  0.00    -0.271 OA
HETATM   16  H13 UNL     1      -5.713   9.148   8.481  1.00  0.00     0.162 HD
BRANCH  14  17
HETATM   17  C9  UNL     1      -5.406   7.761   6.326  1.00  0.00     0.219 C 
BRANCH  17  18
HETATM   18  C10 UNL     1      -3.931   7.884   5.862  1.00  0.00     0.009 C 
HETATM   19  C11 UNL     1      -3.196   9.032   6.569  1.00  0.00     0.020 C 
HETATM   20  C12 UNL     1      -3.145   6.583   6.126  1.00  0.00     0.020 C 
BRANCH  18  21
HETATM   21  C13 UNL     1      -3.986   8.163   4.333  1.00  0.00     0.192 C 
BRANCH  21  22
HETATM   22  O4  UNL     1      -3.407   9.405   3.991  1.00  0.00    -0.296 OA
BRANCH  22  23
HETATM   23  P1  UNL     1      -2.288   9.560   2.853  1.00  0.00     0.401 P 
HETATM   24  O5  UNL     1      -2.612   8.852   1.575  1.00  0.00    -0.631 OA
BRANCH  23  25
HETATM   25  O6  UNL     1      -0.890   9.107   3.510  1.00  0.00    -0.307 OA
HETATM   26  H23 UNL     1      -0.233   9.815   3.487  1.00  0.00     0.222 HD
ENDBRANCH  23  25
BRANCH  23  27
HETATM   27  O7  UNL     1      -2.066  11.129   2.706  1.00  0.00    -0.195 OA
BRANCH  27  28
HETATM   28  P2  UNL     1      -1.726  11.984   4.006  1.00  0.00     0.401 P 
HETATM   29  O8  UNL     1      -0.597  11.500   4.857  1.00  0.00    -0.631 OA
BRANCH  28  30
HETATM   30  O9  UNL     1      -1.522  13.460   3.432  1.00  0.00    -0.307 OA
HETATM   31  H24 UNL     1      -2.314  14.043   3.528  1.00  0.00     0.222 HD
ENDBRANCH  28  30
BRANCH  28  32
HETATM   32  O10 UNL     1      -3.134  12.146   4.741  1.00  0.00    -0.294 OA
BRANCH  32  33
HETATM   33  C14 UNL     1      -3.970  13.229   4.426  1.00  0.00     0.215 C 
BRANCH  33  34
HETATM   34  C15 UNL     1      -4.886  13.426   5.632  1.00  0.00     0.180 C 
HETATM   35  C16 UNL     1      -4.469  12.486   6.755  1.00  0.00     0.197 C 
HETATM   36  C17 UNL     1      -5.671  11.585   6.969  1.00  0.00     0.199 C 
HETATM   37  C18 UNL     1      -6.822  12.458   6.463  1.00  0.00     0.262 C 
HETATM   38  O11 UNL     1      -6.264  13.167   5.336  1.00  0.00    -0.353 OA
BRANCH  35  39
HETATM   39  O13 UNL     1      -4.178  13.274   7.905  1.00  0.00    -0.286 OA
BRANCH  39  40
HETATM   40  P3  UNL     1      -2.779  12.967   8.614  1.00  0.00     0.391 P 
HETATM   41  O14 UNL     1      -2.160  14.160   9.268  1.00  0.00    -0.632 OA
BRANCH  40  42
HETATM   42  O15 UNL     1      -1.976  12.283   7.411  1.00  0.00    -0.307 OA
HETATM   43  H36 UNL     1      -1.261  11.698   7.756  1.00  0.00     0.222 HD
ENDBRANCH  40  42
BRANCH  40  44
HETATM   44  O16 UNL     1      -3.160  11.733   9.542  1.00  0.00    -0.307 OA
HETATM   45  H37 UNL     1      -2.413  11.133   9.696  1.00  0.00     0.222 HD
ENDBRANCH  40  44
ENDBRANCH  39  40
ENDBRANCH  35  39
BRANCH  36  46
HETATM   46  O12 UNL     1      -5.727  11.147   8.329  1.00  0.00    -0.388 OA
HETATM   47  H35 UNL     1      -4.797  11.149   8.660  1.00  0.00     0.210 HD
ENDBRANCH  36  46
BRANCH  37  48
HETATM   48  N3  UNL     1      -7.954  11.676   6.008  1.00  0.00    -0.297 N 
HETATM   49  C19 UNL     1      -8.132  10.318   6.135  1.00  0.00     0.188 A 
HETATM   50  N4  UNL     1      -9.323   9.931   5.732  1.00  0.00    -0.346 N 
HETATM   51  C20 UNL     1      -9.950  11.096   5.328  1.00  0.00     0.116 A 
HETATM   52  H4  UNL     1      -9.700   8.984   5.720  1.00  0.00     0.167 HD
HETATM   53  C21 UNL     1     -11.241  11.364   4.840  1.00  0.00     0.109 A 
HETATM   54  C23 UNL     1      -9.100  12.179   5.457  1.00  0.00     0.142 A 
HETATM   55  N5  UNL     1     -11.560  12.640   4.514  1.00  0.00    -0.341 N 
HETATM   56  C22 UNL     1     -10.619  13.593   4.669  1.00  0.00     0.183 A 
HETATM   57  H5  UNL     1     -12.488  12.873   4.160  1.00  0.00     0.167 HD
HETATM   58  N6  UNL     1      -9.360  13.459   5.133  1.00  0.00    -0.336 N 
HETATM   59  H6  UNL     1      -8.693  14.225   5.227  1.00  0.00     0.168 HD
BRANCH  53  60
HETATM   60  N7  UNL     1     -12.207  10.386   4.664  1.00  0.00    -0.287 NA
HETATM   61  H33 UNL     1     -13.018  10.689   4.129  1.00  0.00     0.125 HD
HETATM   62  H34 UNL     1     -12.389   9.855   5.505  1.00  0.00     0.125 HD
ENDBRANCH  53  60
ENDBRANCH  37  48
ENDBRANCH  33  34
ENDBRANCH  32  33
ENDBRANCH  28  32
ENDBRANCH  27  28
ENDBRANCH  23  27
ENDBRANCH  22  23
ENDBRANCH  21  22
ENDBRANCH  18  21
ENDBRANCH  17  18
BRANCH  17  63
HETATM   63  O17 UNL     1      -6.107   6.926   5.398  1.00  0.00    -0.385 OA
HETATM   64  H38 UNL     1      -5.588   6.114   5.272  1.00  0.00     0.210 HD
ENDBRANCH  17  63
ENDBRANCH  14  17
ENDBRANCH  12  13
ENDBRANCH  11  12
ENDBRANCH   8  11
ENDBRANCH   6   7
ENDBRANCH   5   6
ENDBRANCH   4   5
ENDBRANCH   2   4
TORSDOF 27
ENDMDL
MODEL 9
REMARK VINA RESULT:      -4.9     18.305     21.136
REMARK  27 active torsions:
REMARK  status: ('A' for Active; 'I' for Inactive)
REMARK    1  A    between atoms: C2_2  and  S1_4 
REMARK    2  A    between atoms: S1_4  and  C3_5 
REMARK    3  A    between atoms: C3_5  and  C4_6 
REMARK    4  A    between atoms: C4_6  and  N1_7 
REMARK       I    between atoms: N1_7  and  C5_8 
REMARK    5  A    between atoms: C5_8  and  C6_10 
REMARK    6  A    between atoms: C6_10  and  C7_11 
REMARK    7  A    between atoms: C7_11  and  N2_12 
REMARK       I    between atoms: N2_12  and  C8_13 
REMARK    8  A    between atoms: C8_13  and  C9_15 
REMARK    9  A    between atoms: C9_15  and  C10_16 
REMARK   10  A    between atoms: C9_15  and  O17_54 
REMARK   11  A    between atoms: C10_16  and  C13_19 
REMARK   12  A    between atoms: C13_19  and  O4_20 
REMARK   13  A    between atoms: O4_20  and  P1_21 
REMARK   14  A    between atoms: P1_21  and  O6_23 
REMARK   15  A    between atoms: P1_21  and  O7_24 
REMARK   16  A    between atoms: O7_24  and  P2_25 
REMARK   17  A    between atoms: P2_25  and  O9_27 
REMARK   18  A    between atoms: P2_25  and  O10_28 
REMARK   19  A    between atoms: O10_28  and  C14_29 
REMARK   20  A    between atoms: C14_29  and  C15_30 
REMARK   21  A    between atoms: C16_31  and  O13_49 
REMARK   22  A    between atoms: C17_32  and  O12_48 
REMARK   23  A    between atoms: C18_33  and  N3_35 
REMARK   24  A    between atoms: C21_40  and  N7_47 
REMARK   25  A    between atoms: O13_49  and  P3_50 
REMARK   26  A    between atoms: P3_50  and  O15_52 
REMARK   27  A    between atoms: P3_50  and  O16_53 
ROOT
HETATM    1  C1  UNL     1      14.176  12.712  -7.318  1.00  0.00     0.104 C 
HETATM    2  C2  UNL     1      15.651  12.585  -7.092  1.00  0.00     0.182 C 
HETATM    3  O1  UNL     1      16.330  13.460  -6.559  1.00  0.00    -0.286 OA
ENDROOT
BRANCH   2   4
HETATM    4  S1  UNL     1      16.351  11.087  -7.692  1.00  0.00    -0.091 SA
BRANCH   4   5
HETATM    5  C3  UNL     1      14.912   9.978  -7.549  1.00  0.00     0.102 C 
BRANCH   5   6
HETATM    6  C4  UNL     1      14.532   9.362  -8.897  1.00  0.00     0.133 C 
BRANCH   6   7
HETATM    7  N1  UNL     1      14.491  10.337  -9.967  1.00  0.00    -0.360 N 
HETATM    8  C5  UNL     1      13.451  10.382 -10.866  1.00  0.00     0.219 C 
HETATM    9  O2  UNL     1      12.544   9.557 -10.868  1.00  0.00    -0.274 OA
HETATM   10  H8  UNL     1      15.246  11.005 -10.045  1.00  0.00     0.162 HD
BRANCH   8  11
HETATM   11  C6  UNL     1      13.574  11.509 -11.868  1.00  0.00     0.122 C 
BRANCH  11  12
HETATM   12  C7  UNL     1      12.211  12.095 -12.238  1.00  0.00     0.132 C 
BRANCH  12  13
HETATM   13  N2  UNL     1      11.570  12.780 -11.135  1.00  0.00    -0.358 N 
HETATM   14  C8  UNL     1      10.355  12.332 -10.650  1.00  0.00     0.247 C 
HETATM   15  O3  UNL     1       9.726  11.434 -11.195  1.00  0.00    -0.271 OA
HETATM   16  H13 UNL     1      12.199  13.229 -10.473  1.00  0.00     0.162 HD
BRANCH  14  17
HETATM   17  C9  UNL     1       9.874  13.035  -9.372  1.00  0.00     0.219 C 
BRANCH  17  18
HETATM   18  C10 UNL     1       9.919  12.152  -8.097  1.00  0.00     0.009 C 
HETATM   19  C11 UNL     1       8.627  11.343  -7.908  1.00  0.00     0.020 C 
HETATM   20  C12 UNL     1      11.099  11.160  -8.138  1.00  0.00     0.020 C 
BRANCH  18  21
HETATM   21  C13 UNL     1      10.100  13.134  -6.904  1.00  0.00     0.192 C 
BRANCH  21  22
HETATM   22  O4  UNL     1       8.882  13.734  -6.512  1.00  0.00    -0.296 OA
BRANCH  22  23
HETATM   23  P1  UNL     1       8.712  15.318  -6.326  1.00  0.00     0.401 P 
HETATM   24  O5  UNL     1       9.864  15.981  -5.639  1.00  0.00    -0.631 OA
BRANCH  23  25
HETATM   25  O6  UNL     1       7.297  15.551  -5.594  1.00  0.00    -0.307 OA
HETATM   26  H23 UNL     1       7.361  15.433  -4.638  1.00  0.00     0.222 HD
ENDBRANCH  23  25
BRANCH  23  27
HETATM   27  O7  UNL     1       8.400  15.871  -7.785  1.00  0.00    -0.195 OA
BRANCH  27  28
HETATM   28  P2  UNL     1       7.400  17.101  -7.944  1.00  0.00     0.401 P 
HETATM   29  O8  UNL     1       5.939  16.791  -7.942  1.00  0.00    -0.631 OA
BRANCH  28  30
HETATM   30  O9  UNL     1       7.856  18.097  -6.782  1.00  0.00    -0.307 OA
HETATM   31  H24 UNL     1       7.254  18.870  -6.654  1.00  0.00     0.222 HD
ENDBRANCH  28  30
BRANCH  28  32
HETATM   32  O10 UNL     1       7.947  17.878  -9.228  1.00  0.00    -0.294 OA
BRANCH  32  33
HETATM   33  C14 UNL     1       9.080  17.404  -9.907  1.00  0.00     0.215 C 
BRANCH  33  34
HETATM   34  C15 UNL     1      10.217  18.365  -9.563  1.00  0.00     0.180 C 
HETATM   35  C16 UNL     1      11.383  17.590  -8.964  1.00  0.00     0.197 C 
HETATM   36  C17 UNL     1      11.531  18.141  -7.559  1.00  0.00     0.199 C 
HETATM   37  C18 UNL     1      10.931  19.543  -7.697  1.00  0.00     0.262 C 
HETATM   38  O11 UNL     1       9.832  19.371  -8.619  1.00  0.00    -0.353 OA
BRANCH  35  39
HETATM   39  O13 UNL     1      12.535  17.840  -9.763  1.00  0.00    -0.286 OA
BRANCH  39  40
HETATM   40  P3  UNL     1      13.257  16.544 -10.357  1.00  0.00     0.391 P 
HETATM   41  O14 UNL     1      14.520  16.843 -11.098  1.00  0.00    -0.632 OA
BRANCH  40  42
HETATM   42  O15 UNL     1      12.055  15.883 -11.180  1.00  0.00    -0.307 OA
HETATM   43  H36 UNL     1      12.370  15.097 -11.687  1.00  0.00     0.222 HD
ENDBRANCH  40  42
BRANCH  40  44
HETATM   44  O16 UNL     1      13.362  15.621  -9.066  1.00  0.00    -0.307 OA
HETATM   45  H37 UNL     1      12.888  15.988  -8.303  1.00  0.00     0.222 HD
ENDBRANCH  40  44
ENDBRANCH  39  40
ENDBRANCH  35  39
BRANCH  36  46
HETATM   46  O12 UNL     1      12.892  18.048  -7.130  1.00  0.00    -0.388 OA
HETATM   47  H35 UNL     1      12.925  17.318  -6.468  1.00  0.00     0.210 HD
ENDBRANCH  36  46
BRANCH  37  48
HETATM   48  N3  UNL     1      10.414  20.053  -6.444  1.00  0.00    -0.297 N 
HETATM   49  C19 UNL     1      10.756  19.644  -5.176  1.00  0.00     0.188 A 
HETATM   50  N4  UNL     1      10.203  20.392  -4.245  1.00  0.00    -0.346 N 
HETATM   51  C20 UNL     1       9.471  21.335  -4.944  1.00  0.00     0.116 A 
HETATM   52  H4  UNL     1      10.294  20.298  -3.234  1.00  0.00     0.167 HD
HETATM   53  C21 UNL     1       8.693  22.432  -4.536  1.00  0.00     0.109 A 
HETATM   54  C23 UNL     1       9.561  21.112  -6.306  1.00  0.00     0.142 A 
HETATM   55  N5  UNL     1       8.076  23.180  -5.484  1.00  0.00    -0.341 N 
HETATM   56  C22 UNL     1       8.235  22.829  -6.775  1.00  0.00     0.183 A 
HETATM   57  H5  UNL     1       7.507  23.986  -5.226  1.00  0.00     0.167 HD
HETATM   58  N6  UNL     1       8.958  21.811  -7.285  1.00  0.00    -0.336 N 
HETATM   59  H6  UNL     1       9.037  21.599  -8.279  1.00  0.00     0.168 HD
BRANCH  53  60
HETATM   60  N7  UNL     1       8.515  22.788  -3.208  1.00  0.00    -0.287 NA
HETATM   61  H33 UNL     1       7.909  23.593  -3.068  1.00  0.00     0.125 HD
HETATM   62  H34 UNL     1       9.374  22.765  -2.675  1.00  0.00     0.125 HD
ENDBRANCH  53  60
ENDBRANCH  37  48
ENDBRANCH  33  34
ENDBRANCH  32  33
ENDBRANCH  28  32
ENDBRANCH  27  28
ENDBRANCH  23  27
ENDBRANCH  22  23
ENDBRANCH  21  22
ENDBRANCH  18  21
ENDBRANCH  17  18
BRANCH  17  63
HETATM   63  O17 UNL     1      10.650  14.214  -9.135  1.00  0.00    -0.385 OA
HETATM   64  H38 UNL     1      11.203  14.059  -8.351  1.00  0.00     0.210 HD
ENDBRANCH  17  63
ENDBRANCH  14  17
ENDBRANCH  12  13
ENDBRANCH  11  12
ENDBRANCH   8  11
ENDBRANCH   6   7
ENDBRANCH   5   6
ENDBRANCH   4   5
ENDBRANCH   2   4
TORSDOF 27
ENDMDL
MODEL 10
REMARK VINA RESULT:      -4.9      3.975      5.887
REMARK  27 active torsions:
REMARK  status: ('A' for Active; 'I' for Inactive)
REMARK    1  A    between atoms: C2_2  and  S1_4 
REMARK    2  A    between atoms: S1_4  and  C3_5 
REMARK    3  A    between atoms: C3_5  and  C4_6 
REMARK    4  A    between atoms: C4_6  and  N1_7 
REMARK       I    between atoms: N1_7  and  C5_8 
REMARK    5  A    between atoms: C5_8  and  C6_10 
REMARK    6  A    between atoms: C6_10  and  C7_11 
REMARK    7  A    between atoms: C7_11  and  N2_12 
REMARK       I    between atoms: N2_12  and  C8_13 
REMARK    8  A    between atoms: C8_13  and  C9_15 
REMARK    9  A    between atoms: C9_15  and  C10_16 
REMARK   10  A    between atoms: C9_15  and  O17_54 
REMARK   11  A    between atoms: C10_16  and  C13_19 
REMARK   12  A    between atoms: C13_19  and  O4_20 
REMARK   13  A    between atoms: O4_20  and  P1_21 
REMARK   14  A    between atoms: P1_21  and  O6_23 
REMARK   15  A    between atoms: P1_21  and  O7_24 
REMARK   16  A    between atoms: O7_24  and  P2_25 
REMARK   17  A    between atoms: P2_25  and  O9_27 
REMARK   18  A    between atoms: P2_25  and  O10_28 
REMARK   19  A    between atoms: O10_28  and  C14_29 
REMARK   20  A    between atoms: C14_29  and  C15_30 
REMARK   21  A    between atoms: C16_31  and  O13_49 
REMARK   22  A    between atoms: C17_32  and  O12_48 
REMARK   23  A    between atoms: C18_33  and  N3_35 
REMARK   24  A    between atoms: C21_40  and  N7_47 
REMARK   25  A    between atoms: O13_49  and  P3_50 
REMARK   26  A    between atoms: P3_50  and  O15_52 
REMARK   27  A    between atoms: P3_50  and  O16_53 
ROOT
HETATM    1  C1  UNL     1      -4.402  14.286  12.501  1.00  0.00     0.104 C 
HETATM    2  C2  UNL     1      -4.126  13.957  11.066  1.00  0.00     0.182 C 
HETATM    3  O1  UNL     1      -4.366  12.859  10.568  1.00  0.00    -0.286 OA
ENDROOT
BRANCH   2   4
HETATM    4  S1  UNL     1      -3.388  15.264  10.151  1.00  0.00    -0.091 SA
BRANCH   4   5
HETATM    5  C3  UNL     1      -1.883  14.430   9.551  1.00  0.00     0.102 C 
BRANCH   5   6
HETATM    6  C4  UNL     1      -1.185  13.645  10.663  1.00  0.00     0.133 C 
BRANCH   6   7
HETATM    7  N1  UNL     1      -1.197  12.215  10.430  1.00  0.00    -0.360 N 
HETATM    8  C5  UNL     1      -1.474  11.320  11.437  1.00  0.00     0.219 C 
HETATM    9  O2  UNL     1      -1.647  11.667  12.600  1.00  0.00    -0.274 OA
HETATM   10  H8  UNL     1      -1.003  11.872   9.499  1.00  0.00     0.162 HD
BRANCH   8  11
HETATM   11  C6  UNL     1      -1.491   9.880  10.972  1.00  0.00     0.122 C 
BRANCH  11  12
HETATM   12  C7  UNL     1      -2.523   9.047  11.730  1.00  0.00     0.132 C 
BRANCH  12  13
HETATM   13  N2  UNL     1      -3.794   9.722  11.887  1.00  0.00    -0.358 N 
HETATM   14  C8  UNL     1      -4.920   9.245  11.242  1.00  0.00     0.247 C 
HETATM   15  O3  UNL     1      -4.869   8.326  10.436  1.00  0.00    -0.271 OA
HETATM   16  H13 UNL     1      -3.932  10.194  12.778  1.00  0.00     0.162 HD
BRANCH  14  17
HETATM   17  C9  UNL     1      -6.231   9.945  11.633  1.00  0.00     0.219 C 
BRANCH  17  18
HETATM   18  C10 UNL     1      -7.105   9.156  12.643  1.00  0.00     0.009 C 
HETATM   19  C11 UNL     1      -6.422   7.862  13.111  1.00  0.00     0.020 C 
HETATM   20  C12 UNL     1      -7.428  10.001  13.891  1.00  0.00     0.020 C 
BRANCH  18  21
HETATM   21  C13 UNL     1      -8.420   8.809  11.888  1.00  0.00     0.192 C 
BRANCH  21  22
HETATM   22  O4  UNL     1      -8.307   7.624  11.127  1.00  0.00    -0.296 OA
BRANCH  22  23
HETATM   23  P1  UNL     1      -8.544   7.582   9.541  1.00  0.00     0.401 P 
HETATM   24  O5  UNL     1      -9.729   6.772   9.120  1.00  0.00    -0.631 OA
BRANCH  23  25
HETATM   25  O6  UNL     1      -7.159   7.100   8.877  1.00  0.00    -0.307 OA
HETATM   26  H23 UNL     1      -7.290   6.371   8.257  1.00  0.00     0.222 HD
ENDBRANCH  23  25
BRANCH  23  27
HETATM   27  O7  UNL     1      -8.587   9.108   9.092  1.00  0.00    -0.195 OA
BRANCH  27  28
HETATM   28  P2  UNL     1      -8.004   9.507   7.664  1.00  0.00     0.401 P 
HETATM   29  O8  UNL     1      -8.347   8.612   6.519  1.00  0.00    -0.631 OA
BRANCH  28  30
HETATM   30  O9  UNL     1      -8.490  11.017   7.479  1.00  0.00    -0.307 OA
HETATM   31  H24 UNL     1      -8.525  11.317   6.538  1.00  0.00     0.222 HD
ENDBRANCH  28  30
BRANCH  28  32
HETATM   32  O10 UNL     1      -6.446   9.731   7.933  1.00  0.00    -0.294 OA
BRANCH  32  33
HETATM   33  C14 UNL     1      -5.806  10.878   7.437  1.00  0.00     0.215 C 
BRANCH  33  34
HETATM   34  C15 UNL     1      -5.272  10.505   6.055  1.00  0.00     0.180 C 
HETATM   35  C16 UNL     1      -4.249   9.384   6.183  1.00  0.00     0.197 C 
HETATM   36  C17 UNL     1      -2.954   9.983   5.667  1.00  0.00     0.199 C 
HETATM   37  C18 UNL     1      -3.459  11.082   4.729  1.00  0.00     0.262 C 
HETATM   38  O11 UNL     1      -4.636  11.601   5.388  1.00  0.00    -0.353 OA
BRANCH  35  39
HETATM   39  O13 UNL     1      -4.690   8.291   5.384  1.00  0.00    -0.286 OA
BRANCH  39  40
HETATM   40  P3  UNL     1      -4.814   6.889   6.142  1.00  0.00     0.391 P 
HETATM   41  O14 UNL     1      -3.916   5.827   5.595  1.00  0.00    -0.632 OA
BRANCH  40  42
HETATM   42  O15 UNL     1      -6.392   6.641   6.058  1.00  0.00    -0.307 OA
HETATM   43  H36 UNL     1      -6.887   7.429   6.389  1.00  0.00     0.222 HD
ENDBRANCH  40  42
BRANCH  40  44
HETATM   44  O16 UNL     1      -4.597   7.328   7.655  1.00  0.00    -0.307 OA
HETATM   45  H37 UNL     1      -3.830   7.912   7.771  1.00  0.00     0.222 HD
ENDBRANCH  40  44
ENDBRANCH  39  40
ENDBRANCH  35  39
BRANCH  36  46
HETATM   46  O12 UNL     1      -2.127   8.964   5.100  1.00  0.00    -0.388 OA
HETATM   47  H35 UNL     1      -1.603   8.585   5.845  1.00  0.00     0.210 HD
ENDBRANCH  36  46
BRANCH  37  48
HETATM   48  N3  UNL     1      -2.503  12.159   4.567  1.00  0.00    -0.297 N 
HETATM   49  C19 UNL     1      -1.369  12.154   3.788  1.00  0.00     0.188 A 
HETATM   50  N4  UNL     1      -0.781  13.329   3.756  1.00  0.00    -0.346 N 
HETATM   51  C20 UNL     1      -1.574  14.138   4.550  1.00  0.00     0.116 A 
HETATM   52  H4  UNL     1       0.071  13.587   3.258  1.00  0.00     0.167 HD
HETATM   53  C21 UNL     1      -1.511  15.502   4.884  1.00  0.00     0.109 A 
HETATM   54  C23 UNL     1      -2.622  13.416   5.091  1.00  0.00     0.142 A 
HETATM   55  N5  UNL     1      -2.454  16.011   5.715  1.00  0.00    -0.341 N 
HETATM   56  C22 UNL     1      -3.406  15.181   6.185  1.00  0.00     0.183 A 
HETATM   57  H5  UNL     1      -2.443  16.997   5.976  1.00  0.00     0.167 HD
HETATM   58  N6  UNL     1      -3.572  13.867   5.930  1.00  0.00    -0.336 N 
HETATM   59  H6  UNL     1      -4.318  13.292   6.320  1.00  0.00     0.168 HD
BRANCH  53  60
HETATM   60  N7  UNL     1      -0.526  16.357   4.415  1.00  0.00    -0.287 NA
HETATM   61  H33 UNL     1      -0.833  17.319   4.287  1.00  0.00     0.125 HD
HETATM   62  H34 UNL     1       0.027  15.952   3.672  1.00  0.00     0.125 HD
ENDBRANCH  53  60
ENDBRANCH  37  48
ENDBRANCH  33  34
ENDBRANCH  32  33
ENDBRANCH  28  32
ENDBRANCH  27  28
ENDBRANCH  23  27
ENDBRANCH  22  23
ENDBRANCH  21  22
ENDBRANCH  18  21
ENDBRANCH  17  18
BRANCH  17  63
HETATM   63  O17 UNL     1      -5.954  11.237  12.185  1.00  0.00    -0.385 OA
HETATM   64  H38 UNL     1      -6.343  11.906  11.596  1.00  0.00     0.210 HD
ENDBRANCH  17  63
ENDBRANCH  14  17
ENDBRANCH  12  13
ENDBRANCH  11  12
ENDBRANCH   8  11
ENDBRANCH   6   7
ENDBRANCH   5   6
ENDBRANCH   4   5
ENDBRANCH   2   4
TORSDOF 27
ENDMDL
MODEL 11
REMARK VINA RESULT:      -4.8      4.545     10.187
REMARK  27 active torsions:
REMARK  status: ('A' for Active; 'I' for Inactive)
REMARK    1  A    between atoms: C2_2  and  S1_4 
REMARK    2  A    between atoms: S1_4  and  C3_5 
REMARK    3  A    between atoms: C3_5  and  C4_6 
REMARK    4  A    between atoms: C4_6  and  N1_7 
REMARK       I    between atoms: N1_7  and  C5_8 
REMARK    5  A    between atoms: C5_8  and  C6_10 
REMARK    6  A    between atoms: C6_10  and  C7_11 
REMARK    7  A    between atoms: C7_11  and  N2_12 
REMARK       I    between atoms: N2_12  and  C8_13 
REMARK    8  A    between atoms: C8_13  and  C9_15 
REMARK    9  A    between atoms: C9_15  and  C10_16 
REMARK   10  A    between atoms: C9_15  and  O17_54 
REMARK   11  A    between atoms: C10_16  and  C13_19 
REMARK   12  A    between atoms: C13_19  and  O4_20 
REMARK   13  A    between atoms: O4_20  and  P1_21 
REMARK   14  A    between atoms: P1_21  and  O6_23 
REMARK   15  A    between atoms: P1_21  and  O7_24 
REMARK   16  A    between atoms: O7_24  and  P2_25 
REMARK   17  A    between atoms: P2_25  and  O9_27 
REMARK   18  A    between atoms: P2_25  and  O10_28 
REMARK   19  A    between atoms: O10_28  and  C14_29 
REMARK   20  A    between atoms: C14_29  and  C15_30 
REMARK   21  A    between atoms: C16_31  and  O13_49 
REMARK   22  A    between atoms: C17_32  and  O12_48 
REMARK   23  A    between atoms: C18_33  and  N3_35 
REMARK   24  A    between atoms: C21_40  and  N7_47 
REMARK   25  A    between atoms: O13_49  and  P3_50 
REMARK   26  A    between atoms: P3_50  and  O15_52 
REMARK   27  A    between atoms: P3_50  and  O16_53 
ROOT
HETATM    1  C1  UNL     1      -1.404  17.593  13.075  1.00  0.00     0.104 C 
HETATM    2  C2  UNL     1       0.073  17.474  12.855  1.00  0.00     0.182 C 
HETATM    3  O1  UNL     1       0.813  16.819  13.585  1.00  0.00    -0.286 OA
ENDROOT
BRANCH   2   4
HETATM    4  S1  UNL     1       0.677  18.387  11.479  1.00  0.00    -0.091 SA
BRANCH   4   5
HETATM    5  C3  UNL     1       1.658  17.100  10.642  1.00  0.00     0.102 C 
BRANCH   5   6
HETATM    6  C4  UNL     1       0.770  16.069   9.944  1.00  0.00     0.133 C 
BRANCH   6   7
HETATM    7  N1  UNL     1      -0.013  16.642   8.868  1.00  0.00    -0.360 N 
HETATM    8  C5  UNL     1      -0.800  15.864   8.052  1.00  0.00     0.219 C 
HETATM    9  O2  UNL     1      -0.827  14.641   8.131  1.00  0.00    -0.274 OA
HETATM   10  H8  UNL     1       0.019  17.642   8.722  1.00  0.00     0.162 HD
BRANCH   8  11
HETATM   11  C6  UNL     1      -1.577  16.664   7.028  1.00  0.00     0.122 C 
BRANCH  11  12
HETATM   12  C7  UNL     1      -0.732  17.780   6.416  1.00  0.00     0.132 C 
BRANCH  12  13
HETATM   13  N2  UNL     1       0.240  17.296   5.458  1.00  0.00    -0.358 N 
HETATM   14  C8  UNL     1       1.593  17.406   5.722  1.00  0.00     0.247 C 
HETATM   15  O3  UNL     1       2.019  18.011   6.698  1.00  0.00    -0.271 OA
HETATM   16  H13 UNL     1      -0.061  16.507   4.890  1.00  0.00     0.162 HD
BRANCH  14  17
HETATM   17  C9  UNL     1       2.506  16.697   4.712  1.00  0.00     0.219 C 
BRANCH  17  18
HETATM   18  C10 UNL     1       3.099  15.353   5.213  1.00  0.00     0.009 C 
HETATM   19  C11 UNL     1       4.630  15.320   5.102  1.00  0.00     0.020 C 
HETATM   20  C12 UNL     1       2.723  15.084   6.685  1.00  0.00     0.020 C 
BRANCH  18  21
HETATM   21  C13 UNL     1       2.485  14.250   4.305  1.00  0.00     0.192 C 
BRANCH  21  22
HETATM   22  O4  UNL     1       1.979  13.160   5.048  1.00  0.00    -0.296 OA
BRANCH  22  23
HETATM   23  P1  UNL     1       0.427  12.759   5.061  1.00  0.00     0.401 P 
HETATM   24  O5  UNL     1      -0.455  13.703   4.305  1.00  0.00    -0.631 OA
BRANCH  23  25
HETATM   25  O6  UNL     1       0.007  12.574   6.604  1.00  0.00    -0.307 OA
HETATM   26  H23 UNL     1      -0.649  13.226   6.882  1.00  0.00     0.222 HD
ENDBRANCH  23  25
BRANCH  23  27
HETATM   27  O7  UNL     1       0.386  11.254   4.547  1.00  0.00    -0.195 OA
BRANCH  27  28
HETATM   28  P2  UNL     1      -1.011  10.628   4.108  1.00  0.00     0.401 P 
HETATM   29  O8  UNL     1      -1.577  11.084   2.803  1.00  0.00    -0.631 OA
BRANCH  28  30
HETATM   30  O9  UNL     1      -0.750   9.055   4.191  1.00  0.00    -0.307 OA
HETATM   31  H24 UNL     1      -1.473   8.505   3.803  1.00  0.00     0.222 HD
ENDBRANCH  28  30
BRANCH  28  32
HETATM   32  O10 UNL     1      -1.946  10.838   5.386  1.00  0.00    -0.294 OA
BRANCH  32  33
HETATM   33  C14 UNL     1      -2.846   9.832   5.770  1.00  0.00     0.215 C 
BRANCH  33  34
HETATM   34  C15 UNL     1      -4.235  10.324   5.367  1.00  0.00     0.180 C 
HETATM   35  C16 UNL     1      -4.749  11.318   6.400  1.00  0.00     0.197 C 
HETATM   36  C17 UNL     1      -5.996  10.669   6.971  1.00  0.00     0.199 C 
HETATM   37  C18 UNL     1      -6.434   9.751   5.827  1.00  0.00     0.262 C 
HETATM   38  O11 UNL     1      -5.195   9.267   5.264  1.00  0.00    -0.353 OA
BRANCH  35  39
HETATM   39  O13 UNL     1      -5.040  12.540   5.729  1.00  0.00    -0.286 OA
BRANCH  39  40
HETATM   40  P3  UNL     1      -3.983  13.718   5.956  1.00  0.00     0.391 P 
HETATM   41  O14 UNL     1      -4.607  15.027   6.316  1.00  0.00    -0.632 OA
BRANCH  40  42
HETATM   42  O15 UNL     1      -3.155  13.644   4.589  1.00  0.00    -0.307 OA
HETATM   43  H36 UNL     1      -2.185  13.611   4.770  1.00  0.00     0.222 HD
ENDBRANCH  40  42
BRANCH  40  44
HETATM   44  O16 UNL     1      -2.995  13.057   7.013  1.00  0.00    -0.307 OA
HETATM   45  H37 UNL     1      -3.448  12.459   7.628  1.00  0.00     0.222 HD
ENDBRANCH  40  44
ENDBRANCH  39  40
ENDBRANCH  35  39
BRANCH  36  46
HETATM   46  O12 UNL     1      -6.923  11.669   7.402  1.00  0.00    -0.388 OA
HETATM   47  H35 UNL     1      -7.023  11.553   8.377  1.00  0.00     0.210 HD
ENDBRANCH  36  46
BRANCH  37  48
HETATM   48  N3  UNL     1      -7.210   8.618   6.290  1.00  0.00    -0.297 N 
HETATM   49  C19 UNL     1      -6.735   7.473   6.886  1.00  0.00     0.188 A 
HETATM   50  N4  UNL     1      -7.705   6.690   7.305  1.00  0.00    -0.346 N 
HETATM   51  C20 UNL     1      -8.867   7.363   6.968  1.00  0.00     0.116 A 
HETATM   52  H4  UNL     1      -7.621   5.788   7.774  1.00  0.00     0.167 HD
HETATM   53  C21 UNL     1     -10.227   7.079   7.179  1.00  0.00     0.109 A 
HETATM   54  C23 UNL     1      -8.575   8.540   6.304  1.00  0.00     0.142 A 
HETATM   55  N5  UNL     1     -11.152   7.952   6.710  1.00  0.00    -0.341 N 
HETATM   56  C22 UNL     1     -10.721   9.050   6.058  1.00  0.00     0.183 A 
HETATM   57  H5  UNL     1     -12.149   7.781   6.846  1.00  0.00     0.167 HD
HETATM   58  N6  UNL     1      -9.452   9.429   5.805  1.00  0.00    -0.336 N 
HETATM   59  H6  UNL     1      -9.191  10.278   5.303  1.00  0.00     0.168 HD
BRANCH  53  60
HETATM   60  N7  UNL     1     -10.677   5.944   7.835  1.00  0.00    -0.287 NA
HETATM   61  H33 UNL     1      -9.938   5.307   8.123  1.00  0.00     0.125 HD
HETATM   62  H34 UNL     1     -11.490   5.531   7.398  1.00  0.00     0.125 HD
ENDBRANCH  53  60
ENDBRANCH  37  48
ENDBRANCH  33  34
ENDBRANCH  32  33
ENDBRANCH  28  32
ENDBRANCH  27  28
ENDBRANCH  23  27
ENDBRANCH  22  23
ENDBRANCH  21  22
ENDBRANCH  18  21
ENDBRANCH  17  18
BRANCH  17  63
HETATM   63  O17 UNL     1       1.797  16.453   3.492  1.00  0.00    -0.385 OA
HETATM   64  H38 UNL     1       2.083  15.592   3.144  1.00  0.00     0.210 HD
ENDBRANCH  17  63
ENDBRANCH  14  17
ENDBRANCH  12  13
ENDBRANCH  11  12
ENDBRANCH   8  11
ENDBRANCH   6   7
ENDBRANCH   5   6
ENDBRANCH   4   5
ENDBRANCH   2   4
TORSDOF 27
ENDMDL
MODEL 12
REMARK VINA RESULT:      -4.8     18.830     21.040
REMARK  27 active torsions:
REMARK  status: ('A' for Active; 'I' for Inactive)
REMARK    1  A    between atoms: C2_2  and  S1_4 
REMARK    2  A    between atoms: S1_4  and  C3_5 
REMARK    3  A    between atoms: C3_5  and  C4_6 
REMARK    4  A    between atoms: C4_6  and  N1_7 
REMARK       I    between atoms: N1_7  and  C5_8 
REMARK    5  A    between atoms: C5_8  and  C6_10 
REMARK    6  A    between atoms: C6_10  and  C7_11 
REMARK    7  A    between atoms: C7_11  and  N2_12 
REMARK       I    between atoms: N2_12  and  C8_13 
REMARK    8  A    between atoms: C8_13  and  C9_15 
REMARK    9  A    between atoms: C9_15  and  C10_16 
REMARK   10  A    between atoms: C9_15  and  O17_54 
REMARK   11  A    between atoms: C10_16  and  C13_19 
REMARK   12  A    between atoms: C13_19  and  O4_20 
REMARK   13  A    between atoms: O4_20  and  P1_21 
REMARK   14  A    between atoms: P1_21  and  O6_23 
REMARK   15  A    between atoms: P1_21  and  O7_24 
REMARK   16  A    between atoms: O7_24  and  P2_25 
REMARK   17  A    between atoms: P2_25  and  O9_27 
REMARK   18  A    between atoms: P2_25  and  O10_28 
REMARK   19  A    between atoms: O10_28  and  C14_29 
REMARK   20  A    between atoms: C14_29  and  C15_30 
REMARK   21  A    between atoms: C16_31  and  O13_49 
REMARK   22  A    between atoms: C17_32  and  O12_48 
REMARK   23  A    between atoms: C18_33  and  N3_35 
REMARK   24  A    between atoms: C21_40  and  N7_47 
REMARK   25  A    between atoms: O13_49  and  P3_50 
REMARK   26  A    between atoms: P3_50  and  O15_52 
REMARK   27  A    between atoms: P3_50  and  O16_53 
ROOT
HETATM    1  C1  UNL     1      13.753  11.174  -6.575  1.00  0.00     0.104 C 
HETATM    2  C2  UNL     1      15.137  11.148  -7.147  1.00  0.00     0.182 C 
HETATM    3  O1  UNL     1      16.122  11.579  -6.551  1.00  0.00    -0.286 OA
ENDROOT
BRANCH   2   4
HETATM    4  S1  UNL     1      15.238  10.481  -8.771  1.00  0.00    -0.091 SA
BRANCH   4   5
HETATM    5  C3  UNL     1      16.270   9.013  -8.454  1.00  0.00     0.102 C 
BRANCH   5   6
HETATM    6  C4  UNL     1      15.698   7.760  -9.122  1.00  0.00     0.133 C 
BRANCH   6   7
HETATM    7  N1  UNL     1      15.251   8.003 -10.478  1.00  0.00    -0.360 N 
HETATM    8  C5  UNL     1      14.154   7.363 -11.004  1.00  0.00     0.219 C 
HETATM    9  O2  UNL     1      13.540   6.496 -10.393  1.00  0.00    -0.274 OA
HETATM   10  H8  UNL     1      15.759   8.668 -11.046  1.00  0.00     0.162 HD
BRANCH   8  11
HETATM   11  C6  UNL     1      13.824   7.800 -12.415  1.00  0.00     0.122 C 
BRANCH  11  12
HETATM   12  C7  UNL     1      12.439   8.441 -12.505  1.00  0.00     0.132 C 
BRANCH  12  13
HETATM   13  N2  UNL     1      11.989   8.999 -11.247  1.00  0.00    -0.358 N 
HETATM   14  C8  UNL     1      12.210  10.333 -10.959  1.00  0.00     0.247 C 
HETATM   15  O3  UNL     1      12.884  11.054 -11.683  1.00  0.00    -0.271 OA
HETATM   16  H13 UNL     1      11.158   8.568 -10.849  1.00  0.00     0.162 HD
BRANCH  14  17
HETATM   17  C9  UNL     1      11.529  10.836  -9.677  1.00  0.00     0.219 C 
BRANCH  17  18
HETATM   18  C10 UNL     1      10.322  11.781  -9.919  1.00  0.00     0.009 C 
HETATM   19  C11 UNL     1       9.732  11.617 -11.327  1.00  0.00     0.020 C 
HETATM   20  C12 UNL     1       9.193  11.527  -8.899  1.00  0.00     0.020 C 
BRANCH  18  21
HETATM   21  C13 UNL     1      10.870  13.226  -9.747  1.00  0.00     0.192 C 
BRANCH  21  22
HETATM   22  O4  UNL     1       9.911  14.103  -9.192  1.00  0.00    -0.296 OA
BRANCH  22  23
HETATM   23  P1  UNL     1      10.252  15.133  -8.012  1.00  0.00     0.401 P 
HETATM   24  O5  UNL     1      11.517  15.905  -8.219  1.00  0.00    -0.631 OA
BRANCH  23  25
HETATM   25  O6  UNL     1      10.221  14.294  -6.638  1.00  0.00    -0.307 OA
HETATM   26  H23 UNL     1      10.944  14.541  -6.047  1.00  0.00     0.222 HD
ENDBRANCH  23  25
BRANCH  23  27
HETATM   27  O7  UNL     1       8.945  16.028  -7.856  1.00  0.00    -0.195 OA
BRANCH  27  28
HETATM   28  P2  UNL     1       7.759  15.504  -6.930  1.00  0.00     0.401 P 
HETATM   29  O8  UNL     1       7.442  14.046  -6.997  1.00  0.00    -0.631 OA
BRANCH  28  30
HETATM   30  O9  UNL     1       8.177  16.014  -5.476  1.00  0.00    -0.307 OA
HETATM   31  H24 UNL     1       8.115  16.994  -5.359  1.00  0.00     0.222 HD
ENDBRANCH  28  30
BRANCH  28  32
HETATM   32  O10 UNL     1       6.550  16.496  -7.253  1.00  0.00    -0.294 OA
BRANCH  32  33
HETATM   33  C14 UNL     1       6.652  17.403  -8.320  1.00  0.00     0.215 C 
BRANCH  33  34
HETATM   34  C15 UNL     1       6.206  18.757  -7.773  1.00  0.00     0.180 C 
HETATM   35  C16 UNL     1       6.394  19.831  -8.837  1.00  0.00     0.197 C 
HETATM   36  C17 UNL     1       7.403  20.792  -8.239  1.00  0.00     0.199 C 
HETATM   37  C18 UNL     1       7.204  20.576  -6.737  1.00  0.00     0.262 C 
HETATM   38  O11 UNL     1       6.942  19.161  -6.612  1.00  0.00    -0.353 OA
BRANCH  35  39
HETATM   39  O13 UNL     1       5.133  20.450  -9.067  1.00  0.00    -0.286 OA
BRANCH  39  40
HETATM   40  P3  UNL     1       4.419  20.069 -10.446  1.00  0.00     0.391 P 
HETATM   41  O14 UNL     1       3.658  21.198 -11.063  1.00  0.00    -0.632 OA
BRANCH  40  42
HETATM   42  O15 UNL     1       3.593  18.771 -10.007  1.00  0.00    -0.307 OA
HETATM   43  H36 UNL     1       3.918  18.428  -9.141  1.00  0.00     0.222 HD
ENDBRANCH  40  42
BRANCH  40  44
HETATM   44  O16 UNL     1       5.635  19.461 -11.272  1.00  0.00    -0.307 OA
HETATM   45  H37 UNL     1       5.623  19.723 -12.207  1.00  0.00     0.222 HD
ENDBRANCH  40  44
ENDBRANCH  39  40
ENDBRANCH  35  39
BRANCH  36  46
HETATM   46  O12 UNL     1       7.191  22.113  -8.746  1.00  0.00    -0.388 OA
HETATM   47  H35 UNL     1       7.083  22.021  -9.723  1.00  0.00     0.210 HD
ENDBRANCH  36  46
BRANCH  37  48
HETATM   48  N3  UNL     1       8.388  20.900  -5.966  1.00  0.00    -0.297 N 
HETATM   49  C19 UNL     1       8.609  22.033  -5.218  1.00  0.00     0.188 A 
HETATM   50  N4  UNL     1       9.731  21.969  -4.535  1.00  0.00    -0.346 N 
HETATM   51  C20 UNL     1      10.262  20.731  -4.852  1.00  0.00     0.116 A 
HETATM   52  H4  UNL     1      10.123  22.674  -3.911  1.00  0.00     0.167 HD
HETATM   53  C21 UNL     1      11.415  20.051  -4.423  1.00  0.00     0.109 A 
HETATM   54  C23 UNL     1       9.460  20.075  -5.768  1.00  0.00     0.142 A 
HETATM   55  N5  UNL     1      11.674  18.824  -4.938  1.00  0.00    -0.341 N 
HETATM   56  C22 UNL     1      10.813  18.317  -5.843  1.00  0.00     0.183 A 
HETATM   57  H5  UNL     1      12.498  18.298  -4.648  1.00  0.00     0.167 HD
HETATM   58  N6  UNL     1       9.679  18.869  -6.321  1.00  0.00    -0.336 N 
HETATM   59  H6  UNL     1       9.068  18.430  -7.010  1.00  0.00     0.168 HD
BRANCH  53  60
HETATM   60  N7  UNL     1      12.311  20.574  -3.504  1.00  0.00    -0.287 NA
HETATM   61  H33 UNL     1      11.941  21.343  -2.950  1.00  0.00     0.125 HD
HETATM   62  H34 UNL     1      13.241  20.690  -3.883  1.00  0.00     0.125 HD
ENDBRANCH  53  60
ENDBRANCH  37  48
ENDBRANCH  33  34
ENDBRANCH  32  33
ENDBRANCH  28  32
ENDBRANCH  27  28
ENDBRANCH  23  27
ENDBRANCH  22  23
ENDBRANCH  21  22
ENDBRANCH  18  21
ENDBRANCH  17  18
BRANCH  17  63
HETATM   63  O17 UNL     1      11.087   9.728  -8.886  1.00  0.00    -0.385 OA
HETATM   64  H38 UNL     1      10.418  10.051  -8.260  1.00  0.00     0.210 HD
ENDBRANCH  17  63
ENDBRANCH  14  17
ENDBRANCH  12  13
ENDBRANCH  11  12
ENDBRANCH   8  11
ENDBRANCH   6   7
ENDBRANCH   5   6
ENDBRANCH   4   5
ENDBRANCH   2   4
TORSDOF 27
ENDMDL
MODEL 13
REMARK VINA RESULT:      -4.6      3.741      7.277
REMARK  27 active torsions:
REMARK  status: ('A' for Active; 'I' for Inactive)
REMARK    1  A    between atoms: C2_2  and  S1_4 
REMARK    2  A    between atoms: S1_4  and  C3_5 
REMARK    3  A    between atoms: C3_5  and  C4_6 
REMARK    4  A    between atoms: C4_6  and  N1_7 
REMARK       I    between atoms: N1_7  and  C5_8 
REMARK    5  A    between atoms: C5_8  and  C6_10 
REMARK    6  A    between atoms: C6_10  and  C7_11 
REMARK    7  A    between atoms: C7_11  and  N2_12 
REMARK       I    between atoms: N2_12  and  C8_13 
REMARK    8  A    between atoms: C8_13  and  C9_15 
REMARK    9  A    between atoms: C9_15  and  C10_16 
REMARK   10  A    between atoms: C9_15  and  O17_54 
REMARK   11  A    between atoms: C10_16  and  C13_19 
REMARK   12  A    between atoms: C13_19  and  O4_20 
REMARK   13  A    between atoms: O4_20  and  P1_21 
REMARK   14  A    between atoms: P1_21  and  O6_23 
REMARK   15  A    between atoms: P1_21  and  O7_24 
REMARK   16  A    between atoms: O7_24  and  P2_25 
REMARK   17  A    between atoms: P2_25  and  O9_27 
REMARK   18  A    between atoms: P2_25  and  O10_28 
REMARK   19  A    between atoms: O10_28  and  C14_29 
REMARK   20  A    between atoms: C14_29  and  C15_30 
REMARK   21  A    between atoms: C16_31  and  O13_49 
REMARK   22  A    between atoms: C17_32  and  O12_48 
REMARK   23  A    between atoms: C18_33  and  N3_35 
REMARK   24  A    between atoms: C21_40  and  N7_47 
REMARK   25  A    between atoms: O13_49  and  P3_50 
REMARK   26  A    between atoms: P3_50  and  O15_52 
REMARK   27  A    between atoms: P3_50  and  O16_53 
ROOT
HETATM    1  C1  UNL     1       4.184  16.278   7.910  1.00  0.00     0.104 C 
HETATM    2  C2  UNL     1       4.037  15.705   6.533  1.00  0.00     0.182 C 
HETATM    3  O1  UNL     1       4.866  14.956   6.022  1.00  0.00    -0.286 OA
ENDROOT
BRANCH   2   4
HETATM    4  S1  UNL     1       2.588  16.225   5.683  1.00  0.00    -0.091 SA
BRANCH   4   5
HETATM    5  C3  UNL     1       2.117  14.667   4.864  1.00  0.00     0.102 C 
BRANCH   5   6
HETATM    6  C4  UNL     1       1.344  13.740   5.804  1.00  0.00     0.133 C 
BRANCH   6   7
HETATM    7  N1  UNL     1       0.361  12.933   5.110  1.00  0.00    -0.360 N 
HETATM    8  C5  UNL     1       0.670  11.691   4.607  1.00  0.00     0.219 C 
HETATM    9  O2  UNL     1       1.804  11.228   4.641  1.00  0.00    -0.274 OA
HETATM   10  H8  UNL     1      -0.577  13.294   5.003  1.00  0.00     0.162 HD
BRANCH   8  11
HETATM   11  C6  UNL     1      -0.512  10.992   3.969  1.00  0.00     0.122 C 
BRANCH  11  12
HETATM   12  C7  UNL     1      -0.543   9.501   4.306  1.00  0.00     0.132 C 
BRANCH  12  13
HETATM   13  N2  UNL     1      -1.885   8.959   4.354  1.00  0.00    -0.358 N 
HETATM   14  C8  UNL     1      -2.784   9.407   5.304  1.00  0.00     0.247 C 
HETATM   15  O3  UNL     1      -2.457  10.175   6.200  1.00  0.00    -0.271 OA
HETATM   16  H13 UNL     1      -2.265   8.652   3.461  1.00  0.00     0.162 HD
BRANCH  14  17
HETATM   17  C9  UNL     1      -4.218   8.882   5.132  1.00  0.00     0.219 C 
BRANCH  17  18
HETATM   18  C10 UNL     1      -4.637   7.807   6.168  1.00  0.00     0.009 C 
HETATM   19  C11 UNL     1      -5.712   6.859   5.616  1.00  0.00     0.020 C 
HETATM   20  C12 UNL     1      -3.434   6.951   6.614  1.00  0.00     0.020 C 
BRANCH  18  21
HETATM   21  C13 UNL     1      -5.206   8.588   7.387  1.00  0.00     0.192 C 
BRANCH  21  22
HETATM   22  O4  UNL     1      -6.619   8.595   7.410  1.00  0.00    -0.296 OA
BRANCH  22  23
HETATM   23  P1  UNL     1      -7.467   9.216   8.622  1.00  0.00     0.401 P 
HETATM   24  O5  UNL     1      -7.726   8.257   9.741  1.00  0.00    -0.631 OA
BRANCH  23  25
HETATM   25  O6  UNL     1      -8.804   9.843   7.981  1.00  0.00    -0.307 OA
HETATM   26  H23 UNL     1      -9.541   9.839   8.605  1.00  0.00     0.222 HD
ENDBRANCH  23  25
BRANCH  23  27
HETATM   27  O7  UNL     1      -6.679  10.532   9.043  1.00  0.00    -0.195 OA
BRANCH  27  28
HETATM   28  P2  UNL     1      -7.007  11.899   8.293  1.00  0.00     0.401 P 
HETATM   29  O8  UNL     1      -7.001  11.869   6.800  1.00  0.00    -0.631 OA
BRANCH  28  30
HETATM   30  O9  UNL     1      -8.402  12.341   8.931  1.00  0.00    -0.307 OA
HETATM   31  H24 UNL     1      -9.172  11.799   8.631  1.00  0.00     0.222 HD
ENDBRANCH  28  30
BRANCH  28  32
HETATM   32  O10 UNL     1      -6.024  12.958   8.974  1.00  0.00    -0.294 OA
BRANCH  32  33
HETATM   33  C14 UNL     1      -5.821  14.212   8.377  1.00  0.00     0.215 C 
BRANCH  33  34
HETATM   34  C15 UNL     1      -4.334  14.525   8.536  1.00  0.00     0.180 C 
HETATM   35  C16 UNL     1      -3.524  13.694   7.550  1.00  0.00     0.197 C 
HETATM   36  C17 UNL     1      -2.639  12.820   8.418  1.00  0.00     0.199 C 
HETATM   37  C18 UNL     1      -2.535  13.644   9.704  1.00  0.00     0.262 C 
HETATM   38  O11 UNL     1      -3.841  14.242   9.851  1.00  0.00    -0.353 OA
BRANCH  35  39
HETATM   39  O13 UNL     1      -2.768  14.587   6.739  1.00  0.00    -0.286 OA
BRANCH  39  40
HETATM   40  P3  UNL     1      -3.047  14.495   5.167  1.00  0.00     0.391 P 
HETATM   41  O14 UNL     1      -4.336  15.123   4.746  1.00  0.00    -0.632 OA
BRANCH  40  42
HETATM   42  O15 UNL     1      -2.874  12.923   4.924  1.00  0.00    -0.307 OA
HETATM   43  H36 UNL     1      -1.921  12.689   4.823  1.00  0.00     0.222 HD
ENDBRANCH  40  42
BRANCH  40  44
HETATM   44  O16 UNL     1      -1.703  15.103   4.572  1.00  0.00    -0.307 OA
HETATM   45  H37 UNL     1      -0.911  14.796   5.041  1.00  0.00     0.222 HD
ENDBRANCH  40  44
ENDBRANCH  39  40
ENDBRANCH  35  39
BRANCH  36  46
HETATM   46  O12 UNL     1      -1.422  12.513   7.734  1.00  0.00    -0.388 OA
HETATM   47  H35 UNL     1      -1.040  13.376   7.445  1.00  0.00     0.210 HD
ENDBRANCH  36  46
BRANCH  37  48
HETATM   48  N3  UNL     1      -2.263  12.825  10.868  1.00  0.00    -0.297 N 
HETATM   49  C19 UNL     1      -1.130  12.838  11.647  1.00  0.00     0.188 A 
HETATM   50  N4  UNL     1      -1.243  12.066  12.706  1.00  0.00    -0.346 N 
HETATM   51  C20 UNL     1      -2.516  11.530  12.612  1.00  0.00     0.116 A 
HETATM   52  H4  UNL     1      -0.549  11.900  13.435  1.00  0.00     0.167 HD
HETATM   53  C21 UNL     1      -3.252  10.670  13.445  1.00  0.00     0.109 A 
HETATM   54  C23 UNL     1      -3.143  11.961  11.457  1.00  0.00     0.142 A 
HETATM   55  N5  UNL     1      -4.501  10.309  13.064  1.00  0.00    -0.341 N 
HETATM   56  C22 UNL     1      -4.976  10.790  11.898  1.00  0.00     0.183 A 
HETATM   57  H5  UNL     1      -5.067   9.690  13.645  1.00  0.00     0.167 HD
HETATM   58  N6  UNL     1      -4.371  11.621  11.026  1.00  0.00    -0.336 N 
HETATM   59  H6  UNL     1      -4.788  11.949  10.154  1.00  0.00     0.168 HD
BRANCH  53  60
HETATM   60  N7  UNL     1      -2.762  10.162  14.638  1.00  0.00    -0.287 NA
HETATM   61  H33 UNL     1      -3.472   9.753  15.242  1.00  0.00     0.125 HD
HETATM   62  H34 UNL     1      -2.085  10.771  15.078  1.00  0.00     0.125 HD
ENDBRANCH  53  60
ENDBRANCH  37  48
ENDBRANCH  33  34
ENDBRANCH  32  33
ENDBRANCH  28  32
ENDBRANCH  27  28
ENDBRANCH  23  27
ENDBRANCH  22  23
ENDBRANCH  21  22
ENDBRANCH  18  21
ENDBRANCH  17  18
BRANCH  17  63
HETATM   63  O17 UNL     1      -5.151   9.966   5.198  1.00  0.00    -0.385 OA
HETATM   64  H38 UNL     1      -4.735  10.692   5.693  1.00  0.00     0.210 HD
ENDBRANCH  17  63
ENDBRANCH  14  17
ENDBRANCH  12  13
ENDBRANCH  11  12
ENDBRANCH   8  11
ENDBRANCH   6   7
ENDBRANCH   5   6
ENDBRANCH   4   5
ENDBRANCH   2   4
TORSDOF 27
ENDMDL
MODEL 14
REMARK VINA RESULT:      -4.5      5.752      9.155
REMARK  27 active torsions:
REMARK  status: ('A' for Active; 'I' for Inactive)
REMARK    1  A    between atoms: C2_2  and  S1_4 
REMARK    2  A    between atoms: S1_4  and  C3_5 
REMARK    3  A    between atoms: C3_5  and  C4_6 
REMARK    4  A    between atoms: C4_6  and  N1_7 
REMARK       I    between atoms: N1_7  and  C5_8 
REMARK    5  A    between atoms: C5_8  and  C6_10 
REMARK    6  A    between atoms: C6_10  and  C7_11 
REMARK    7  A    between atoms: C7_11  and  N2_12 
REMARK       I    between atoms: N2_12  and  C8_13 
REMARK    8  A    between atoms: C8_13  and  C9_15 
REMARK    9  A    between atoms: C9_15  and  C10_16 
REMARK   10  A    between atoms: C9_15  and  O17_54 
REMARK   11  A    between atoms: C10_16  and  C13_19 
REMARK   12  A    between atoms: C13_19  and  O4_20 
REMARK   13  A    between atoms: O4_20  and  P1_21 
REMARK   14  A    between atoms: P1_21  and  O6_23 
REMARK   15  A    between atoms: P1_21  and  O7_24 
REMARK   16  A    between atoms: O7_24  and  P2_25 
REMARK   17  A    between atoms: P2_25  and  O9_27 
REMARK   18  A    between atoms: P2_25  and  O10_28 
REMARK   19  A    between atoms: O10_28  and  C14_29 
REMARK   20  A    between atoms: C14_29  and  C15_30 
REMARK   21  A    between atoms: C16_31  and  O13_49 
REMARK   22  A    between atoms: C17_32  and  O12_48 
REMARK   23  A    between atoms: C18_33  and  N3_35 
REMARK   24  A    between atoms: C21_40  and  N7_47 
REMARK   25  A    between atoms: O13_49  and  P3_50 
REMARK   26  A    between atoms: P3_50  and  O15_52 
REMARK   27  A    between atoms: P3_50  and  O16_53 
ROOT
HETATM    1  C1  UNL     1      -3.496  19.629   8.518  1.00  0.00     0.104 C 
HETATM    2  C2  UNL     1      -3.749  18.412   7.683  1.00  0.00     0.182 C 
HETATM    3  O1  UNL     1      -4.100  17.332   8.153  1.00  0.00    -0.286 OA
ENDROOT
BRANCH   2   4
HETATM    4  S1  UNL     1      -3.462  18.639   5.963  1.00  0.00    -0.091 SA
BRANCH   4   5
HETATM    5  C3  UNL     1      -5.116  18.250   5.305  1.00  0.00     0.102 C 
BRANCH   5   6
HETATM    6  C4  UNL     1      -5.167  16.855   4.680  1.00  0.00     0.133 C 
BRANCH   6   7
HETATM    7  N1  UNL     1      -5.348  15.807   5.664  1.00  0.00    -0.360 N 
HETATM    8  C5  UNL     1      -4.440  14.784   5.807  1.00  0.00     0.219 C 
HETATM    9  O2  UNL     1      -3.474  14.650   5.065  1.00  0.00    -0.274 OA
HETATM   10  H8  UNL     1      -6.161  15.839   6.265  1.00  0.00     0.162 HD
BRANCH   8  11
HETATM   11  C6  UNL     1      -4.787  13.827   6.928  1.00  0.00     0.122 C 
BRANCH  11  12
HETATM   12  C7  UNL     1      -6.104  14.200   7.609  1.00  0.00     0.132 C 
BRANCH  12  13
HETATM   13  N2  UNL     1      -7.181  13.284   7.299  1.00  0.00    -0.358 N 
HETATM   14  C8  UNL     1      -8.057  13.563   6.265  1.00  0.00     0.247 C 
HETATM   15  O3  UNL     1      -8.032  14.627   5.660  1.00  0.00    -0.271 OA
HETATM   16  H13 UNL     1      -6.995  12.304   7.500  1.00  0.00     0.162 HD
BRANCH  14  17
HETATM   17  C9  UNL     1      -9.039  12.430   5.930  1.00  0.00     0.219 C 
BRANCH  17  18
HETATM   18  C10 UNL     1     -10.528  12.862   5.888  1.00  0.00     0.009 C 
HETATM   19  C11 UNL     1     -10.854  13.919   6.953  1.00  0.00     0.020 C 
HETATM   20  C12 UNL     1     -10.910  13.442   4.511  1.00  0.00     0.020 C 
BRANCH  18  21
HETATM   21  C13 UNL     1     -11.354  11.573   6.161  1.00  0.00     0.192 C 
BRANCH  21  22
HETATM   22  O4  UNL     1     -11.462  10.750   5.017  1.00  0.00    -0.296 OA
BRANCH  22  23
HETATM   23  P1  UNL     1     -11.143   9.179   5.042  1.00  0.00     0.401 P 
HETATM   24  O5  UNL     1     -11.225   8.517   3.702  1.00  0.00    -0.631 OA
BRANCH  23  25
HETATM   25  O6  UNL     1     -12.112   8.525   6.149  1.00  0.00    -0.307 OA
HETATM   26  H23 UNL     1     -11.678   8.448   7.009  1.00  0.00     0.222 HD
ENDBRANCH  23  25
BRANCH  23  27
HETATM   27  O7  UNL     1      -9.728   9.058   5.759  1.00  0.00    -0.195 OA
BRANCH  27  28
HETATM   28  P2  UNL     1      -9.557   8.019   6.954  1.00  0.00     0.401 P 
HETATM   29  O8  UNL     1     -10.147   8.401   8.272  1.00  0.00    -0.631 OA
BRANCH  28  30
HETATM   30  O9  UNL     1     -10.141   6.662   6.348  1.00  0.00    -0.307 OA
HETATM   31  H24 UNL     1     -10.258   5.940   7.012  1.00  0.00     0.222 HD
ENDBRANCH  28  30
BRANCH  28  32
HETATM   32  O10 UNL     1      -7.995   7.689   6.959  1.00  0.00    -0.294 OA
BRANCH  32  33
HETATM   33  C14 UNL     1      -7.483   6.724   7.840  1.00  0.00     0.215 C 
BRANCH  33  34
HETATM   34  C15 UNL     1      -6.150   7.273   8.347  1.00  0.00     0.180 C 
HETATM   35  C16 UNL     1      -6.332   8.709   8.821  1.00  0.00     0.197 C 
HETATM   36  C17 UNL     1      -5.437   9.530   7.912  1.00  0.00     0.199 C 
HETATM   37  C18 UNL     1      -4.387   8.504   7.480  1.00  0.00     0.262 C 
HETATM   38  O11 UNL     1      -5.127   7.271   7.345  1.00  0.00    -0.353 OA
BRANCH  35  39
HETATM   39  O13 UNL     1      -5.922   8.779  10.183  1.00  0.00    -0.286 OA
BRANCH  39  40
HETATM   40  P3  UNL     1      -7.053   9.223  11.221  1.00  0.00     0.391 P 
HETATM   41  O14 UNL     1      -6.653  10.367  12.096  1.00  0.00    -0.632 OA
BRANCH  40  42
HETATM   42  O15 UNL     1      -7.373   7.825  11.930  1.00  0.00    -0.307 OA
HETATM   43  H36 UNL     1      -7.334   7.086  11.278  1.00  0.00     0.222 HD
ENDBRANCH  40  42
BRANCH  40  44
HETATM   44  O16 UNL     1      -8.300   9.434  10.258  1.00  0.00    -0.307 OA
HETATM   45  H37 UNL     1      -9.050   9.863  10.700  1.00  0.00     0.222 HD
ENDBRANCH  40  44
ENDBRANCH  39  40
ENDBRANCH  35  39
BRANCH  36  46
HETATM   46  O12 UNL     1      -4.973  10.698   8.595  1.00  0.00    -0.388 OA
HETATM   47  H35 UNL     1      -4.447  10.378   9.365  1.00  0.00     0.210 HD
ENDBRANCH  36  46
BRANCH  37  48
HETATM   48  N3  UNL     1      -3.784   8.828   6.203  1.00  0.00    -0.297 N 
HETATM   49  C19 UNL     1      -3.958   8.167   5.010  1.00  0.00     0.188 A 
HETATM   50  N4  UNL     1      -3.374   8.785   4.007  1.00  0.00    -0.346 N 
HETATM   51  C20 UNL     1      -2.795   9.905   4.577  1.00  0.00     0.116 A 
HETATM   52  H4  UNL     1      -3.352   8.502   3.027  1.00  0.00     0.167 HD
HETATM   53  C21 UNL     1      -2.070  10.982   4.038  1.00  0.00     0.109 A 
HETATM   54  C23 UNL     1      -3.008   9.924   5.943  1.00  0.00     0.142 A 
HETATM   55  N5  UNL     1      -1.616  11.944   4.878  1.00  0.00    -0.341 N 
HETATM   56  C22 UNL     1      -1.879  11.818   6.194  1.00  0.00     0.183 A 
HETATM   57  H5  UNL     1      -1.088  12.742   4.524  1.00  0.00     0.167 HD
HETATM   58  N6  UNL     1      -2.568  10.842   6.821  1.00  0.00    -0.336 N 
HETATM   59  H6  UNL     1      -2.733  10.806   7.827  1.00  0.00     0.168 HD
BRANCH  53  60
HETATM   60  N7  UNL     1      -1.783  11.108   2.688  1.00  0.00    -0.287 NA
HETATM   61  H33 UNL     1      -2.505  10.742   2.071  1.00  0.00     0.125 HD
HETATM   62  H34 UNL     1      -0.827  10.868   2.464  1.00  0.00     0.125 HD
ENDBRANCH  53  60
ENDBRANCH  37  48
ENDBRANCH  33  34
ENDBRANCH  32  33
ENDBRANCH  28  32
ENDBRANCH  27  28
ENDBRANCH  23  27
ENDBRANCH  22  23
ENDBRANCH  21  22
ENDBRANCH  18  21
ENDBRANCH  17  18
BRANCH  17  63
HETATM   63  O17 UNL     1      -8.700  11.842   4.669  1.00  0.00    -0.385 OA
HETATM   64  H38 UNL     1      -8.258  12.519   4.129  1.00  0.00     0.210 HD
ENDBRANCH  17  63
ENDBRANCH  14  17
ENDBRANCH  12  13
ENDBRANCH  11  12
ENDBRANCH   8  11
ENDBRANCH   6   7
ENDBRANCH   5   6
ENDBRANCH   4   5
ENDBRANCH   2   4
TORSDOF 27
ENDMDL
MODEL 15
REMARK VINA RESULT:      -4.4     10.599     13.682
REMARK  27 active torsions:
REMARK  status: ('A' for Active; 'I' for Inactive)
REMARK    1  A    between atoms: C2_2  and  S1_4 
REMARK    2  A    between atoms: S1_4  and  C3_5 
REMARK    3  A    between atoms: C3_5  and  C4_6 
REMARK    4  A    between atoms: C4_6  and  N1_7 
REMARK       I    between atoms: N1_7  and  C5_8 
REMARK    5  A    between atoms: C5_8  and  C6_10 
REMARK    6  A    between atoms: C6_10  and  C7_11 
REMARK    7  A    between atoms: C7_11  and  N2_12 
REMARK       I    between atoms: N2_12  and  C8_13 
REMARK    8  A    between atoms: C8_13  and  C9_15 
REMARK    9  A    between atoms: C9_15  and  C10_16 
REMARK   10  A    between atoms: C9_15  and  O17_54 
REMARK   11  A    between atoms: C10_16  and  C13_19 
REMARK   12  A    between atoms: C13_19  and  O4_20 
REMARK   13  A    between atoms: O4_20  and  P1_21 
REMARK   14  A    between atoms: P1_21  and  O6_23 
REMARK   15  A    between atoms: P1_21  and  O7_24 
REMARK   16  A    between atoms: O7_24  and  P2_25 
REMARK   17  A    between atoms: P2_25  and  O9_27 
REMARK   18  A    between atoms: P2_25  and  O10_28 
REMARK   19  A    between atoms: O10_28  and  C14_29 
REMARK   20  A    between atoms: C14_29  and  C15_30 
REMARK   21  A    between atoms: C16_31  and  O13_49 
REMARK   22  A    between atoms: C17_32  and  O12_48 
REMARK   23  A    between atoms: C18_33  and  N3_35 
REMARK   24  A    between atoms: C21_40  and  N7_47 
REMARK   25  A    between atoms: O13_49  and  P3_50 
REMARK   26  A    between atoms: P3_50  and  O15_52 
REMARK   27  A    between atoms: P3_50  and  O16_53 
ROOT
HETATM    1  C1  UNL     1       4.672  19.759  12.920  1.00  0.00     0.104 C 
HETATM    2  C2  UNL     1       4.552  18.266  12.967  1.00  0.00     0.182 C 
HETATM    3  O1  UNL     1       3.676  17.680  13.597  1.00  0.00    -0.286 OA
ENDROOT
BRANCH   2   4
HETATM    4  S1  UNL     1       5.802  17.410  12.074  1.00  0.00    -0.091 SA
BRANCH   4   5
HETATM    5  C3  UNL     1       5.280  15.688  12.357  1.00  0.00     0.102 C 
BRANCH   5   6
HETATM    6  C4  UNL     1       6.216  14.961  13.325  1.00  0.00     0.133 C 
BRANCH   6   7
HETATM    7  N1  UNL     1       7.294  14.271  12.647  1.00  0.00    -0.360 N 
HETATM    8  C5  UNL     1       8.572  14.780  12.616  1.00  0.00     0.219 C 
HETATM    9  O2  UNL     1       8.858  15.876  13.084  1.00  0.00    -0.274 OA
HETATM   10  H8  UNL     1       7.099  13.389  12.193  1.00  0.00     0.162 HD
BRANCH   8  11
HETATM   11  C6  UNL     1       9.559  13.878  11.906  1.00  0.00     0.122 C 
BRANCH  11  12
HETATM   12  C7  UNL     1      11.005  14.292  12.175  1.00  0.00     0.132 C 
BRANCH  12  13
HETATM   13  N2  UNL     1      11.944  13.199  12.031  1.00  0.00    -0.358 N 
HETATM   14  C8  UNL     1      12.086  12.265  13.041  1.00  0.00     0.247 C 
HETATM   15  O3  UNL     1      11.526  12.385  14.123  1.00  0.00    -0.271 OA
HETATM   16  H13 UNL     1      12.104  12.882  11.077  1.00  0.00     0.162 HD
BRANCH  14  17
HETATM   17  C9  UNL     1      12.979  11.066  12.688  1.00  0.00     0.219 C 
BRANCH  17  18
HETATM   18  C10 UNL     1      12.307  10.014  11.766  1.00  0.00     0.009 C 
HETATM   19  C11 UNL     1      12.510   8.581  12.282  1.00  0.00     0.020 C 
HETATM   20  C12 UNL     1      10.791  10.262  11.636  1.00  0.00     0.020 C 
BRANCH  18  21
HETATM   21  C13 UNL     1      12.987  10.169  10.376  1.00  0.00     0.192 C 
BRANCH  21  22
HETATM   22  O4  UNL     1      12.413  11.210   9.610  1.00  0.00    -0.296 OA
BRANCH  22  23
HETATM   23  P1  UNL     1      13.280  12.181   8.674  1.00  0.00     0.401 P 
HETATM   24  O5  UNL     1      14.420  11.505   7.979  1.00  0.00    -0.631 OA
BRANCH  23  25
HETATM   25  O6  UNL     1      13.724  13.432   9.585  1.00  0.00    -0.307 OA
HETATM   26  H23 UNL     1      13.623  13.246  10.527  1.00  0.00     0.222 HD
ENDBRANCH  23  25
BRANCH  23  27
HETATM   27  O7  UNL     1      12.222  12.866   7.702  1.00  0.00    -0.195 OA
BRANCH  27  28
HETATM   28  P2  UNL     1      12.558  14.295   7.083  1.00  0.00     0.401 P 
HETATM   29  O8  UNL     1      11.958  15.484   7.760  1.00  0.00    -0.631 OA
BRANCH  28  30
HETATM   30  O9  UNL     1      14.154  14.309   7.038  1.00  0.00    -0.307 OA
HETATM   31  H24 UNL     1      14.548  15.210   6.940  1.00  0.00     0.222 HD
ENDBRANCH  28  30
BRANCH  28  32
HETATM   32  O10 UNL     1      12.222  14.132   5.531  1.00  0.00    -0.294 OA
BRANCH  32  33
HETATM   33  C14 UNL     1      11.717  12.916   5.045  1.00  0.00     0.215 C 
BRANCH  33  34
HETATM   34  C15 UNL     1      10.625  13.277   4.040  1.00  0.00     0.180 C 
HETATM   35  C16 UNL     1      10.840  14.697   3.533  1.00  0.00     0.197 C 
HETATM   36  C17 UNL     1       9.603  15.455   3.976  1.00  0.00     0.199 C 
HETATM   37  C18 UNL     1       8.563  14.337   4.089  1.00  0.00     0.262 C 
HETATM   38  O11 UNL     1       9.308  13.208   4.598  1.00  0.00    -0.353 OA
BRANCH  35  39
HETATM   39  O13 UNL     1      10.960  14.646   2.116  1.00  0.00    -0.286 OA
BRANCH  39  40
HETATM   40  P3  UNL     1      12.304  15.269   1.515  1.00  0.00     0.391 P 
HETATM   41  O14 UNL     1      12.813  14.552   0.307  1.00  0.00    -0.632 OA
BRANCH  40  42
HETATM   42  O15 UNL     1      13.236  15.282   2.816  1.00  0.00    -0.307 OA
HETATM   43  H36 UNL     1      13.620  14.388   2.978  1.00  0.00     0.222 HD
ENDBRANCH  40  42
BRANCH  40  44
HETATM   44  O16 UNL     1      11.896  16.797   1.347  1.00  0.00    -0.307 OA
HETATM   45  H37 UNL     1      11.451  16.977   0.504  1.00  0.00     0.222 HD
ENDBRANCH  40  44
ENDBRANCH  39  40
ENDBRANCH  35  39
BRANCH  36  46
HETATM   46  O12 UNL     1       9.323  16.522   3.066  1.00  0.00    -0.388 OA
HETATM   47  H35 UNL     1      10.088  17.143   3.122  1.00  0.00     0.210 HD
ENDBRANCH  36  46
BRANCH  37  48
HETATM   48  N3  UNL     1       7.503  14.656   5.024  1.00  0.00    -0.297 N 
HETATM   49  C19 UNL     1       6.157  14.746   4.756  1.00  0.00     0.188 A 
HETATM   50  N4  UNL     1       5.443  14.927   5.845  1.00  0.00    -0.346 N 
HETATM   51  C20 UNL     1       6.371  14.951   6.871  1.00  0.00     0.116 A 
HETATM   52  H4  UNL     1       4.430  15.027   5.918  1.00  0.00     0.167 HD
HETATM   53  C21 UNL     1       6.246  15.069   8.266  1.00  0.00     0.109 A 
HETATM   54  C23 UNL     1       7.654  14.823   6.373  1.00  0.00     0.142 A 
HETATM   55  N5  UNL     1       7.372  15.069   9.021  1.00  0.00    -0.341 N 
HETATM   56  C22 UNL     1       8.560  14.961   8.394  1.00  0.00     0.183 A 
HETATM   57  H5  UNL     1       7.321  15.149  10.037  1.00  0.00     0.167 HD
HETATM   58  N6  UNL     1       8.802  14.834   7.073  1.00  0.00    -0.336 N 
HETATM   59  H6  UNL     1       9.732  14.756   6.661  1.00  0.00     0.168 HD
BRANCH  53  60
HETATM   60  N7  UNL     1       5.027  15.195   8.915  1.00  0.00    -0.287 NA
HETATM   61  H33 UNL     1       5.022  14.841   9.869  1.00  0.00     0.125 HD
HETATM   62  H34 UNL     1       4.242  14.943   8.331  1.00  0.00     0.125 HD
ENDBRANCH  53  60
ENDBRANCH  37  48
ENDBRANCH  33  34
ENDBRANCH  32  33
ENDBRANCH  28  32
ENDBRANCH  27  28
ENDBRANCH  23  27
ENDBRANCH  22  23
ENDBRANCH  21  22
ENDBRANCH  18  21
ENDBRANCH  17  18
BRANCH  17  63
HETATM   63  O17 UNL     1      14.184  11.517  12.060  1.00  0.00    -0.385 OA
HETATM   64  H38 UNL     1      14.251  11.086  11.192  1.00  0.00     0.210 HD
ENDBRANCH  17  63
ENDBRANCH  14  17
ENDBRANCH  12  13
ENDBRANCH  11  12
ENDBRANCH   8  11
ENDBRANCH   6   7
ENDBRANCH   5   6
ENDBRANCH   4   5
ENDBRANCH   2   4
TORSDOF 27
ENDMDL
MODEL 16
REMARK VINA RESULT:      -4.4      9.320     12.944
REMARK  27 active torsions:
REMARK  status: ('A' for Active; 'I' for Inactive)
REMARK    1  A    between atoms: C2_2  and  S1_4 
REMARK    2  A    between atoms: S1_4  and  C3_5 
REMARK    3  A    between atoms: C3_5  and  C4_6 
REMARK    4  A    between atoms: C4_6  and  N1_7 
REMARK       I    between atoms: N1_7  and  C5_8 
REMARK    5  A    between atoms: C5_8  and  C6_10 
REMARK    6  A    between atoms: C6_10  and  C7_11 
REMARK    7  A    between atoms: C7_11  and  N2_12 
REMARK       I    between atoms: N2_12  and  C8_13 
REMARK    8  A    between atoms: C8_13  and  C9_15 
REMARK    9  A    between atoms: C9_15  and  C10_16 
REMARK   10  A    between atoms: C9_15  and  O17_54 
REMARK   11  A    between atoms: C10_16  and  C13_19 
REMARK   12  A    between atoms: C13_19  and  O4_20 
REMARK   13  A    between atoms: O4_20  and  P1_21 
REMARK   14  A    between atoms: P1_21  and  O6_23 
REMARK   15  A    between atoms: P1_21  and  O7_24 
REMARK   16  A    between atoms: O7_24  and  P2_25 
REMARK   17  A    between atoms: P2_25  and  O9_27 
REMARK   18  A    between atoms: P2_25  and  O10_28 
REMARK   19  A    between atoms: O10_28  and  C14_29 
REMARK   20  A    between atoms: C14_29  and  C15_30 
REMARK   21  A    between atoms: C16_31  and  O13_49 
REMARK   22  A    between atoms: C17_32  and  O12_48 
REMARK   23  A    between atoms: C18_33  and  N3_35 
REMARK   24  A    between atoms: C21_40  and  N7_47 
REMARK   25  A    between atoms: O13_49  and  P3_50 
REMARK   26  A    between atoms: P3_50  and  O15_52 
REMARK   27  A    between atoms: P3_50  and  O16_53 
ROOT
HETATM    1  C1  UNL     1       2.772  18.794  11.198  1.00  0.00     0.104 C 
HETATM    2  C2  UNL     1       3.231  17.493  11.783  1.00  0.00     0.182 C 
HETATM    3  O1  UNL     1       2.544  16.817  12.545  1.00  0.00    -0.286 OA
ENDROOT
BRANCH   2   4
HETATM    4  S1  UNL     1       4.861  17.024  11.321  1.00  0.00    -0.091 SA
BRANCH   4   5
HETATM    5  C3  UNL     1       5.285  15.917  12.705  1.00  0.00     0.102 C 
BRANCH   5   6
HETATM    6  C4  UNL     1       6.704  16.165  13.219  1.00  0.00     0.133 C 
BRANCH   6   7
HETATM    7  N1  UNL     1       7.587  15.040  12.988  1.00  0.00    -0.360 N 
HETATM    8  C5  UNL     1       8.638  15.115  12.103  1.00  0.00     0.219 C 
HETATM    9  O2  UNL     1       8.842  16.099  11.402  1.00  0.00    -0.274 OA
HETATM   10  H8  UNL     1       7.427  14.183  13.499  1.00  0.00     0.162 HD
BRANCH   8  11
HETATM   11  C6  UNL     1       9.468  13.851  12.051  1.00  0.00     0.122 C 
BRANCH  11  12
HETATM   12  C7  UNL     1      10.618  13.882  13.057  1.00  0.00     0.132 C 
BRANCH  12  13
HETATM   13  N2  UNL     1      11.586  12.826  12.845  1.00  0.00    -0.358 N 
HETATM   14  C8  UNL     1      11.664  11.765  13.728  1.00  0.00     0.247 C 
HETATM   15  O3  UNL     1      11.016  11.733  14.767  1.00  0.00    -0.271 OA
HETATM   16  H13 UNL     1      11.829  12.642  11.874  1.00  0.00     0.162 HD
BRANCH  14  17
HETATM   17  C9  UNL     1      12.605  10.632  13.293  1.00  0.00     0.219 C 
BRANCH  17  18
HETATM   18  C10 UNL     1      11.963   9.597  12.332  1.00  0.00     0.009 C 
HETATM   19  C11 UNL     1      12.346   8.155  12.695  1.00  0.00     0.020 C 
HETATM   20  C12 UNL     1      10.424   9.696  12.340  1.00  0.00     0.020 C 
BRANCH  18  21
HETATM   21  C13 UNL     1      12.503   9.939  10.914  1.00  0.00     0.192 C 
BRANCH  21  22
HETATM   22  O4  UNL     1      11.729  10.930  10.268  1.00  0.00    -0.296 OA
BRANCH  22  23
HETATM   23  P1  UNL     1      12.374  12.080   9.355  1.00  0.00     0.401 P 
HETATM   24  O5  UNL     1      13.055  11.574   8.123  1.00  0.00    -0.631 OA
BRANCH  23  25
HETATM   25  O6  UNL     1      13.328  12.954  10.313  1.00  0.00    -0.307 OA
HETATM   26  H23 UNL     1      13.060  13.881  10.342  1.00  0.00     0.222 HD
ENDBRANCH  23  25
BRANCH  23  27
HETATM   27  O7  UNL     1      11.186  13.104   9.085  1.00  0.00    -0.195 OA
BRANCH  27  28
HETATM   28  P2  UNL     1      11.538  14.625   8.770  1.00  0.00     0.401 P 
HETATM   29  O8  UNL     1      11.839  15.506   9.938  1.00  0.00    -0.631 OA
BRANCH  28  30
HETATM   30  O9  UNL     1      12.731  14.515   7.714  1.00  0.00    -0.307 OA
HETATM   31  H24 UNL     1      13.467  13.919   7.998  1.00  0.00     0.222 HD
ENDBRANCH  28  30
BRANCH  28  32
HETATM   32  O10 UNL     1      10.349  15.108   7.820  1.00  0.00    -0.294 OA
BRANCH  32  33
HETATM   33  C14 UNL     1       9.015  14.950   8.229  1.00  0.00     0.215 C 
BRANCH  33  34
HETATM   34  C15 UNL     1       8.279  14.317   7.048  1.00  0.00     0.180 C 
HETATM   35  C16 UNL     1       8.978  14.689   5.747  1.00  0.00     0.197 C 
HETATM   36  C17 UNL     1       7.943  15.479   4.968  1.00  0.00     0.199 C 
HETATM   37  C18 UNL     1       6.629  14.950   5.547  1.00  0.00     0.262 C 
HETATM   38  O11 UNL     1       6.915  14.742   6.948  1.00  0.00    -0.353 OA
BRANCH  35  39
HETATM   39  O13 UNL     1       9.344  13.484   5.083  1.00  0.00    -0.286 OA
BRANCH  39  40
HETATM   40  P3  UNL     1      10.834  13.441   4.505  1.00  0.00     0.391 P 
HETATM   41  O14 UNL     1      11.571  12.183   4.830  1.00  0.00    -0.632 OA
BRANCH  40  42
HETATM   42  O15 UNL     1      11.419  14.814   5.083  1.00  0.00    -0.307 OA
HETATM   43  H36 UNL     1      10.981  15.047   5.936  1.00  0.00     0.222 HD
ENDBRANCH  40  42
BRANCH  40  44
HETATM   44  O16 UNL     1      10.585  13.773   2.969  1.00  0.00    -0.307 OA
HETATM   45  H37 UNL     1      10.804  13.031   2.384  1.00  0.00     0.222 HD
ENDBRANCH  40  44
ENDBRANCH  39  40
ENDBRANCH  35  39
BRANCH  36  46
HETATM   46  O12 UNL     1       8.153  15.319   3.562  1.00  0.00    -0.388 OA
HETATM   47  H35 UNL     1       7.981  16.201   3.154  1.00  0.00     0.210 HD
ENDBRANCH  36  46
BRANCH  37  48
HETATM   48  N3  UNL     1       5.545  15.904   5.430  1.00  0.00    -0.297 N 
HETATM   49  C19 UNL     1       5.596  17.255   5.683  1.00  0.00     0.188 A 
HETATM   50  N4  UNL     1       4.476  17.865   5.359  1.00  0.00    -0.346 N 
HETATM   51  C20 UNL     1       3.661  16.861   4.868  1.00  0.00     0.116 A 
HETATM   52  H4  UNL     1       4.258  18.857   5.450  1.00  0.00     0.167 HD
HETATM   53  C21 UNL     1       2.365  16.867   4.324  1.00  0.00     0.109 A 
HETATM   54  C23 UNL     1       4.296  15.635   4.942  1.00  0.00     0.142 A 
HETATM   55  N5  UNL     1       1.820  15.689   3.932  1.00  0.00    -0.341 N 
HETATM   56  C22 UNL     1       2.550  14.566   4.086  1.00  0.00     0.183 A 
HETATM   57  H5  UNL     1       0.884  15.654   3.529  1.00  0.00     0.167 HD
HETATM   58  N6  UNL     1       3.797  14.439   4.583  1.00  0.00    -0.336 N 
HETATM   59  H6  UNL     1       4.296  13.554   4.674  1.00  0.00     0.168 HD
BRANCH  53  60
HETATM   60  N7  UNL     1       1.605  18.016   4.176  1.00  0.00    -0.287 NA
HETATM   61  H33 UNL     1       0.651  17.936   4.522  1.00  0.00     0.125 HD
HETATM   62  H34 UNL     1       1.727  18.457   3.274  1.00  0.00     0.125 HD
ENDBRANCH  53  60
ENDBRANCH  37  48
ENDBRANCH  33  34
ENDBRANCH  32  33
ENDBRANCH  28  32
ENDBRANCH  27  28
ENDBRANCH  23  27
ENDBRANCH  22  23
ENDBRANCH  21  22
ENDBRANCH  18  21
ENDBRANCH  17  18
BRANCH  17  63
HETATM   63  O17 UNL     1      13.771  11.174  12.663  1.00  0.00    -0.385 OA
HETATM   64  H38 UNL     1      14.408  11.407  13.359  1.00  0.00     0.210 HD
ENDBRANCH  17  63
ENDBRANCH  14  17
ENDBRANCH  12  13
ENDBRANCH  11  12
ENDBRANCH   8  11
ENDBRANCH   6   7
ENDBRANCH   5   6
ENDBRANCH   4   5
ENDBRANCH   2   4
TORSDOF 27
ENDMDL
MODEL 17
REMARK VINA RESULT:      -4.4      4.624      7.172
REMARK  27 active torsions:
REMARK  status: ('A' for Active; 'I' for Inactive)
REMARK    1  A    between atoms: C2_2  and  S1_4 
REMARK    2  A    between atoms: S1_4  and  C3_5 
REMARK    3  A    between atoms: C3_5  and  C4_6 
REMARK    4  A    between atoms: C4_6  and  N1_7 
REMARK       I    between atoms: N1_7  and  C5_8 
REMARK    5  A    between atoms: C5_8  and  C6_10 
REMARK    6  A    between atoms: C6_10  and  C7_11 
REMARK    7  A    between atoms: C7_11  and  N2_12 
REMARK       I    between atoms: N2_12  and  C8_13 
REMARK    8  A    between atoms: C8_13  and  C9_15 
REMARK    9  A    between atoms: C9_15  and  C10_16 
REMARK   10  A    between atoms: C9_15  and  O17_54 
REMARK   11  A    between atoms: C10_16  and  C13_19 
REMARK   12  A    between atoms: C13_19  and  O4_20 
REMARK   13  A    between atoms: O4_20  and  P1_21 
REMARK   14  A    between atoms: P1_21  and  O6_23 
REMARK   15  A    between atoms: P1_21  and  O7_24 
REMARK   16  A    between atoms: O7_24  and  P2_25 
REMARK   17  A    between atoms: P2_25  and  O9_27 
REMARK   18  A    between atoms: P2_25  and  O10_28 
REMARK   19  A    between atoms: O10_28  and  C14_29 
REMARK   20  A    between atoms: C14_29  and  C15_30 
REMARK   21  A    between atoms: C16_31  and  O13_49 
REMARK   22  A    between atoms: C17_32  and  O12_48 
REMARK   23  A    between atoms: C18_33  and  N3_35 
REMARK   24  A    between atoms: C21_40  and  N7_47 
REMARK   25  A    between atoms: O13_49  and  P3_50 
REMARK   26  A    between atoms: P3_50  and  O15_52 
REMARK   27  A    between atoms: P3_50  and  O16_53 
ROOT
HETATM    1  C1  UNL     1      -2.013   9.322   1.683  1.00  0.00     0.104 C 
HETATM    2  C2  UNL     1      -2.312   9.332   3.151  1.00  0.00     0.182 C 
HETATM    3  O1  UNL     1      -3.453   9.321   3.607  1.00  0.00    -0.286 OA
ENDROOT
BRANCH   2   4
HETATM    4  S1  UNL     1      -0.888   9.401   4.180  1.00  0.00    -0.091 SA
BRANCH   4   5
HETATM    5  C3  UNL     1      -0.401  11.141   3.942  1.00  0.00     0.102 C 
BRANCH   5   6
HETATM    6  C4  UNL     1      -0.939  12.041   5.056  1.00  0.00     0.133 C 
BRANCH   6   7
HETATM    7  N1  UNL     1      -2.376  11.948   5.206  1.00  0.00    -0.360 N 
HETATM    8  C5  UNL     1      -2.962  11.686   6.422  1.00  0.00     0.219 C 
HETATM    9  O2  UNL     1      -2.310  11.437   7.429  1.00  0.00    -0.274 OA
HETATM   10  H8  UNL     1      -2.960  12.087   4.392  1.00  0.00     0.162 HD
BRANCH   8  11
HETATM   11  C6  UNL     1      -4.475  11.686   6.371  1.00  0.00     0.122 C 
BRANCH  11  12
HETATM   12  C7  UNL     1      -5.093  11.597   7.766  1.00  0.00     0.132 C 
BRANCH  12  13
HETATM   13  N2  UNL     1      -5.984  10.466   7.920  1.00  0.00    -0.358 N 
HETATM   14  C8  UNL     1      -5.531   9.295   8.500  1.00  0.00     0.247 C 
HETATM   15  O3  UNL     1      -4.354   9.125   8.790  1.00  0.00    -0.271 OA
HETATM   16  H13 UNL     1      -6.968  10.698   8.047  1.00  0.00     0.162 HD
BRANCH  14  17
HETATM   17  C9  UNL     1      -6.619   8.244   8.764  1.00  0.00     0.219 C 
BRANCH  17  18
HETATM   18  C10 UNL     1      -6.889   7.286   7.574  1.00  0.00     0.009 C 
HETATM   19  C11 UNL     1      -5.688   7.193   6.622  1.00  0.00     0.020 C 
HETATM   20  C12 UNL     1      -7.221   5.860   8.061  1.00  0.00     0.020 C 
BRANCH  18  21
HETATM   21  C13 UNL     1      -8.112   7.879   6.817  1.00  0.00     0.192 C 
BRANCH  21  22
HETATM   22  O4  UNL     1      -8.859   8.773   7.617  1.00  0.00    -0.296 OA
BRANCH  22  23
HETATM   23  P1  UNL     1      -9.713   9.984   7.005  1.00  0.00     0.401 P 
HETATM   24  O5  UNL     1     -10.801  10.481   7.904  1.00  0.00    -0.631 OA
BRANCH  23  25
HETATM   25  O6  UNL     1     -10.233   9.503   5.560  1.00  0.00    -0.307 OA
HETATM   26  H23 UNL     1      -9.669   8.816   5.183  1.00  0.00     0.222 HD
ENDBRANCH  23  25
BRANCH  23  27
HETATM   27  O7  UNL     1      -8.635  11.081   6.597  1.00  0.00    -0.195 OA
BRANCH  27  28
HETATM   28  P2  UNL     1      -8.982  12.101   5.423  1.00  0.00     0.401 P 
HETATM   29  O8  UNL     1      -8.740  11.632   4.025  1.00  0.00    -0.631 OA
BRANCH  28  30
HETATM   30  O9  UNL     1     -10.499  12.502   5.721  1.00  0.00    -0.307 OA
HETATM   31  H24 UNL     1     -11.112  12.357   4.960  1.00  0.00     0.222 HD
ENDBRANCH  28  30
BRANCH  28  32
HETATM   32  O10 UNL     1      -8.234  13.447   5.847  1.00  0.00    -0.294 OA
BRANCH  32  33
HETATM   33  C14 UNL     1      -7.900  13.671   7.191  1.00  0.00     0.215 C 
BRANCH  33  34
HETATM   34  C15 UNL     1      -7.287  15.069   7.251  1.00  0.00     0.180 C 
HETATM   35  C16 UNL     1      -7.466  15.768   5.910  1.00  0.00     0.197 C 
HETATM   36  C17 UNL     1      -6.054  16.015   5.414  1.00  0.00     0.199 C 
HETATM   37  C18 UNL     1      -5.255  16.050   6.719  1.00  0.00     0.262 C 
HETATM   38  O11 UNL     1      -5.887  15.053   7.551  1.00  0.00    -0.353 OA
BRANCH  35  39
HETATM   39  O13 UNL     1      -8.175  16.982   6.137  1.00  0.00    -0.286 OA
BRANCH  39  40
HETATM   40  P3  UNL     1      -9.522  17.161   5.294  1.00  0.00     0.391 P 
HETATM   41  O14 UNL     1     -10.392  18.275   5.778  1.00  0.00    -0.632 OA
BRANCH  40  42
HETATM   42  O15 UNL     1     -10.114  15.676   5.358  1.00  0.00    -0.307 OA
HETATM   43  H36 UNL     1      -9.878  15.170   4.545  1.00  0.00     0.222 HD
ENDBRANCH  40  42
BRANCH  40  44
HETATM   44  O16 UNL     1      -8.955  17.259   3.811  1.00  0.00    -0.307 OA
HETATM   45  H37 UNL     1      -8.198  16.672   3.658  1.00  0.00     0.222 HD
ENDBRANCH  40  44
ENDBRANCH  39  40
ENDBRANCH  35  39
BRANCH  36  46
HETATM   46  O12 UNL     1      -6.015  17.182   4.589  1.00  0.00    -0.388 OA
HETATM   47  H35 UNL     1      -6.668  17.032   3.864  1.00  0.00     0.210 HD
ENDBRANCH  36  46
BRANCH  37  48
HETATM   48  N3  UNL     1      -3.864  15.687   6.531  1.00  0.00    -0.297 N 
HETATM   49  C19 UNL     1      -3.085  15.930   5.424  1.00  0.00     0.188 A 
HETATM   50  N4  UNL     1      -1.829  15.589   5.614  1.00  0.00    -0.346 N 
HETATM   51  C20 UNL     1      -1.792  15.105   6.910  1.00  0.00     0.116 A 
HETATM   52  H4  UNL     1      -1.055  15.664   4.954  1.00  0.00     0.167 HD
HETATM   53  C21 UNL     1      -0.746  14.627   7.718  1.00  0.00     0.109 A 
HETATM   54  C23 UNL     1      -3.053  15.124   7.475  1.00  0.00     0.142 A 
HETATM   55  N5  UNL     1      -1.037  14.204   8.973  1.00  0.00    -0.341 N 
HETATM   56  C22 UNL     1      -2.320  14.258   9.383  1.00  0.00     0.183 A 
HETATM   57  H5  UNL     1      -0.304  13.854   9.590  1.00  0.00     0.167 HD
HETATM   58  N6  UNL     1      -3.398  14.702   8.705  1.00  0.00    -0.336 N 
HETATM   59  H6  UNL     1      -4.348  14.717   9.076  1.00  0.00     0.168 HD
BRANCH  53  60
HETATM   60  N7  UNL     1       0.572  14.555   7.296  1.00  0.00    -0.287 NA
HETATM   61  H33 UNL     1       1.212  15.151   7.816  1.00  0.00     0.125 HD
HETATM   62  H34 UNL     1       0.665  14.556   6.290  1.00  0.00     0.125 HD
ENDBRANCH  53  60
ENDBRANCH  37  48
ENDBRANCH  33  34
ENDBRANCH  32  33
ENDBRANCH  28  32
ENDBRANCH  27  28
ENDBRANCH  23  27
ENDBRANCH  22  23
ENDBRANCH  21  22
ENDBRANCH  18  21
ENDBRANCH  17  18
BRANCH  17  63
HETATM   63  O17 UNL     1      -6.278   7.459   9.911  1.00  0.00    -0.385 OA
HETATM   64  H38 UNL     1      -6.347   8.027  10.697  1.00  0.00     0.210 HD
ENDBRANCH  17  63
ENDBRANCH  14  17
ENDBRANCH  12  13
ENDBRANCH  11  12
ENDBRANCH   8  11
ENDBRANCH   6   7
ENDBRANCH   5   6
ENDBRANCH   4   5
ENDBRANCH   2   4
TORSDOF 27
ENDMDL
MODEL 18
REMARK VINA RESULT:      -4.3      5.054      8.182
REMARK  27 active torsions:
REMARK  status: ('A' for Active; 'I' for Inactive)
REMARK    1  A    between atoms: C2_2  and  S1_4 
REMARK    2  A    between atoms: S1_4  and  C3_5 
REMARK    3  A    between atoms: C3_5  and  C4_6 
REMARK    4  A    between atoms: C4_6  and  N1_7 
REMARK       I    between atoms: N1_7  and  C5_8 
REMARK    5  A    between atoms: C5_8  and  C6_10 
REMARK    6  A    between atoms: C6_10  and  C7_11 
REMARK    7  A    between atoms: C7_11  and  N2_12 
REMARK       I    between atoms: N2_12  and  C8_13 
REMARK    8  A    between atoms: C8_13  and  C9_15 
REMARK    9  A    between atoms: C9_15  and  C10_16 
REMARK   10  A    between atoms: C9_15  and  O17_54 
REMARK   11  A    between atoms: C10_16  and  C13_19 
REMARK   12  A    between atoms: C13_19  and  O4_20 
REMARK   13  A    between atoms: O4_20  and  P1_21 
REMARK   14  A    between atoms: P1_21  and  O6_23 
REMARK   15  A    between atoms: P1_21  and  O7_24 
REMARK   16  A    between atoms: O7_24  and  P2_25 
REMARK   17  A    between atoms: P2_25  and  O9_27 
REMARK   18  A    between atoms: P2_25  and  O10_28 
REMARK   19  A    between atoms: O10_28  and  C14_29 
REMARK   20  A    between atoms: C14_29  and  C15_30 
REMARK   21  A    between atoms: C16_31  and  O13_49 
REMARK   22  A    between atoms: C17_32  and  O12_48 
REMARK   23  A    between atoms: C18_33  and  N3_35 
REMARK   24  A    between atoms: C21_40  and  N7_47 
REMARK   25  A    between atoms: O13_49  and  P3_50 
REMARK   26  A    between atoms: P3_50  and  O15_52 
REMARK   27  A    between atoms: P3_50  and  O16_53 
ROOT
HETATM    1  C1  UNL     1      -0.988  18.910  13.202  1.00  0.00     0.104 C 
HETATM    2  C2  UNL     1       0.046  17.879  12.869  1.00  0.00     0.182 C 
HETATM    3  O1  UNL     1       1.205  18.157  12.574  1.00  0.00    -0.286 OA
ENDROOT
BRANCH   2   4
HETATM    4  S1  UNL     1      -0.546  16.223  12.896  1.00  0.00    -0.091 SA
BRANCH   4   5
HETATM    5  C3  UNL     1      -0.766  15.929  11.112  1.00  0.00     0.102 C 
BRANCH   5   6
HETATM    6  C4  UNL     1      -1.296  14.522  10.827  1.00  0.00     0.133 C 
BRANCH   6   7
HETATM    7  N1  UNL     1      -1.532  14.288   9.417  1.00  0.00    -0.360 N 
HETATM    8  C5  UNL     1      -2.161  13.150   8.968  1.00  0.00     0.219 C 
HETATM    9  O2  UNL     1      -2.486  12.236   9.716  1.00  0.00    -0.274 OA
HETATM   10  H8  UNL     1      -1.230  14.986   8.751  1.00  0.00     0.162 HD
BRANCH   8  11
HETATM   11  C6  UNL     1      -2.358  13.127   7.467  1.00  0.00     0.122 C 
BRANCH  11  12
HETATM   12  C7  UNL     1      -3.548  12.260   7.061  1.00  0.00     0.132 C 
BRANCH  12  13
HETATM   13  N2  UNL     1      -3.230  10.849   7.005  1.00  0.00    -0.358 N 
HETATM   14  C8  UNL     1      -3.675  10.075   5.949  1.00  0.00     0.247 C 
HETATM   15  O3  UNL     1      -4.441  10.512   5.098  1.00  0.00    -0.271 OA
HETATM   16  H13 UNL     1      -2.349  10.581   7.439  1.00  0.00     0.162 HD
BRANCH  14  17
HETATM   17  C9  UNL     1      -3.120   8.643   5.920  1.00  0.00     0.219 C 
BRANCH  17  18
HETATM   18  C10 UNL     1      -4.204   7.535   5.852  1.00  0.00     0.009 C 
HETATM   19  C11 UNL     1      -4.763   7.360   4.432  1.00  0.00     0.020 C 
HETATM   20  C12 UNL     1      -3.650   6.173   6.316  1.00  0.00     0.020 C 
BRANCH  18  21
HETATM   21  C13 UNL     1      -5.342   7.992   6.809  1.00  0.00     0.192 C 
BRANCH  21  22
HETATM   22  O4  UNL     1      -5.151   7.531   8.131  1.00  0.00    -0.296 OA
BRANCH  22  23
HETATM   23  P1  UNL     1      -5.093   8.515   9.396  1.00  0.00     0.401 P 
HETATM   24  O5  UNL     1      -3.778   9.206   9.573  1.00  0.00    -0.631 OA
BRANCH  23  25
HETATM   25  O6  UNL     1      -5.552   7.654  10.676  1.00  0.00    -0.307 OA
HETATM   26  H23 UNL     1      -6.477   7.811  10.905  1.00  0.00     0.222 HD
ENDBRANCH  23  25
BRANCH  23  27
HETATM   27  O7  UNL     1      -6.337   9.489   9.216  1.00  0.00    -0.195 OA
BRANCH  27  28
HETATM   28  P2  UNL     1      -7.751   9.050   9.806  1.00  0.00     0.401 P 
HETATM   29  O8  UNL     1      -8.217   7.667   9.487  1.00  0.00    -0.631 OA
BRANCH  28  30
HETATM   30  O9  UNL     1      -7.603   9.343  11.369  1.00  0.00    -0.307 OA
HETATM   31  H24 UNL     1      -7.641   8.535  11.937  1.00  0.00     0.222 HD
ENDBRANCH  28  30
BRANCH  28  32
HETATM   32  O10 UNL     1      -8.733  10.234   9.377  1.00  0.00    -0.294 OA
BRANCH  32  33
HETATM   33  C14 UNL     1      -9.938   9.942   8.719  1.00  0.00     0.215 C 
BRANCH  33  34
HETATM   34  C15 UNL     1     -10.045  10.937   7.565  1.00  0.00     0.180 C 
HETATM   35  C16 UNL     1      -9.351  10.374   6.332  1.00  0.00     0.197 C 
HETATM   36  C17 UNL     1      -8.225  11.349   6.045  1.00  0.00     0.199 C 
HETATM   37  C18 UNL     1      -8.750  12.642   6.673  1.00  0.00     0.262 C 
HETATM   38  O11 UNL     1      -9.446  12.204   7.861  1.00  0.00    -0.353 OA
BRANCH  35  39
HETATM   39  O13 UNL     1     -10.302  10.325   5.274  1.00  0.00    -0.286 OA
BRANCH  39  40
HETATM   40  P3  UNL     1     -11.065   8.931   5.095  1.00  0.00     0.391 P 
HETATM   41  O14 UNL     1     -12.368   8.860   5.823  1.00  0.00    -0.632 OA
BRANCH  40  42
HETATM   42  O15 UNL     1      -9.917   7.905   5.529  1.00  0.00    -0.307 OA
HETATM   43  H36 UNL     1      -9.804   7.200   4.848  1.00  0.00     0.222 HD
ENDBRANCH  40  42
BRANCH  40  44
HETATM   44  O16 UNL     1     -11.097   8.790   3.512  1.00  0.00    -0.307 OA
HETATM   45  H37 UNL     1     -11.714   9.409   3.091  1.00  0.00     0.222 HD
ENDBRANCH  40  44
ENDBRANCH  39  40
ENDBRANCH  35  39
BRANCH  36  46
HETATM   46  O12 UNL     1      -7.933  11.371   4.645  1.00  0.00    -0.388 OA
HETATM   47  H35 UNL     1      -7.338  12.144   4.498  1.00  0.00     0.210 HD
ENDBRANCH  36  46
BRANCH  37  48
HETATM   48  N3  UNL     1      -7.685  13.544   7.063  1.00  0.00    -0.297 N 
HETATM   49  C19 UNL     1      -7.314  14.711   6.438  1.00  0.00     0.188 A 
HETATM   50  N4  UNL     1      -6.393  15.366   7.111  1.00  0.00    -0.346 N 
HETATM   51  C20 UNL     1      -6.159  14.587   8.231  1.00  0.00     0.116 A 
HETATM   52  H4  UNL     1      -5.950  16.251   6.864  1.00  0.00     0.167 HD
HETATM   53  C21 UNL     1      -5.325  14.754   9.350  1.00  0.00     0.109 A 
HETATM   54  C23 UNL     1      -6.924  13.436   8.194  1.00  0.00     0.142 A 
HETATM   55  N5  UNL     1      -5.309  13.785  10.298  1.00  0.00    -0.341 N 
HETATM   56  C22 UNL     1      -6.093  12.703  10.117  1.00  0.00     0.183 A 
HETATM   57  H5  UNL     1      -4.720  13.872  11.126  1.00  0.00     0.167 HD
HETATM   58  N6  UNL     1      -6.934  12.438   9.096  1.00  0.00    -0.336 N 
HETATM   59  H6  UNL     1      -7.502  11.595   9.018  1.00  0.00     0.168 HD
BRANCH  53  60
HETATM   60  N7  UNL     1      -4.507  15.857   9.534  1.00  0.00    -0.287 NA
HETATM   61  H33 UNL     1      -4.870  16.719   9.133  1.00  0.00     0.125 HD
HETATM   62  H34 UNL     1      -3.530  15.655   9.371  1.00  0.00     0.125 HD
ENDBRANCH  53  60
ENDBRANCH  37  48
ENDBRANCH  33  34
ENDBRANCH  32  33
ENDBRANCH  28  32
ENDBRANCH  27  28
ENDBRANCH  23  27
ENDBRANCH  22  23
ENDBRANCH  21  22
ENDBRANCH  18  21
ENDBRANCH  17  18
BRANCH  17  63
HETATM   63  O17 UNL     1      -2.233   8.481   4.808  1.00  0.00    -0.385 OA
HETATM   64  H38 UNL     1      -2.550   9.047   4.084  1.00  0.00     0.210 HD
ENDBRANCH  17  63
ENDBRANCH  14  17
ENDBRANCH  12  13
ENDBRANCH  11  12
ENDBRANCH   8  11
ENDBRANCH   6   7
ENDBRANCH   5   6
ENDBRANCH   4   5
ENDBRANCH   2   4
TORSDOF 27
ENDMDL
MODEL 19
REMARK VINA RESULT:      -4.3      4.778     10.739
REMARK  27 active torsions:
REMARK  status: ('A' for Active; 'I' for Inactive)
REMARK    1  A    between atoms: C2_2  and  S1_4 
REMARK    2  A    between atoms: S1_4  and  C3_5 
REMARK    3  A    between atoms: C3_5  and  C4_6 
REMARK    4  A    between atoms: C4_6  and  N1_7 
REMARK       I    between atoms: N1_7  and  C5_8 
REMARK    5  A    between atoms: C5_8  and  C6_10 
REMARK    6  A    between atoms: C6_10  and  C7_11 
REMARK    7  A    between atoms: C7_11  and  N2_12 
REMARK       I    between atoms: N2_12  and  C8_13 
REMARK    8  A    between atoms: C8_13  and  C9_15 
REMARK    9  A    between atoms: C9_15  and  C10_16 
REMARK   10  A    between atoms: C9_15  and  O17_54 
REMARK   11  A    between atoms: C10_16  and  C13_19 
REMARK   12  A    between atoms: C13_19  and  O4_20 
REMARK   13  A    between atoms: O4_20  and  P1_21 
REMARK   14  A    between atoms: P1_21  and  O6_23 
REMARK   15  A    between atoms: P1_21  and  O7_24 
REMARK   16  A    between atoms: O7_24  and  P2_25 
REMARK   17  A    between atoms: P2_25  and  O9_27 
REMARK   18  A    between atoms: P2_25  and  O10_28 
REMARK   19  A    between atoms: O10_28  and  C14_29 
REMARK   20  A    between atoms: C14_29  and  C15_30 
REMARK   21  A    between atoms: C16_31  and  O13_49 
REMARK   22  A    between atoms: C17_32  and  O12_48 
REMARK   23  A    between atoms: C18_33  and  N3_35 
REMARK   24  A    between atoms: C21_40  and  N7_47 
REMARK   25  A    between atoms: O13_49  and  P3_50 
REMARK   26  A    between atoms: P3_50  and  O15_52 
REMARK   27  A    between atoms: P3_50  and  O16_53 
ROOT
HETATM    1  C1  UNL     1       6.531  24.225  13.896  1.00  0.00     0.104 C 
HETATM    2  C2  UNL     1       5.886  23.222  12.990  1.00  0.00     0.182 C 
HETATM    3  O1  UNL     1       5.371  23.518  11.914  1.00  0.00    -0.286 OA
ENDROOT
BRANCH   2   4
HETATM    4  S1  UNL     1       5.888  21.577  13.610  1.00  0.00    -0.091 SA
BRANCH   4   5
HETATM    5  C3  UNL     1       6.584  20.691  12.178  1.00  0.00     0.102 C 
BRANCH   5   6
HETATM    6  C4  UNL     1       5.720  19.495  11.773  1.00  0.00     0.133 C 
BRANCH   6   7
HETATM    7  N1  UNL     1       6.301  18.727  10.690  1.00  0.00    -0.360 N 
HETATM    8  C5  UNL     1       5.622  18.505   9.515  1.00  0.00     0.219 C 
HETATM    9  O2  UNL     1       4.465  18.870   9.342  1.00  0.00    -0.274 OA
HETATM   10  H8  UNL     1       7.233  18.353  10.805  1.00  0.00     0.162 HD
BRANCH   8  11
HETATM   11  C6  UNL     1       6.427  17.729   8.495  1.00  0.00     0.122 C 
BRANCH  11  12
HETATM   12  C7  UNL     1       5.918  16.297   8.336  1.00  0.00     0.132 C 
BRANCH  12  13
HETATM   13  N2  UNL     1       4.548  16.230   7.871  1.00  0.00    -0.358 N 
HETATM   14  C8  UNL     1       4.229  15.483   6.752  1.00  0.00     0.247 C 
HETATM   15  O3  UNL     1       5.085  14.957   6.053  1.00  0.00    -0.271 OA
HETATM   16  H13 UNL     1       3.836  16.315   8.593  1.00  0.00     0.162 HD
BRANCH  14  17
HETATM   17  C9  UNL     1       2.724  15.353   6.473  1.00  0.00     0.219 C 
BRANCH  17  18
HETATM   18  C10 UNL     1       2.275  15.910   5.096  1.00  0.00     0.009 C 
HETATM   19  C11 UNL     1       3.023  17.197   4.721  1.00  0.00     0.020 C 
HETATM   20  C12 UNL     1       2.503  14.882   3.969  1.00  0.00     0.020 C 
BRANCH  18  21
HETATM   21  C13 UNL     1       0.755  16.210   5.232  1.00  0.00     0.192 C 
BRANCH  21  22
HETATM   22  O4  UNL     1       0.228  15.772   6.468  1.00  0.00    -0.296 OA
BRANCH  22  23
HETATM   23  P1  UNL     1      -1.050  14.810   6.578  1.00  0.00     0.401 P 
HETATM   24  O5  UNL     1      -2.154  15.354   7.430  1.00  0.00    -0.631 OA
BRANCH  23  25
HETATM   25  O6  UNL     1      -0.510  13.371   7.056  1.00  0.00    -0.307 OA
HETATM   26  H23 UNL     1       0.453  13.354   7.135  1.00  0.00     0.222 HD
ENDBRANCH  23  25
BRANCH  23  27
HETATM   27  O7  UNL     1      -1.462  14.501   5.073  1.00  0.00    -0.195 OA
BRANCH  27  28
HETATM   28  P2  UNL     1      -2.920  13.932   4.775  1.00  0.00     0.401 P 
HETATM   29  O8  UNL     1      -4.046  14.913   4.790  1.00  0.00    -0.631 OA
BRANCH  28  30
HETATM   30  O9  UNL     1      -2.739  13.169   3.384  1.00  0.00    -0.307 OA
HETATM   31  H24 UNL     1      -1.798  12.981   3.147  1.00  0.00     0.222 HD
ENDBRANCH  28  30
BRANCH  28  32
HETATM   32  O10 UNL     1      -3.062  12.693   5.773  1.00  0.00    -0.294 OA
BRANCH  32  33
HETATM   33  C14 UNL     1      -4.245  11.938   5.791  1.00  0.00     0.215 C 
BRANCH  33  34
HETATM   34  C15 UNL     1      -3.835  10.512   6.158  1.00  0.00     0.180 C 
HETATM   35  C16 UNL     1      -3.561   9.713   4.891  1.00  0.00     0.197 C 
HETATM   36  C17 UNL     1      -4.586   8.595   4.911  1.00  0.00     0.199 C 
HETATM   37  C18 UNL     1      -4.886   8.460   6.406  1.00  0.00     0.262 C 
HETATM   38  O11 UNL     1      -4.841   9.816   6.903  1.00  0.00    -0.353 OA
BRANCH  35  39
HETATM   39  O13 UNL     1      -2.227   9.219   4.961  1.00  0.00    -0.286 OA
BRANCH  39  40
HETATM   40  P3  UNL     1      -1.264   9.663   3.764  1.00  0.00     0.391 P 
HETATM   41  O14 UNL     1      -0.875  11.105   3.807  1.00  0.00    -0.632 OA
BRANCH  40  42
HETATM   42  O15 UNL     1      -2.106   9.160   2.500  1.00  0.00    -0.307 OA
HETATM   43  H36 UNL     1      -2.451   8.248   2.652  1.00  0.00     0.222 HD
ENDBRANCH  40  42
BRANCH  40  44
HETATM   44  O16 UNL     1      -0.102   8.583   3.878  1.00  0.00    -0.307 OA
HETATM   45  H37 UNL     1      -0.227   7.831   3.278  1.00  0.00     0.222 HD
ENDBRANCH  40  44
ENDBRANCH  39  40
ENDBRANCH  35  39
BRANCH  36  46
HETATM   46  O12 UNL     1      -4.076   7.442   4.236  1.00  0.00    -0.388 OA
HETATM   47  H35 UNL     1      -4.756   6.735   4.342  1.00  0.00     0.210 HD
ENDBRANCH  36  46
BRANCH  37  48
HETATM   48  N3  UNL     1      -6.204   7.913   6.661  1.00  0.00    -0.297 N 
HETATM   49  C19 UNL     1      -6.508   6.640   7.081  1.00  0.00     0.188 A 
HETATM   50  N4  UNL     1      -7.789   6.494   7.344  1.00  0.00    -0.346 N 
HETATM   51  C20 UNL     1      -8.341   7.736   7.086  1.00  0.00     0.116 A 
HETATM   52  H4  UNL     1      -8.268   5.653   7.666  1.00  0.00     0.167 HD
HETATM   53  C21 UNL     1      -9.646   8.243   7.211  1.00  0.00     0.109 A 
HETATM   54  C23 UNL     1      -7.377   8.614   6.625  1.00  0.00     0.142 A 
HETATM   55  N5  UNL     1      -9.879   9.531   6.860  1.00  0.00    -0.341 N 
HETATM   56  C22 UNL     1      -8.844  10.264   6.403  1.00  0.00     0.183 A 
HETATM   57  H5  UNL     1     -10.812   9.935   6.940  1.00  0.00     0.167 HD
HETATM   58  N6  UNL     1      -7.557   9.892   6.249  1.00  0.00    -0.336 N 
HETATM   59  H6  UNL     1      -6.818  10.500   5.895  1.00  0.00     0.168 HD
BRANCH  53  60
HETATM   60  N7  UNL     1     -10.716   7.489   7.667  1.00  0.00    -0.287 NA
HETATM   61  H33 UNL     1     -10.723   6.527   7.335  1.00  0.00     0.125 HD
HETATM   62  H34 UNL     1     -11.595   7.989   7.632  1.00  0.00     0.125 HD
ENDBRANCH  53  60
ENDBRANCH  37  48
ENDBRANCH  33  34
ENDBRANCH  32  33
ENDBRANCH  28  32
ENDBRANCH  27  28
ENDBRANCH  23  27
ENDBRANCH  22  23
ENDBRANCH  21  22
ENDBRANCH  18  21
ENDBRANCH  17  18
BRANCH  17  63
HETATM   63  O17 UNL     1       2.323  13.981   6.561  1.00  0.00    -0.385 OA
HETATM   64  H38 UNL     1       1.365  13.957   6.722  1.00  0.00     0.210 HD
ENDBRANCH  17  63
ENDBRANCH  14  17
ENDBRANCH  12  13
ENDBRANCH  11  12
ENDBRANCH   8  11
ENDBRANCH   6   7
ENDBRANCH   5   6
ENDBRANCH   4   5
ENDBRANCH   2   4
TORSDOF 27
ENDMDL
MODEL 20
REMARK VINA RESULT:      -4.3      4.451      8.332
REMARK  27 active torsions:
REMARK  status: ('A' for Active; 'I' for Inactive)
REMARK    1  A    between atoms: C2_2  and  S1_4 
REMARK    2  A    between atoms: S1_4  and  C3_5 
REMARK    3  A    between atoms: C3_5  and  C4_6 
REMARK    4  A    between atoms: C4_6  and  N1_7 
REMARK       I    between atoms: N1_7  and  C5_8 
REMARK    5  A    between atoms: C5_8  and  C6_10 
REMARK    6  A    between atoms: C6_10  and  C7_11 
REMARK    7  A    between atoms: C7_11  and  N2_12 
REMARK       I    between atoms: N2_12  and  C8_13 
REMARK    8  A    between atoms: C8_13  and  C9_15 
REMARK    9  A    between atoms: C9_15  and  C10_16 
REMARK   10  A    between atoms: C9_15  and  O17_54 
REMARK   11  A    between atoms: C10_16  and  C13_19 
REMARK   12  A    between atoms: C13_19  and  O4_20 
REMARK   13  A    between atoms: O4_20  and  P1_21 
REMARK   14  A    between atoms: P1_21  and  O6_23 
REMARK   15  A    between atoms: P1_21  and  O7_24 
REMARK   16  A    between atoms: O7_24  and  P2_25 
REMARK   17  A    between atoms: P2_25  and  O9_27 
REMARK   18  A    between atoms: P2_25  and  O10_28 
REMARK   19  A    between atoms: O10_28  and  C14_29 
REMARK   20  A    between atoms: C14_29  and  C15_30 
REMARK   21  A    between atoms: C16_31  and  O13_49 
REMARK   22  A    between atoms: C17_32  and  O12_48 
REMARK   23  A    between atoms: C18_33  and  N3_35 
REMARK   24  A    between atoms: C21_40  and  N7_47 
REMARK   25  A    between atoms: O13_49  and  P3_50 
REMARK   26  A    between atoms: P3_50  and  O15_52 
REMARK   27  A    between atoms: P3_50  and  O16_53 
ROOT
HETATM    1  C1  UNL     1      -7.357  10.141   9.945  1.00  0.00     0.104 C 
HETATM    2  C2  UNL     1      -7.195   9.346  11.204  1.00  0.00     0.182 C 
HETATM    3  O1  UNL     1      -8.092   8.661  11.690  1.00  0.00    -0.286 OA
ENDROOT
BRANCH   2   4
HETATM    4  S1  UNL     1      -5.616   9.502  11.962  1.00  0.00    -0.091 SA
BRANCH   4   5
HETATM    5  C3  UNL     1      -4.565   8.747  10.679  1.00  0.00     0.102 C 
BRANCH   5   6
HETATM    6  C4  UNL     1      -3.077   8.974  10.955  1.00  0.00     0.133 C 
BRANCH   6   7
HETATM    7  N1  UNL     1      -2.623  10.282  10.528  1.00  0.00    -0.360 N 
HETATM    8  C5  UNL     1      -1.588  10.931  11.161  1.00  0.00     0.219 C 
HETATM    9  O2  UNL     1      -1.046  10.485  12.166  1.00  0.00    -0.274 OA
HETATM   10  H8  UNL     1      -3.077  10.721   9.739  1.00  0.00     0.162 HD
BRANCH   8  11
HETATM   11  C6  UNL     1      -1.235  12.258  10.525  1.00  0.00     0.122 C 
BRANCH  11  12
HETATM   12  C7  UNL     1      -1.863  13.434  11.272  1.00  0.00     0.132 C 
BRANCH  12  13
HETATM   13  N2  UNL     1      -3.097  13.894  10.670  1.00  0.00    -0.358 N 
HETATM   14  C8  UNL     1      -3.717  15.038  11.139  1.00  0.00     0.247 C 
HETATM   15  O3  UNL     1      -3.324  15.630  12.135  1.00  0.00    -0.271 OA
HETATM   16  H13 UNL     1      -3.213  13.673   9.683  1.00  0.00     0.162 HD
BRANCH  14  17
HETATM   17  C9  UNL     1      -4.915  15.510  10.302  1.00  0.00     0.219 C 
BRANCH  17  18
HETATM   18  C10 UNL     1      -4.662  16.809   9.492  1.00  0.00     0.009 C 
HETATM   19  C11 UNL     1      -5.089  18.065  10.266  1.00  0.00     0.020 C 
HETATM   20  C12 UNL     1      -3.172  16.963   9.122  1.00  0.00     0.020 C 
BRANCH  18  21
HETATM   21  C13 UNL     1      -5.513  16.678   8.197  1.00  0.00     0.192 C 
BRANCH  21  22
HETATM   22  O4  UNL     1      -4.725  16.741   7.026  1.00  0.00    -0.296 OA
BRANCH  22  23
HETATM   23  P1  UNL     1      -4.725  15.586   5.913  1.00  0.00     0.401 P 
HETATM   24  O5  UNL     1      -3.484  15.539   5.079  1.00  0.00    -0.631 OA
BRANCH  23  25
HETATM   25  O6  UNL     1      -6.076  15.766   5.057  1.00  0.00    -0.307 OA
HETATM   26  H23 UNL     1      -6.826  15.314   5.464  1.00  0.00     0.222 HD
ENDBRANCH  23  25
BRANCH  23  27
HETATM   27  O7  UNL     1      -5.041  14.247   6.711  1.00  0.00    -0.195 OA
BRANCH  27  28
HETATM   28  P2  UNL     1      -5.737  13.038   5.941  1.00  0.00     0.401 P 
HETATM   29  O8  UNL     1      -7.224  13.089   5.805  1.00  0.00    -0.631 OA
BRANCH  28  30
HETATM   30  O9  UNL     1      -4.956  12.991   4.550  1.00  0.00    -0.307 OA
HETATM   31  H24 UNL     1      -4.959  13.848   4.056  1.00  0.00     0.222 HD
ENDBRANCH  28  30
BRANCH  28  32
HETATM   32  O10 UNL     1      -5.146  11.736   6.653  1.00  0.00    -0.294 OA
BRANCH  32  33
HETATM   33  C14 UNL     1      -3.758  11.581   6.793  1.00  0.00     0.215 C 
BRANCH  33  34
HETATM   34  C15 UNL     1      -3.488  10.078   6.730  1.00  0.00     0.180 C 
HETATM   35  C16 UNL     1      -3.387   9.633   5.277  1.00  0.00     0.197 C 
HETATM   36  C17 UNL     1      -4.528   8.650   5.095  1.00  0.00     0.199 C 
HETATM   37  C18 UNL     1      -4.744   8.140   6.522  1.00  0.00     0.262 C 
HETATM   38  O11 UNL     1      -4.515   9.299   7.353  1.00  0.00    -0.353 OA
BRANCH  35  39
HETATM   39  O13 UNL     1      -2.116   9.021   5.090  1.00  0.00    -0.286 OA
BRANCH  39  40
HETATM   40  P3  UNL     1      -1.224   9.628   3.910  1.00  0.00     0.391 P 
HETATM   41  O14 UNL     1      -0.821  11.051   4.131  1.00  0.00    -0.632 OA
BRANCH  40  42
HETATM   42  O15 UNL     1      -2.146   9.307   2.643  1.00  0.00    -0.307 OA
HETATM   43  H36 UNL     1      -1.596   9.016   1.877  1.00  0.00     0.222 HD
ENDBRANCH  40  42
BRANCH  40  44
HETATM   44  O16 UNL     1      -0.066   8.544   3.800  1.00  0.00    -0.307 OA
HETATM   45  H37 UNL     1       0.800   8.890   4.065  1.00  0.00     0.222 HD
ENDBRANCH  40  44
ENDBRANCH  39  40
ENDBRANCH  35  39
BRANCH  36  46
HETATM   46  O12 UNL     1      -4.195   7.683   4.096  1.00  0.00    -0.388 OA
HETATM   47  H35 UNL     1      -5.049   7.294   3.790  1.00  0.00     0.210 HD
ENDBRANCH  36  46
BRANCH  37  48
HETATM   48  N3  UNL     1      -6.096   7.666   6.744  1.00  0.00    -0.297 N 
HETATM   49  C19 UNL     1      -6.478   6.416   7.170  1.00  0.00     0.188 A 
HETATM   50  N4  UNL     1      -7.772   6.340   7.396  1.00  0.00    -0.346 N 
HETATM   51  C20 UNL     1      -8.251   7.606   7.108  1.00  0.00     0.116 A 
HETATM   52  H4  UNL     1      -8.303   5.530   7.714  1.00  0.00     0.167 HD
HETATM   53  C21 UNL     1      -9.531   8.181   7.188  1.00  0.00     0.109 A 
HETATM   54  C23 UNL     1      -7.229   8.426   6.665  1.00  0.00     0.142 A 
HETATM   55  N5  UNL     1      -9.685   9.475   6.815  1.00  0.00    -0.341 N 
HETATM   56  C22 UNL     1      -8.601  10.148   6.381  1.00  0.00     0.183 A 
HETATM   57  H5  UNL     1     -10.598   9.928   6.863  1.00  0.00     0.167 HD
HETATM   58  N6  UNL     1      -7.331   9.707   6.269  1.00  0.00    -0.336 N 
HETATM   59  H6  UNL     1      -6.551  10.271   5.930  1.00  0.00     0.168 HD
BRANCH  53  60
HETATM   60  N7  UNL     1     -10.651   7.490   7.620  1.00  0.00    -0.287 NA
HETATM   61  H33 UNL     1     -11.299   7.236   6.878  1.00  0.00     0.125 HD
HETATM   62  H34 UNL     1     -11.054   7.879   8.463  1.00  0.00     0.125 HD
ENDBRANCH  53  60
ENDBRANCH  37  48
ENDBRANCH  33  34
ENDBRANCH  32  33
ENDBRANCH  28  32
ENDBRANCH  27  28
ENDBRANCH  23  27
ENDBRANCH  22  23
ENDBRANCH  21  22
ENDBRANCH  18  21
ENDBRANCH  17  18
BRANCH  17  63
HETATM   63  O17 UNL     1      -5.318  14.480   9.393  1.00  0.00    -0.385 OA
HETATM   64  H38 UNL     1      -6.274  14.340   9.500  1.00  0.00     0.210 HD
ENDBRANCH  17  63
ENDBRANCH  14  17
ENDBRANCH  12  13
ENDBRANCH  11  12
ENDBRANCH   8  11
ENDBRANCH   6   7
ENDBRANCH   5   6
ENDBRANCH   4   5
ENDBRANCH   2   4
TORSDOF 27
ENDMDL
