MODEL 1
REMARK VINA RESULT:      -4.5      0.000      0.000
REMARK  2 active torsions:
REMARK  status: ('A' for Active; 'I' for Inactive)
REMARK    1  A    between atoms: C3_3  and  O1_8 
REMARK    2  A    between atoms: C6_6  and  N1_7 
ROOT
HETATM    1  C1  UNL     1       8.947   7.956  -3.824  1.00  0.00     0.026 A 
HETATM    2  C2  UNL     1       9.937   8.507  -3.006  1.00  0.00     0.038 A 
HETATM    3  C3  UNL     1      10.610   7.698  -2.102  1.00  0.00     0.065 A 
HETATM    4  C4  UNL     1      10.320   6.341  -2.013  1.00  0.00     0.038 A 
HETATM    5  C5  UNL     1       9.327   5.798  -2.833  1.00  0.00     0.026 A 
HETATM    6  C6  UNL     1       8.597   6.608  -3.709  1.00  0.00     0.005 A 
ENDROOT
BRANCH   6   7
HETATM    7  N1  UNL     1       7.690   6.035  -4.608  1.00  0.00    -0.303 NA
HETATM    8  H5  UNL     1       6.718   6.160  -4.343  1.00  0.00     0.124 HD
HETATM    9  H6  UNL     1       7.904   5.074  -4.851  1.00  0.00     0.124 HD
ENDBRANCH   6   7
BRANCH   3  10
HETATM   10  O1  UNL     1      11.571   8.272  -1.324  1.00  0.00    -0.361 OA
HETATM   11  H7  UNL     1      12.239   7.601  -1.111  1.00  0.00     0.217 HD
ENDBRANCH   3  10
TORSDOF 2
ENDMDL
MODEL 2
REMARK VINA RESULT:      -4.5      2.779      3.264
REMARK  2 active torsions:
REMARK  status: ('A' for Active; 'I' for Inactive)
REMARK    1  A    between atoms: C3_3  and  O1_8 
REMARK    2  A    between atoms: C6_6  and  N1_7 
ROOT
HETATM    1  C1  UNL     1       9.821   8.567  -3.121  1.00  0.00     0.026 A 
HETATM    2  C2  UNL     1       8.878   7.942  -3.941  1.00  0.00     0.038 A 
HETATM    3  C3  UNL     1       8.670   6.575  -3.831  1.00  0.00     0.065 A 
HETATM    4  C4  UNL     1       9.380   5.823  -2.902  1.00  0.00     0.038 A 
HETATM    5  C5  UNL     1      10.323   6.455  -2.086  1.00  0.00     0.026 A 
HETATM    6  C6  UNL     1      10.589   7.822  -2.222  1.00  0.00     0.005 A 
ENDROOT
BRANCH   6   7
HETATM    7  N1  UNL     1      11.445   8.466  -1.322  1.00  0.00    -0.303 NA
HETATM    8  H5  UNL     1      11.801   9.354  -1.663  1.00  0.00     0.124 HD
HETATM    9  H6  UNL     1      12.180   7.870  -0.957  1.00  0.00     0.124 HD
ENDBRANCH   6   7
BRANCH   3  10
HETATM   10  O1  UNL     1       7.740   6.003  -4.646  1.00  0.00    -0.361 OA
HETATM   11  H7  UNL     1       8.200   5.483  -5.324  1.00  0.00     0.217 HD
ENDBRANCH   3  10
TORSDOF 2
ENDMDL
MODEL 3
REMARK VINA RESULT:      -4.5      0.077      1.705
REMARK  2 active torsions:
REMARK  status: ('A' for Active; 'I' for Inactive)
REMARK    1  A    between atoms: C3_3  and  O1_8 
REMARK    2  A    between atoms: C6_6  and  N1_7 
ROOT
HETATM    1  C1  UNL     1       9.367   5.820  -2.876  1.00  0.00     0.026 A 
HETATM    2  C2  UNL     1      10.331   6.392  -2.042  1.00  0.00     0.038 A 
HETATM    3  C3  UNL     1      10.602   7.750  -2.134  1.00  0.00     0.065 A 
HETATM    4  C4  UNL     1       9.912   8.550  -3.038  1.00  0.00     0.038 A 
HETATM    5  C5  UNL     1       8.950   7.970  -3.870  1.00  0.00     0.026 A 
HETATM    6  C6  UNL     1       8.704   6.594  -3.833  1.00  0.00     0.005 A 
ENDROOT
BRANCH   6   7
HETATM    7  N1  UNL     1       7.658   6.044  -4.583  1.00  0.00    -0.303 NA
HETATM    8  H5  UNL     1       6.775   6.004  -4.083  1.00  0.00     0.124 HD
HETATM    9  H6  UNL     1       7.891   5.162  -5.027  1.00  0.00     0.124 HD
ENDBRANCH   6   7
BRANCH   3  10
HETATM   10  O1  UNL     1      11.547   8.270  -1.302  1.00  0.00    -0.361 OA
HETATM   11  H7  UNL     1      11.661   9.211  -1.511  1.00  0.00     0.217 HD
ENDBRANCH   3  10
TORSDOF 2
ENDMDL
MODEL 4
REMARK VINA RESULT:      -4.4      1.719      2.264
REMARK  2 active torsions:
REMARK  status: ('A' for Active; 'I' for Inactive)
REMARK    1  A    between atoms: C3_3  and  O1_8 
REMARK    2  A    between atoms: C6_6  and  N1_7 
ROOT
HETATM    1  C1  UNL     1       7.350   6.580  -3.407  1.00  0.00     0.026 A 
HETATM    2  C2  UNL     1       7.746   6.126  -2.147  1.00  0.00     0.038 A 
HETATM    3  C3  UNL     1       9.026   6.401  -1.688  1.00  0.00     0.065 A 
HETATM    4  C4  UNL     1       9.913   7.139  -2.464  1.00  0.00     0.038 A 
HETATM    5  C5  UNL     1       9.510   7.589  -3.725  1.00  0.00     0.026 A 
HETATM    6  C6  UNL     1       8.245   7.272  -4.229  1.00  0.00     0.005 A 
ENDROOT
BRANCH   6   7
HETATM    7  N1  UNL     1       7.808   7.826  -5.437  1.00  0.00    -0.303 NA
HETATM    8  H5  UNL     1       6.827   7.653  -5.635  1.00  0.00     0.124 HD
HETATM    9  H6  UNL     1       8.406   7.609  -6.228  1.00  0.00     0.124 HD
ENDBRANCH   6   7
BRANCH   3  10
HETATM   10  O1  UNL     1       9.374   5.942  -0.453  1.00  0.00    -0.361 OA
HETATM   11  H7  UNL     1      10.291   5.626  -0.486  1.00  0.00     0.217 HD
ENDBRANCH   3  10
TORSDOF 2
ENDMDL
MODEL 5
REMARK VINA RESULT:      -4.4      2.213      3.028
REMARK  2 active torsions:
REMARK  status: ('A' for Active; 'I' for Inactive)
REMARK    1  A    between atoms: C3_3  and  O1_8 
REMARK    2  A    between atoms: C6_6  and  N1_7 
ROOT
HETATM    1  C1  UNL     1      10.156   8.013  -3.861  1.00  0.00     0.026 A 
HETATM    2  C2  UNL     1      10.588   8.041  -2.533  1.00  0.00     0.038 A 
HETATM    3  C3  UNL     1      11.622   8.890  -2.164  1.00  0.00     0.065 A 
HETATM    4  C4  UNL     1      12.219   9.726  -3.101  1.00  0.00     0.038 A 
HETATM    5  C5  UNL     1      11.782   9.692  -4.428  1.00  0.00     0.026 A 
HETATM    6  C6  UNL     1      10.783   8.800  -4.831  1.00  0.00     0.005 A 
ENDROOT
BRANCH   6   7
HETATM    7  N1  UNL     1      10.271   8.857  -6.133  1.00  0.00    -0.303 NA
HETATM    8  H5  UNL     1       9.656   8.083  -6.363  1.00  0.00     0.124 HD
HETATM    9  H6  UNL     1      10.976   9.016  -6.845  1.00  0.00     0.124 HD
ENDBRANCH   6   7
BRANCH   3  10
HETATM   10  O1  UNL     1      12.013   8.890  -0.859  1.00  0.00    -0.361 OA
HETATM   11  H7  UNL     1      11.221   8.886  -0.298  1.00  0.00     0.217 HD
ENDBRANCH   3  10
TORSDOF 2
ENDMDL
MODEL 6
REMARK VINA RESULT:      -4.4      3.314      4.147
REMARK  2 active torsions:
REMARK  status: ('A' for Active; 'I' for Inactive)
REMARK    1  A    between atoms: C3_3  and  O1_8 
REMARK    2  A    between atoms: C6_6  and  N1_7 
ROOT
HETATM    1  C1  UNL     1       7.867   6.504  -3.478  1.00  0.00     0.026 A 
HETATM    2  C2  UNL     1       7.234   5.953  -2.362  1.00  0.00     0.038 A 
HETATM    3  C3  UNL     1       5.941   6.342  -2.043  1.00  0.00     0.065 A 
HETATM    4  C4  UNL     1       5.264   7.264  -2.833  1.00  0.00     0.038 A 
HETATM    5  C5  UNL     1       5.904   7.812  -3.948  1.00  0.00     0.026 A 
HETATM    6  C6  UNL     1       7.227   7.477  -4.253  1.00  0.00     0.005 A 
ENDROOT
BRANCH   6   7
HETATM    7  N1  UNL     1       7.817   7.938  -5.435  1.00  0.00    -0.303 NA
HETATM    8  H5  UNL     1       7.376   8.771  -5.813  1.00  0.00     0.124 HD
HETATM    9  H6  UNL     1       7.948   7.217  -6.137  1.00  0.00     0.124 HD
ENDBRANCH   6   7
BRANCH   3  10
HETATM   10  O1  UNL     1       5.357   5.780  -0.947  1.00  0.00    -0.361 OA
HETATM   11  H7  UNL     1       5.929   5.933  -0.178  1.00  0.00     0.217 HD
ENDBRANCH   3  10
TORSDOF 2
ENDMDL
MODEL 7
REMARK VINA RESULT:      -4.4      3.285      3.884
REMARK  2 active torsions:
REMARK  status: ('A' for Active; 'I' for Inactive)
REMARK    1  A    between atoms: C3_3  and  O1_8 
REMARK    2  A    between atoms: C6_6  and  N1_7 
ROOT
HETATM    1  C1  UNL     1       5.311   7.015  -2.872  1.00  0.00     0.026 A 
HETATM    2  C2  UNL     1       5.893   7.602  -3.998  1.00  0.00     0.038 A 
HETATM    3  C3  UNL     1       7.222   7.341  -4.301  1.00  0.00     0.065 A 
HETATM    4  C4  UNL     1       7.975   6.487  -3.503  1.00  0.00     0.038 A 
HETATM    5  C5  UNL     1       7.387   5.904  -2.377  1.00  0.00     0.026 A 
HETATM    6  C6  UNL     1       6.067   6.201  -2.022  1.00  0.00     0.005 A 
ENDROOT
BRANCH   6   7
HETATM    7  N1  UNL     1       5.451   5.522  -0.965  1.00  0.00    -0.303 NA
HETATM    8  H5  UNL     1       4.695   4.910  -1.258  1.00  0.00     0.124 HD
HETATM    9  H6  UNL     1       5.184   6.122  -0.192  1.00  0.00     0.124 HD
ENDBRANCH   6   7
BRANCH   3  10
HETATM   10  O1  UNL     1       7.752   7.931  -5.409  1.00  0.00    -0.361 OA
HETATM   11  H7  UNL     1       8.643   8.251  -5.193  1.00  0.00     0.217 HD
ENDBRANCH   3  10
TORSDOF 2
ENDMDL
MODEL 8
REMARK VINA RESULT:      -4.4      2.757      3.402
REMARK  2 active torsions:
REMARK  status: ('A' for Active; 'I' for Inactive)
REMARK    1  A    between atoms: C3_3  and  O1_8 
REMARK    2  A    between atoms: C6_6  and  N1_7 
ROOT
HETATM    1  C1  UNL     1       7.701   6.146  -2.269  1.00  0.00     0.026 A 
HETATM    2  C2  UNL     1       7.302   6.606  -3.525  1.00  0.00     0.038 A 
HETATM    3  C3  UNL     1       8.181   7.356  -4.294  1.00  0.00     0.065 A 
HETATM    4  C4  UNL     1       9.461   7.641  -3.832  1.00  0.00     0.038 A 
HETATM    5  C5  UNL     1       9.853   7.178  -2.572  1.00  0.00     0.026 A 
HETATM    6  C6  UNL     1       8.962   6.471  -1.758  1.00  0.00     0.005 A 
ENDROOT
BRANCH   6   7
HETATM    7  N1  UNL     1       9.401   5.911  -0.553  1.00  0.00    -0.303 NA
HETATM    8  H5  UNL     1       8.726   5.987   0.202  1.00  0.00     0.124 HD
HETATM    9  H6  UNL     1      10.328   6.213  -0.274  1.00  0.00     0.124 HD
ENDBRANCH   6   7
BRANCH   3  10
HETATM   10  O1  UNL     1       7.755   7.784  -5.516  1.00  0.00    -0.361 OA
HETATM   11  H7  UNL     1       7.598   7.009  -6.078  1.00  0.00     0.217 HD
ENDBRANCH   3  10
TORSDOF 2
ENDMDL
MODEL 9
REMARK VINA RESULT:      -4.4      1.718      2.076
REMARK  2 active torsions:
REMARK  status: ('A' for Active; 'I' for Inactive)
REMARK    1  A    between atoms: C3_3  and  O1_8 
REMARK    2  A    between atoms: C6_6  and  N1_7 
ROOT
HETATM    1  C1  UNL     1       9.471   7.676  -3.699  1.00  0.00     0.026 A 
HETATM    2  C2  UNL     1       9.863   7.195  -2.448  1.00  0.00     0.038 A 
HETATM    3  C3  UNL     1       8.978   6.437  -1.695  1.00  0.00     0.065 A 
HETATM    4  C4  UNL     1       7.710   6.137  -2.182  1.00  0.00     0.038 A 
HETATM    5  C5  UNL     1       7.324   6.623  -3.435  1.00  0.00     0.026 A 
HETATM    6  C6  UNL     1       8.181   7.438  -4.182  1.00  0.00     0.005 A 
ENDROOT
BRANCH   6   7
HETATM    7  N1  UNL     1       7.833   7.820  -5.483  1.00  0.00    -0.303 NA
HETATM    8  H5  UNL     1       6.871   7.604  -5.728  1.00  0.00     0.124 HD
HETATM    9  H6  UNL     1       8.490   7.511  -6.191  1.00  0.00     0.124 HD
ENDBRANCH   6   7
BRANCH   3  10
HETATM   10  O1  UNL     1       9.398   5.984  -0.481  1.00  0.00    -0.361 OA
HETATM   11  H7  UNL     1       9.225   6.670   0.183  1.00  0.00     0.217 HD
ENDBRANCH   3  10
TORSDOF 2
ENDMDL
MODEL 10
REMARK VINA RESULT:      -4.4      3.335      4.187
REMARK  2 active torsions:
REMARK  status: ('A' for Active; 'I' for Inactive)
REMARK    1  A    between atoms: C3_3  and  O1_8 
REMARK    2  A    between atoms: C6_6  and  N1_7 
ROOT
HETATM    1  C1  UNL     1      10.465   8.079  -2.772  1.00  0.00     0.026 A 
HETATM    2  C2  UNL     1      10.036   8.073  -4.101  1.00  0.00     0.038 A 
HETATM    3  C3  UNL     1      10.670   8.883  -5.033  1.00  0.00     0.065 A 
HETATM    4  C4  UNL     1      11.741   9.687  -4.658  1.00  0.00     0.038 A 
HETATM    5  C5  UNL     1      12.165   9.689  -3.326  1.00  0.00     0.026 A 
HETATM    6  C6  UNL     1      11.500   8.924  -2.361  1.00  0.00     0.005 A 
ENDROOT
BRANCH   6   7
HETATM    7  N1  UNL     1      12.004   8.841  -1.058  1.00  0.00    -0.303 NA
HETATM    8  H5  UNL     1      11.864   9.685  -0.512  1.00  0.00     0.124 HD
HETATM    9  H6  UNL     1      12.959   8.503  -1.009  1.00  0.00     0.124 HD
ENDBRANCH   6   7
BRANCH   3  10
HETATM   10  O1  UNL     1      10.224   8.847  -6.319  1.00  0.00    -0.361 OA
HETATM   11  H7  UNL     1      10.817   9.385  -6.868  1.00  0.00     0.217 HD
ENDBRANCH   3  10
TORSDOF 2
ENDMDL
MODEL 11
REMARK VINA RESULT:      -4.2      2.945      3.726
REMARK  2 active torsions:
REMARK  status: ('A' for Active; 'I' for Inactive)
REMARK    1  A    between atoms: C3_3  and  O1_8 
REMARK    2  A    between atoms: C6_6  and  N1_7 
ROOT
HETATM    1  C1  UNL     1       8.458   4.623  -0.912  1.00  0.00     0.026 A 
HETATM    2  C2  UNL     1       7.753   5.543  -1.692  1.00  0.00     0.038 A 
HETATM    3  C3  UNL     1       8.445   6.493  -2.429  1.00  0.00     0.065 A 
HETATM    4  C4  UNL     1       9.835   6.528  -2.411  1.00  0.00     0.038 A 
HETATM    5  C5  UNL     1      10.534   5.605  -1.628  1.00  0.00     0.026 A 
HETATM    6  C6  UNL     1       9.852   4.678  -0.833  1.00  0.00     0.005 A 
ENDROOT
BRANCH   6   7
HETATM    7  N1  UNL     1      10.559   3.684  -0.146  1.00  0.00    -0.303 NA
HETATM    8  H5  UNL     1      11.549   3.886  -0.041  1.00  0.00     0.124 HD
HETATM    9  H6  UNL     1      10.391   2.746  -0.495  1.00  0.00     0.124 HD
ENDBRANCH   6   7
BRANCH   3  10
HETATM   10  O1  UNL     1       7.721   7.371  -3.179  1.00  0.00    -0.361 OA
HETATM   11  H7  UNL     1       6.879   7.543  -2.728  1.00  0.00     0.217 HD
ENDBRANCH   3  10
TORSDOF 2
ENDMDL
MODEL 12
REMARK VINA RESULT:      -4.2      2.440      3.214
REMARK  2 active torsions:
REMARK  status: ('A' for Active; 'I' for Inactive)
REMARK    1  A    between atoms: C3_3  and  O1_8 
REMARK    2  A    between atoms: C6_6  and  N1_7 
ROOT
HETATM    1  C1  UNL     1       7.670   5.204  -1.353  1.00  0.00     0.026 A 
HETATM    2  C2  UNL     1       8.567   4.376  -0.674  1.00  0.00     0.038 A 
HETATM    3  C3  UNL     1       9.932   4.551  -0.850  1.00  0.00     0.065 A 
HETATM    4  C4  UNL     1      10.416   5.553  -1.683  1.00  0.00     0.038 A 
HETATM    5  C5  UNL     1       9.513   6.377  -2.361  1.00  0.00     0.026 A 
HETATM    6  C6  UNL     1       8.133   6.179  -2.242  1.00  0.00     0.005 A 
ENDROOT
BRANCH   6   7
HETATM    7  N1  UNL     1       7.239   7.081  -2.828  1.00  0.00    -0.303 NA
HETATM    8  H5  UNL     1       7.693   7.846  -3.319  1.00  0.00     0.124 HD
HETATM    9  H6  UNL     1       6.510   7.404  -2.200  1.00  0.00     0.124 HD
ENDBRANCH   6   7
BRANCH   3  10
HETATM   10  O1  UNL     1      10.774   3.725  -0.167  1.00  0.00    -0.361 OA
HETATM   11  H7  UNL     1      11.185   4.229   0.553  1.00  0.00     0.217 HD
ENDBRANCH   3  10
TORSDOF 2
ENDMDL
MODEL 13
REMARK VINA RESULT:      -4.1      2.888      3.536
REMARK  2 active torsions:
REMARK  status: ('A' for Active; 'I' for Inactive)
REMARK    1  A    between atoms: C3_3  and  O1_8 
REMARK    2  A    between atoms: C6_6  and  N1_7 
ROOT
HETATM    1  C1  UNL     1       5.529   6.978  -3.076  1.00  0.00     0.026 A 
HETATM    2  C2  UNL     1       5.945   6.160  -2.025  1.00  0.00     0.038 A 
HETATM    3  C3  UNL     1       7.289   5.837  -1.895  1.00  0.00     0.065 A 
HETATM    4  C4  UNL     1       8.226   6.334  -2.793  1.00  0.00     0.038 A 
HETATM    5  C5  UNL     1       7.801   7.152  -3.844  1.00  0.00     0.026 A 
HETATM    6  C6  UNL     1       6.445   7.441  -4.026  1.00  0.00     0.005 A 
ENDROOT
BRANCH   6   7
HETATM    7  N1  UNL     1       6.044   8.354  -5.007  1.00  0.00    -0.303 NA
HETATM    8  H5  UNL     1       5.319   7.999  -5.623  1.00  0.00     0.124 HD
HETATM    9  H6  UNL     1       6.814   8.772  -5.518  1.00  0.00     0.124 HD
ENDBRANCH   6   7
BRANCH   3  10
HETATM   10  O1  UNL     1       7.656   5.038  -0.854  1.00  0.00    -0.361 OA
HETATM   11  H7  UNL     1       7.007   4.320  -0.770  1.00  0.00     0.217 HD
ENDBRANCH   3  10
TORSDOF 2
ENDMDL
MODEL 14
REMARK VINA RESULT:      -4.0      3.215      4.078
REMARK  2 active torsions:
REMARK  status: ('A' for Active; 'I' for Inactive)
REMARK    1  A    between atoms: C3_3  and  O1_8 
REMARK    2  A    between atoms: C6_6  and  N1_7 
ROOT
HETATM    1  C1  UNL     1       7.959   5.463  -1.591  1.00  0.00     0.026 A 
HETATM    2  C2  UNL     1       6.668   5.684  -2.078  1.00  0.00     0.038 A 
HETATM    3  C3  UNL     1       6.494   6.198  -3.355  1.00  0.00     0.065 A 
HETATM    4  C4  UNL     1       7.591   6.481  -4.160  1.00  0.00     0.038 A 
HETATM    5  C5  UNL     1       8.880   6.259  -3.665  1.00  0.00     0.026 A 
HETATM    6  C6  UNL     1       9.077   5.796  -2.360  1.00  0.00     0.005 A 
ENDROOT
BRANCH   6   7
HETATM    7  N1  UNL     1      10.363   5.464  -1.917  1.00  0.00    -0.303 NA
HETATM    8  H5  UNL     1      11.052   6.190  -2.086  1.00  0.00     0.124 HD
HETATM    9  H6  UNL     1      10.680   4.551  -2.225  1.00  0.00     0.124 HD
ENDBRANCH   6   7
BRANCH   3  10
HETATM   10  O1  UNL     1       5.219   6.397  -3.794  1.00  0.00    -0.361 OA
HETATM   11  H7  UNL     1       4.670   5.654  -3.497  1.00  0.00     0.217 HD
ENDBRANCH   3  10
TORSDOF 2
ENDMDL
MODEL 15
REMARK VINA RESULT:      -4.0      2.038      2.420
REMARK  2 active torsions:
REMARK  status: ('A' for Active; 'I' for Inactive)
REMARK    1  A    between atoms: C3_3  and  O1_8 
REMARK    2  A    between atoms: C6_6  and  N1_7 
ROOT
HETATM    1  C1  UNL     1       7.875   6.445  -4.078  1.00  0.00     0.026 A 
HETATM    2  C2  UNL     1       9.156   6.173  -3.593  1.00  0.00     0.038 A 
HETATM    3  C3  UNL     1       9.313   5.657  -2.315  1.00  0.00     0.065 A 
HETATM    4  C4  UNL     1       8.205   5.394  -1.517  1.00  0.00     0.038 A 
HETATM    5  C5  UNL     1       6.926   5.670  -2.008  1.00  0.00     0.026 A 
HETATM    6  C6  UNL     1       6.751   6.245  -3.271  1.00  0.00     0.005 A 
ENDROOT
BRANCH   6   7
HETATM    7  N1  UNL     1       5.465   6.407  -3.799  1.00  0.00    -0.303 NA
HETATM    8  H5  UNL     1       4.740   6.482  -3.093  1.00  0.00     0.124 HD
HETATM    9  H6  UNL     1       5.231   5.735  -4.522  1.00  0.00     0.124 HD
ENDBRANCH   6   7
BRANCH   3  10
HETATM   10  O1  UNL     1      10.579   5.403  -1.880  1.00  0.00    -0.361 OA
HETATM   11  H7  UNL     1      11.205   5.695  -2.561  1.00  0.00     0.217 HD
ENDBRANCH   3  10
TORSDOF 2
ENDMDL
MODEL 16
REMARK VINA RESULT:      -4.0      3.535      4.313
REMARK  2 active torsions:
REMARK  status: ('A' for Active; 'I' for Inactive)
REMARK    1  A    between atoms: C3_3  and  O1_8 
REMARK    2  A    between atoms: C6_6  and  N1_7 
ROOT
HETATM    1  C1  UNL     1       6.122   6.412  -2.034  1.00  0.00     0.026 A 
HETATM    2  C2  UNL     1       5.348   7.283  -2.805  1.00  0.00     0.038 A 
HETATM    3  C3  UNL     1       5.871   7.813  -3.976  1.00  0.00     0.065 A 
HETATM    4  C4  UNL     1       7.152   7.473  -4.397  1.00  0.00     0.038 A 
HETATM    5  C5  UNL     1       7.921   6.603  -3.619  1.00  0.00     0.026 A 
HETATM    6  C6  UNL     1       7.434   6.105  -2.407  1.00  0.00     0.005 A 
ENDROOT
BRANCH   6   7
HETATM    7  N1  UNL     1       8.162   5.143  -1.697  1.00  0.00    -0.303 NA
HETATM    8  H5  UNL     1       8.161   4.226  -2.133  1.00  0.00     0.124 HD
HETATM    9  H6  UNL     1       7.932   5.101  -0.709  1.00  0.00     0.124 HD
ENDBRANCH   6   7
BRANCH   3  10
HETATM   10  O1  UNL     1       5.084   8.656  -4.703  1.00  0.00    -0.361 OA
HETATM   11  H7  UNL     1       4.443   9.073  -4.105  1.00  0.00     0.217 HD
ENDBRANCH   3  10
TORSDOF 2
ENDMDL
MODEL 17
REMARK VINA RESULT:      -4.0      8.773      9.636
REMARK  2 active torsions:
REMARK  status: ('A' for Active; 'I' for Inactive)
REMARK    1  A    between atoms: C3_3  and  O1_8 
REMARK    2  A    between atoms: C6_6  and  N1_7 
ROOT
HETATM    1  C1  UNL     1       1.740   8.738  -5.453  1.00  0.00     0.026 A 
HETATM    2  C2  UNL     1       1.000   8.363  -6.576  1.00  0.00     0.038 A 
HETATM    3  C3  UNL     1       1.086   9.115  -7.739  1.00  0.00     0.065 A 
HETATM    4  C4  UNL     1       1.916  10.229  -7.802  1.00  0.00     0.038 A 
HETATM    5  C5  UNL     1       2.653  10.599  -6.673  1.00  0.00     0.026 A 
HETATM    6  C6  UNL     1       2.534   9.888  -5.474  1.00  0.00     0.005 A 
ENDROOT
BRANCH   6   7
HETATM    7  N1  UNL     1       3.363  10.193  -4.389  1.00  0.00    -0.303 NA
HETATM    8  H5  UNL     1       3.101   9.720  -3.530  1.00  0.00     0.124 HD
HETATM    9  H6  UNL     1       3.511  11.187  -4.252  1.00  0.00     0.124 HD
ENDBRANCH   6   7
BRANCH   3  10
HETATM   10  O1  UNL     1       0.351   8.715  -8.815  1.00  0.00    -0.361 OA
HETATM   11  H7  UNL     1       0.925   8.707  -9.597  1.00  0.00     0.217 HD
ENDBRANCH   3  10
TORSDOF 2
ENDMDL
MODEL 18
REMARK VINA RESULT:      -3.8      2.373      3.167
REMARK  2 active torsions:
REMARK  status: ('A' for Active; 'I' for Inactive)
REMARK    1  A    between atoms: C3_3  and  O1_8 
REMARK    2  A    between atoms: C6_6  and  N1_7 
ROOT
HETATM    1  C1  UNL     1       8.157   5.033  -1.325  1.00  0.00     0.026 A 
HETATM    2  C2  UNL     1       9.296   5.478  -1.998  1.00  0.00     0.038 A 
HETATM    3  C3  UNL     1       9.180   6.459  -2.973  1.00  0.00     0.065 A 
HETATM    4  C4  UNL     1       7.942   7.014  -3.275  1.00  0.00     0.038 A 
HETATM    5  C5  UNL     1       6.805   6.562  -2.598  1.00  0.00     0.026 A 
HETATM    6  C6  UNL     1       6.893   5.533  -1.655  1.00  0.00     0.005 A 
ENDROOT
BRANCH   6   7
HETATM    7  N1  UNL     1       5.772   5.171  -0.899  1.00  0.00    -0.303 NA
HETATM    8  H5  UNL     1       5.630   5.750  -0.077  1.00  0.00     0.124 HD
HETATM    9  H6  UNL     1       5.722   4.181  -0.687  1.00  0.00     0.124 HD
ENDBRANCH   6   7
BRANCH   3  10
HETATM   10  O1  UNL     1      10.316   6.869  -3.604  1.00  0.00    -0.361 OA
HETATM   11  H7  UNL     1      10.700   6.111  -4.073  1.00  0.00     0.217 HD
ENDBRANCH   3  10
TORSDOF 2
ENDMDL
MODEL 19
REMARK VINA RESULT:      -3.8      8.769      9.466
REMARK  2 active torsions:
REMARK  status: ('A' for Active; 'I' for Inactive)
REMARK    1  A    between atoms: C3_3  and  O1_8 
REMARK    2  A    between atoms: C6_6  and  N1_7 
ROOT
HETATM    1  C1  UNL     1       0.555   7.689  -5.871  1.00  0.00     0.026 A 
HETATM    2  C2  UNL     1       1.710   8.474  -5.904  1.00  0.00     0.038 A 
HETATM    3  C3  UNL     1       1.840   9.544  -5.030  1.00  0.00     0.065 A 
HETATM    4  C4  UNL     1       0.838   9.832  -4.110  1.00  0.00     0.038 A 
HETATM    5  C5  UNL     1      -0.316   9.043  -4.083  1.00  0.00     0.026 A 
HETATM    6  C6  UNL     1      -0.491   7.997  -4.995  1.00  0.00     0.005 A 
ENDROOT
BRANCH   6   7
HETATM    7  N1  UNL     1      -1.592   7.141  -4.883  1.00  0.00    -0.303 NA
HETATM    8  H5  UNL     1      -2.032   7.160  -3.969  1.00  0.00     0.124 HD
HETATM    9  H6  UNL     1      -1.412   6.196  -5.206  1.00  0.00     0.124 HD
ENDBRANCH   6   7
BRANCH   3  10
HETATM   10  O1  UNL     1       2.983  10.283  -5.091  1.00  0.00    -0.361 OA
HETATM   11  H7  UNL     1       3.679   9.819  -4.600  1.00  0.00     0.217 HD
ENDBRANCH   3  10
TORSDOF 2
ENDMDL
MODEL 20
REMARK VINA RESULT:      -3.8      1.629      1.920
REMARK  2 active torsions:
REMARK  status: ('A' for Active; 'I' for Inactive)
REMARK    1  A    between atoms: C3_3  and  O1_8 
REMARK    2  A    between atoms: C6_6  and  N1_7 
ROOT
HETATM    1  C1  UNL     1       8.069   6.721  -3.214  1.00  0.00     0.026 A 
HETATM    2  C2  UNL     1       9.008   7.584  -3.785  1.00  0.00     0.038 A 
HETATM    3  C3  UNL     1      10.221   7.800  -3.147  1.00  0.00     0.065 A 
HETATM    4  C4  UNL     1      10.518   7.154  -1.952  1.00  0.00     0.038 A 
HETATM    5  C5  UNL     1       9.573   6.293  -1.386  1.00  0.00     0.026 A 
HETATM    6  C6  UNL     1       8.322   6.108  -1.983  1.00  0.00     0.005 A 
ENDROOT
BRANCH   6   7
HETATM    7  N1  UNL     1       7.432   5.155  -1.474  1.00  0.00    -0.303 NA
HETATM    8  H5  UNL     1       7.698   4.794  -0.563  1.00  0.00     0.124 HD
HETATM    9  H6  UNL     1       7.201   4.417  -2.130  1.00  0.00     0.124 HD
ENDBRANCH   6   7
BRANCH   3  10
HETATM   10  O1  UNL     1      11.111   8.646  -3.738  1.00  0.00    -0.361 OA
HETATM   11  H7  UNL     1      10.699   9.025  -4.531  1.00  0.00     0.217 HD
ENDBRANCH   3  10
TORSDOF 2
ENDMDL
