MODEL 1
REMARK VINA RESULT:      -4.3      0.000      0.000
REMARK  2 active torsions:
REMARK  status: ('A' for Active; 'I' for Inactive)
REMARK    1  A    between atoms: C3_3  and  O1_8 
REMARK    2  A    between atoms: C6_6  and  N1_7 
ROOT
HETATM    1  C1  UNL     1       1.462   9.542  -5.456  1.00  0.00     0.026 A 
HETATM    2  C2  UNL     1       0.887   8.820  -6.504  1.00  0.00     0.038 A 
HETATM    3  C3  UNL     1       1.126   9.203  -7.816  1.00  0.00     0.065 A 
HETATM    4  C4  UNL     1       1.947  10.290  -8.098  1.00  0.00     0.038 A 
HETATM    5  C5  UNL     1       2.518  11.008  -7.043  1.00  0.00     0.026 A 
HETATM    6  C6  UNL     1       2.242  10.673  -5.714  1.00  0.00     0.005 A 
ENDROOT
BRANCH   6   7
HETATM    7  N1  UNL     1       2.911  11.322  -4.670  1.00  0.00    -0.303 NA
HETATM    8  H5  UNL     1       2.295  11.830  -4.043  1.00  0.00     0.124 HD
HETATM    9  H6  UNL     1       3.700  11.882  -4.974  1.00  0.00     0.124 HD
ENDBRANCH   6   7
BRANCH   3  10
HETATM   10  O1  UNL     1       0.549   8.472  -8.810  1.00  0.00    -0.361 OA
HETATM   11  H7  UNL     1       0.166   7.669  -8.422  1.00  0.00     0.217 HD
ENDBRANCH   3  10
TORSDOF 2
ENDMDL
MODEL 2
REMARK VINA RESULT:      -4.3      2.780      3.265
REMARK  2 active torsions:
REMARK  status: ('A' for Active; 'I' for Inactive)
REMARK    1  A    between atoms: C3_3  and  O1_8 
REMARK    2  A    between atoms: C6_6  and  N1_7 
ROOT
HETATM    1  C1  UNL     1       0.900   8.917  -6.399  1.00  0.00     0.026 A 
HETATM    2  C2  UNL     1       1.500   9.616  -5.350  1.00  0.00     0.038 A 
HETATM    3  C3  UNL     1       2.341  10.684  -5.627  1.00  0.00     0.065 A 
HETATM    4  C4  UNL     1       2.580  11.075  -6.940  1.00  0.00     0.038 A 
HETATM    5  C5  UNL     1       1.977  10.369  -7.985  1.00  0.00     0.026 A 
HETATM    6  C6  UNL     1       1.174   9.254  -7.729  1.00  0.00     0.005 A 
ENDROOT
BRANCH   6   7
HETATM    7  N1  UNL     1       0.481   8.629  -8.772  1.00  0.00    -0.303 NA
HETATM    8  H5  UNL     1      -0.274   8.028  -8.457  1.00  0.00     0.124 HD
HETATM    9  H6  UNL     1       1.083   8.172  -9.448  1.00  0.00     0.124 HD
ENDBRANCH   6   7
BRANCH   3  10
HETATM   10  O1  UNL     1       2.905  11.343  -4.575  1.00  0.00    -0.361 OA
HETATM   11  H7  UNL     1       3.547  11.984  -4.920  1.00  0.00     0.217 HD
ENDBRANCH   3  10
TORSDOF 2
ENDMDL
MODEL 3
REMARK VINA RESULT:      -4.1      2.782      3.684
REMARK  2 active torsions:
REMARK  status: ('A' for Active; 'I' for Inactive)
REMARK    1  A    between atoms: C3_3  and  O1_8 
REMARK    2  A    between atoms: C6_6  and  N1_7 
ROOT
HETATM    1  C1  UNL     1       2.000  10.368  -7.939  1.00  0.00     0.026 A 
HETATM    2  C2  UNL     1       2.572  11.106  -6.900  1.00  0.00     0.038 A 
HETATM    3  C3  UNL     1       2.321  10.748  -5.583  1.00  0.00     0.065 A 
HETATM    4  C4  UNL     1       1.517   9.652  -5.288  1.00  0.00     0.038 A 
HETATM    5  C5  UNL     1       0.947   8.919  -6.333  1.00  0.00     0.026 A 
HETATM    6  C6  UNL     1       1.141   9.300  -7.665  1.00  0.00     0.005 A 
ENDROOT
BRANCH   6   7
HETATM    7  N1  UNL     1       0.666   8.492  -8.705  1.00  0.00    -0.303 NA
HETATM    8  H5  UNL     1       0.315   9.017  -9.500  1.00  0.00     0.124 HD
HETATM    9  H6  UNL     1       0.020   7.771  -8.402  1.00  0.00     0.124 HD
ENDBRANCH   6   7
BRANCH   3  10
HETATM   10  O1  UNL     1       2.899  11.491  -4.598  1.00  0.00    -0.361 OA
HETATM   11  H7  UNL     1       2.206  11.993  -4.140  1.00  0.00     0.217 HD
ENDBRANCH   3  10
TORSDOF 2
ENDMDL
MODEL 4
REMARK VINA RESULT:      -4.0      2.140      2.709
REMARK  2 active torsions:
REMARK  status: ('A' for Active; 'I' for Inactive)
REMARK    1  A    between atoms: C3_3  and  O1_8 
REMARK    2  A    between atoms: C6_6  and  N1_7 
ROOT
HETATM    1  C1  UNL     1       1.656   9.971  -5.706  1.00  0.00     0.026 A 
HETATM    2  C2  UNL     1       2.433  10.800  -6.518  1.00  0.00     0.038 A 
HETATM    3  C3  UNL     1       2.432  10.613  -7.893  1.00  0.00     0.065 A 
HETATM    4  C4  UNL     1       1.651   9.618  -8.471  1.00  0.00     0.038 A 
HETATM    5  C5  UNL     1       0.877   8.791  -7.652  1.00  0.00     0.026 A 
HETATM    6  C6  UNL     1       0.911   8.926  -6.260  1.00  0.00     0.005 A 
ENDROOT
BRANCH   6   7
HETATM    7  N1  UNL     1       0.044   8.176  -5.458  1.00  0.00    -0.303 NA
HETATM    8  H5  UNL     1       0.019   8.479  -4.489  1.00  0.00     0.124 HD
HETATM    9  H6  UNL     1       0.169   7.173  -5.545  1.00  0.00     0.124 HD
ENDBRANCH   6   7
BRANCH   3  10
HETATM   10  O1  UNL     1       3.201  11.443  -8.652  1.00  0.00    -0.361 OA
HETATM   11  H7  UNL     1       3.033  12.359  -8.376  1.00  0.00     0.217 HD
ENDBRANCH   3  10
TORSDOF 2
ENDMDL
MODEL 5
REMARK VINA RESULT:      -4.0      1.923      2.479
REMARK  2 active torsions:
REMARK  status: ('A' for Active; 'I' for Inactive)
REMARK    1  A    between atoms: C3_3  and  O1_8 
REMARK    2  A    between atoms: C6_6  and  N1_7 
ROOT
HETATM    1  C1  UNL     1       2.355  10.674  -6.474  1.00  0.00     0.026 A 
HETATM    2  C2  UNL     1       1.581   9.825  -5.680  1.00  0.00     0.038 A 
HETATM    3  C3  UNL     1       0.812   8.836  -6.278  1.00  0.00     0.065 A 
HETATM    4  C4  UNL     1       0.819   8.672  -7.658  1.00  0.00     0.038 A 
HETATM    5  C5  UNL     1       1.596   9.527  -8.446  1.00  0.00     0.026 A 
HETATM    6  C6  UNL     1       2.331  10.566  -7.867  1.00  0.00     0.005 A 
ENDROOT
BRANCH   6   7
HETATM    7  N1  UNL     1       3.196  11.339  -8.650  1.00  0.00    -0.303 NA
HETATM    8  H5  UNL     1       4.174  11.084  -8.550  1.00  0.00     0.124 HD
HETATM    9  H6  UNL     1       3.047  12.338  -8.563  1.00  0.00     0.124 HD
ENDBRANCH   6   7
BRANCH   3  10
HETATM   10  O1  UNL     1       0.073   8.026  -5.469  1.00  0.00    -0.361 OA
HETATM   11  H7  UNL     1       0.442   8.062  -4.572  1.00  0.00     0.217 HD
ENDBRANCH   3  10
TORSDOF 2
ENDMDL
MODEL 6
REMARK VINA RESULT:      -4.0      1.932      2.554
REMARK  2 active torsions:
REMARK  status: ('A' for Active; 'I' for Inactive)
REMARK    1  A    between atoms: C3_3  and  O1_8 
REMARK    2  A    between atoms: C6_6  and  N1_7 
ROOT
HETATM    1  C1  UNL     1       1.578   9.594  -8.506  1.00  0.00     0.026 A 
HETATM    2  C2  UNL     1       0.876   8.704  -7.690  1.00  0.00     0.038 A 
HETATM    3  C3  UNL     1       0.919   8.855  -6.312  1.00  0.00     0.065 A 
HETATM    4  C4  UNL     1       1.641   9.894  -5.735  1.00  0.00     0.038 A 
HETATM    5  C5  UNL     1       2.341  10.781  -6.559  1.00  0.00     0.026 A 
HETATM    6  C6  UNL     1       2.358  10.610  -7.946  1.00  0.00     0.005 A 
ENDROOT
BRANCH   6   7
HETATM    7  N1  UNL     1       2.962  11.569  -8.767  1.00  0.00    -0.303 NA
HETATM    8  H5  UNL     1       3.062  11.274  -9.734  1.00  0.00     0.124 HD
HETATM    9  H6  UNL     1       3.823  11.950  -8.389  1.00  0.00     0.124 HD
ENDBRANCH   6   7
BRANCH   3  10
HETATM   10  O1  UNL     1       0.219   7.967  -5.550  1.00  0.00    -0.361 OA
HETATM   11  H7  UNL     1       0.849   7.391  -5.089  1.00  0.00     0.217 HD
ENDBRANCH   3  10
TORSDOF 2
ENDMDL
MODEL 7
REMARK VINA RESULT:      -4.0      1.560      2.376
REMARK  2 active torsions:
REMARK  status: ('A' for Active; 'I' for Inactive)
REMARK    1  A    between atoms: C3_3  and  O1_8 
REMARK    2  A    between atoms: C6_6  and  N1_7 
ROOT
HETATM    1  C1  UNL     1       2.024  10.233  -6.848  1.00  0.00     0.026 A 
HETATM    2  C2  UNL     1       1.249   9.073  -6.777  1.00  0.00     0.038 A 
HETATM    3  C3  UNL     1       0.660   8.712  -5.574  1.00  0.00     0.065 A 
HETATM    4  C4  UNL     1       0.821   9.502  -4.441  1.00  0.00     0.038 A 
HETATM    5  C5  UNL     1       1.600  10.661  -4.519  1.00  0.00     0.026 A 
HETATM    6  C6  UNL     1       2.249  11.010  -5.707  1.00  0.00     0.005 A 
ENDROOT
BRANCH   6   7
HETATM    7  N1  UNL     1       2.926  12.231  -5.808  1.00  0.00    -0.303 NA
HETATM    8  H5  UNL     1       2.331  13.041  -5.666  1.00  0.00     0.124 HD
HETATM    9  H6  UNL     1       3.500  12.314  -6.640  1.00  0.00     0.124 HD
ENDBRANCH   6   7
BRANCH   3  10
HETATM   10  O1  UNL     1      -0.091   7.575  -5.546  1.00  0.00    -0.361 OA
HETATM   11  H7  UNL     1      -0.988   7.803  -5.255  1.00  0.00     0.217 HD
ENDBRANCH   3  10
TORSDOF 2
ENDMDL
MODEL 8
REMARK VINA RESULT:      -4.0      2.152      2.784
REMARK  2 active torsions:
REMARK  status: ('A' for Active; 'I' for Inactive)
REMARK    1  A    between atoms: C3_3  and  O1_8 
REMARK    2  A    between atoms: C6_6  and  N1_7 
ROOT
HETATM    1  C1  UNL     1       0.893   8.803  -7.686  1.00  0.00     0.026 A 
HETATM    2  C2  UNL     1       1.684   9.650  -8.467  1.00  0.00     0.038 A 
HETATM    3  C3  UNL     1       2.442  10.639  -7.857  1.00  0.00     0.065 A 
HETATM    4  C4  UNL     1       2.435  10.785  -6.474  1.00  0.00     0.038 A 
HETATM    5  C5  UNL     1       1.640   9.935  -5.699  1.00  0.00     0.026 A 
HETATM    6  C6  UNL     1       0.824   8.971  -6.300  1.00  0.00     0.005 A 
ENDROOT
BRANCH   6   7
HETATM    7  N1  UNL     1       0.125   8.049  -5.512  1.00  0.00    -0.303 NA
HETATM    8  H5  UNL     1      -0.034   8.364  -4.560  1.00  0.00     0.124 HD
HETATM    9  H6  UNL     1       0.502   7.108  -5.550  1.00  0.00     0.124 HD
ENDBRANCH   6   7
BRANCH   3  10
HETATM   10  O1  UNL     1       3.203  11.442  -8.652  1.00  0.00    -0.361 OA
HETATM   11  H7  UNL     1       3.858  10.893  -9.111  1.00  0.00     0.217 HD
ENDBRANCH   3  10
TORSDOF 2
ENDMDL
MODEL 9
REMARK VINA RESULT:      -3.9      3.219      3.970
REMARK  2 active torsions:
REMARK  status: ('A' for Active; 'I' for Inactive)
REMARK    1  A    between atoms: C3_3  and  O1_8 
REMARK    2  A    between atoms: C6_6  and  N1_7 
ROOT
HETATM    1  C1  UNL     1       0.784   7.981  -5.888  1.00  0.00     0.026 A 
HETATM    2  C2  UNL     1       1.927   8.783  -5.838  1.00  0.00     0.038 A 
HETATM    3  C3  UNL     1       2.024   9.782  -4.881  1.00  0.00     0.065 A 
HETATM    4  C4  UNL     1       1.002   9.983  -3.960  1.00  0.00     0.038 A 
HETATM    5  C5  UNL     1      -0.139   9.177  -4.017  1.00  0.00     0.026 A 
HETATM    6  C6  UNL     1      -0.281   8.203  -5.010  1.00  0.00     0.005 A 
ENDROOT
BRANCH   6   7
HETATM    7  N1  UNL     1      -1.370   7.325  -4.986  1.00  0.00    -0.303 NA
HETATM    8  H5  UNL     1      -2.240   7.745  -5.298  1.00  0.00     0.124 HD
HETATM    9  H6  UNL     1      -1.475   6.826  -4.109  1.00  0.00     0.124 HD
ENDBRANCH   6   7
BRANCH   3  10
HETATM   10  O1  UNL     1       3.156  10.542  -4.864  1.00  0.00    -0.361 OA
HETATM   11  H7  UNL     1       3.154  11.118  -5.645  1.00  0.00     0.217 HD
ENDBRANCH   3  10
TORSDOF 2
ENDMDL
MODEL 10
REMARK VINA RESULT:      -3.9      2.654      3.440
REMARK  2 active torsions:
REMARK  status: ('A' for Active; 'I' for Inactive)
REMARK    1  A    between atoms: C3_3  and  O1_8 
REMARK    2  A    between atoms: C6_6  and  N1_7 
ROOT
HETATM    1  C1  UNL     1       2.117   9.724  -7.093  1.00  0.00     0.026 A 
HETATM    2  C2  UNL     1       2.333  11.103  -7.141  1.00  0.00     0.038 A 
HETATM    3  C3  UNL     1       2.402  11.829  -5.961  1.00  0.00     0.065 A 
HETATM    4  C4  UNL     1       2.275  11.195  -4.731  1.00  0.00     0.038 A 
HETATM    5  C5  UNL     1       2.057   9.814  -4.691  1.00  0.00     0.026 A 
HETATM    6  C6  UNL     1       1.926   9.074  -5.870  1.00  0.00     0.005 A 
ENDROOT
BRANCH   6   7
HETATM    7  N1  UNL     1       1.828   7.679  -5.819  1.00  0.00    -0.303 NA
HETATM    8  H5  UNL     1       2.694   7.201  -6.045  1.00  0.00     0.124 HD
HETATM    9  H6  UNL     1       1.035   7.305  -6.330  1.00  0.00     0.124 HD
ENDBRANCH   6   7
BRANCH   3  10
HETATM   10  O1  UNL     1       2.617  13.172  -6.050  1.00  0.00    -0.361 OA
HETATM   11  H7  UNL     1       1.856  13.579  -6.493  1.00  0.00     0.217 HD
ENDBRANCH   3  10
TORSDOF 2
ENDMDL
MODEL 11
REMARK VINA RESULT:      -2.0      1.643      2.377
REMARK  2 active torsions:
REMARK  status: ('A' for Active; 'I' for Inactive)
REMARK    1  A    between atoms: C3_3  and  O1_8 
REMARK    2  A    between atoms: C6_6  and  N1_7 
ROOT
HETATM    1  C1  UNL     1       2.631  10.944  -4.776  1.00  0.00     0.026 A 
HETATM    2  C2  UNL     1       1.595  10.684  -5.676  1.00  0.00     0.038 A 
HETATM    3  C3  UNL     1       1.397   9.392  -6.142  1.00  0.00     0.065 A 
HETATM    4  C4  UNL     1       2.209   8.350  -5.709  1.00  0.00     0.038 A 
HETATM    5  C5  UNL     1       3.245   8.618  -4.808  1.00  0.00     0.026 A 
HETATM    6  C6  UNL     1       3.497   9.923  -4.373  1.00  0.00     0.005 A 
ENDROOT
BRANCH   6   7
HETATM    7  N1  UNL     1       4.457  10.162  -3.383  1.00  0.00    -0.303 NA
HETATM    8  H5  UNL     1       4.371   9.553  -2.575  1.00  0.00     0.124 HD
HETATM    9  H6  UNL     1       4.543  11.139  -3.122  1.00  0.00     0.124 HD
ENDBRANCH   6   7
BRANCH   3  10
HETATM   10  O1  UNL     1       0.374   9.179  -7.018  1.00  0.00    -0.361 OA
HETATM   11  H7  UNL     1      -0.184   9.973  -7.041  1.00  0.00     0.217 HD
ENDBRANCH   3  10
TORSDOF 2
ENDMDL
MODEL 12
REMARK VINA RESULT:       1.1      3.751      4.509
REMARK  2 active torsions:
REMARK  status: ('A' for Active; 'I' for Inactive)
REMARK    1  A    between atoms: C3_3  and  O1_8 
REMARK    2  A    between atoms: C6_6  and  N1_7 
ROOT
HETATM    1  C1  UNL     1       5.333  11.268  -3.245  1.00  0.00     0.026 A 
HETATM    2  C2  UNL     1       4.194  10.589  -3.685  1.00  0.00     0.038 A 
HETATM    3  C3  UNL     1       3.237  11.262  -4.431  1.00  0.00     0.065 A 
HETATM    4  C4  UNL     1       3.410  12.603  -4.759  1.00  0.00     0.038 A 
HETATM    5  C5  UNL     1       4.551  13.276  -4.314  1.00  0.00     0.026 A 
HETATM    6  C6  UNL     1       5.498  12.630  -3.511  1.00  0.00     0.005 A 
ENDROOT
BRANCH   6   7
HETATM    7  N1  UNL     1       6.692  13.276  -3.171  1.00  0.00    -0.303 NA
HETATM    8  H5  UNL     1       7.397  13.239  -3.900  1.00  0.00     0.124 HD
HETATM    9  H6  UNL     1       7.059  13.008  -2.264  1.00  0.00     0.124 HD
ENDBRANCH   6   7
BRANCH   3  10
HETATM   10  O1  UNL     1       2.142  10.565  -4.844  1.00  0.00    -0.361 OA
HETATM   11  H7  UNL     1       2.354  10.124  -5.683  1.00  0.00     0.217 HD
ENDBRANCH   3  10
TORSDOF 2
ENDMDL
