MODEL 1
REMARK VINA RESULT:      -4.0      0.000      0.000
REMARK  2 active torsions:
REMARK  status: ('A' for Active; 'I' for Inactive)
REMARK    1  A    between atoms: C3_3  and  O1_8 
REMARK    2  A    between atoms: C6_6  and  N1_7 
ROOT
HETATM    1  C1  UNL     1       6.819  10.926  -6.717  1.00  0.00     0.026 A 
HETATM    2  C2  UNL     1       5.669  10.602  -5.995  1.00  0.00     0.038 A 
HETATM    3  C3  UNL     1       4.511  11.346  -6.176  1.00  0.00     0.065 A 
HETATM    4  C4  UNL     1       4.482  12.401  -7.081  1.00  0.00     0.038 A 
HETATM    5  C5  UNL     1       5.638  12.720  -7.800  1.00  0.00     0.026 A 
HETATM    6  C6  UNL     1       6.830  12.020  -7.588  1.00  0.00     0.005 A 
ENDROOT
BRANCH   6   7
HETATM    7  N1  UNL     1       7.945  12.268  -8.396  1.00  0.00    -0.303 NA
HETATM    8  H5  UNL     1       8.700  11.601  -8.266  1.00  0.00     0.124 HD
HETATM    9  H6  UNL     1       8.269  13.229  -8.364  1.00  0.00     0.124 HD
ENDBRANCH   6   7
BRANCH   3  10
HETATM   10  O1  UNL     1       3.409  10.997  -5.454  1.00  0.00    -0.361 OA
HETATM   11  H7  UNL     1       3.166  10.085  -5.683  1.00  0.00     0.217 HD
ENDBRANCH   3  10
TORSDOF 2
ENDMDL
MODEL 2
REMARK VINA RESULT:      -4.0      0.176      1.711
REMARK  2 active torsions:
REMARK  status: ('A' for Active; 'I' for Inactive)
REMARK    1  A    between atoms: C3_3  and  O1_8 
REMARK    2  A    between atoms: C6_6  and  N1_7 
ROOT
HETATM    1  C1  UNL     1       5.654  12.719  -7.978  1.00  0.00     0.026 A 
HETATM    2  C2  UNL     1       4.499  12.471  -7.234  1.00  0.00     0.038 A 
HETATM    3  C3  UNL     1       4.504  11.475  -6.268  1.00  0.00     0.065 A 
HETATM    4  C4  UNL     1       5.655  10.733  -6.022  1.00  0.00     0.038 A 
HETATM    5  C5  UNL     1       6.807  10.986  -6.772  1.00  0.00     0.026 A 
HETATM    6  C6  UNL     1       6.803  11.945  -7.790  1.00  0.00     0.005 A 
ENDROOT
BRANCH   6   7
HETATM    7  N1  UNL     1       7.992  12.274  -8.452  1.00  0.00    -0.303 NA
HETATM    8  H5  UNL     1       8.170  11.708  -9.276  1.00  0.00     0.124 HD
HETATM    9  H6  UNL     1       8.799  12.333  -7.841  1.00  0.00     0.124 HD
ENDBRANCH   6   7
BRANCH   3  10
HETATM   10  O1  UNL     1       3.358  11.264  -5.561  1.00  0.00    -0.361 OA
HETATM   11  H7  UNL     1       3.175  10.311  -5.544  1.00  0.00     0.217 HD
ENDBRANCH   3  10
TORSDOF 2
ENDMDL
MODEL 3
REMARK VINA RESULT:      -3.9      2.783      3.268
REMARK  2 active torsions:
REMARK  status: ('A' for Active; 'I' for Inactive)
REMARK    1  A    between atoms: C3_3  and  O1_8 
REMARK    2  A    between atoms: C6_6  and  N1_7 
ROOT
HETATM    1  C1  UNL     1       5.637  10.480  -5.922  1.00  0.00     0.026 A 
HETATM    2  C2  UNL     1       6.798  10.796  -6.630  1.00  0.00     0.038 A 
HETATM    3  C3  UNL     1       6.812  11.901  -7.470  1.00  0.00     0.065 A 
HETATM    4  C4  UNL     1       5.686  12.706  -7.600  1.00  0.00     0.038 A 
HETATM    5  C5  UNL     1       4.526  12.382  -6.889  1.00  0.00     0.026 A 
HETATM    6  C6  UNL     1       4.474  11.240  -6.084  1.00  0.00     0.005 A 
ENDROOT
BRANCH   6   7
HETATM    7  N1  UNL     1       3.352  10.991  -5.285  1.00  0.00    -0.303 NA
HETATM    8  H5  UNL     1       3.509  10.290  -4.568  1.00  0.00     0.124 HD
HETATM    9  H6  UNL     1       2.503  10.820  -5.813  1.00  0.00     0.124 HD
ENDBRANCH   6   7
BRANCH   3  10
HETATM   10  O1  UNL     1       7.965  12.178  -8.141  1.00  0.00    -0.361 OA
HETATM   11  H7  UNL     1       7.775  12.187  -9.093  1.00  0.00     0.217 HD
ENDBRANCH   3  10
TORSDOF 2
ENDMDL
MODEL 4
REMARK VINA RESULT:      -3.8      2.116      2.473
REMARK  2 active torsions:
REMARK  status: ('A' for Active; 'I' for Inactive)
REMARK    1  A    between atoms: C3_3  and  O1_8 
REMARK    2  A    between atoms: C6_6  and  N1_7 
ROOT
HETATM    1  C1  UNL     1       6.457  10.222  -5.503  1.00  0.00     0.026 A 
HETATM    2  C2  UNL     1       5.490  10.330  -6.505  1.00  0.00     0.038 A 
HETATM    3  C3  UNL     1       5.539  11.390  -7.398  1.00  0.00     0.065 A 
HETATM    4  C4  UNL     1       6.552  12.339  -7.315  1.00  0.00     0.038 A 
HETATM    5  C5  UNL     1       7.516  12.226  -6.309  1.00  0.00     0.026 A 
HETATM    6  C6  UNL     1       7.450  11.197  -5.364  1.00  0.00     0.005 A 
ENDROOT
BRANCH   6   7
HETATM    7  N1  UNL     1       8.483  11.024  -4.436  1.00  0.00    -0.303 NA
HETATM    8  H5  UNL     1       8.787  11.888  -3.999  1.00  0.00     0.124 HD
HETATM    9  H6  UNL     1       9.261  10.474  -4.786  1.00  0.00     0.124 HD
ENDBRANCH   6   7
BRANCH   3  10
HETATM   10  O1  UNL     1       4.579  11.458  -8.363  1.00  0.00    -0.361 OA
HETATM   11  H7  UNL     1       3.861  12.029  -8.046  1.00  0.00     0.217 HD
ENDBRANCH   3  10
TORSDOF 2
ENDMDL
MODEL 5
REMARK VINA RESULT:      -3.8      2.185      2.611
REMARK  2 active torsions:
REMARK  status: ('A' for Active; 'I' for Inactive)
REMARK    1  A    between atoms: C3_3  and  O1_8 
REMARK    2  A    between atoms: C6_6  and  N1_7 
ROOT
HETATM    1  C1  UNL     1       7.902  10.814  -4.280  1.00  0.00     0.026 A 
HETATM    2  C2  UNL     1       6.891   9.865  -4.450  1.00  0.00     0.038 A 
HETATM    3  C3  UNL     1       6.079   9.920  -5.575  1.00  0.00     0.065 A 
HETATM    4  C4  UNL     1       6.273  10.901  -6.541  1.00  0.00     0.038 A 
HETATM    5  C5  UNL     1       7.286  11.847  -6.363  1.00  0.00     0.026 A 
HETATM    6  C6  UNL     1       8.076  11.844  -5.208  1.00  0.00     0.005 A 
ENDROOT
BRANCH   6   7
HETATM    7  N1  UNL     1       9.162  12.720  -5.095  1.00  0.00    -0.303 NA
HETATM    8  H5  UNL     1       9.130  13.496  -5.748  1.00  0.00     0.124 HD
HETATM    9  H6  UNL     1      10.064  12.256  -5.091  1.00  0.00     0.124 HD
ENDBRANCH   6   7
BRANCH   3  10
HETATM   10  O1  UNL     1       5.106   8.975  -5.706  1.00  0.00    -0.361 OA
HETATM   11  H7  UNL     1       5.052   8.468  -4.880  1.00  0.00     0.217 HD
ENDBRANCH   3  10
TORSDOF 2
ENDMDL
MODEL 6
REMARK VINA RESULT:      -3.8      2.064      2.725
REMARK  2 active torsions:
REMARK  status: ('A' for Active; 'I' for Inactive)
REMARK    1  A    between atoms: C3_3  and  O1_8 
REMARK    2  A    between atoms: C6_6  and  N1_7 
ROOT
HETATM    1  C1  UNL     1       7.447  12.304  -6.449  1.00  0.00     0.026 A 
HETATM    2  C2  UNL     1       6.443  12.361  -7.418  1.00  0.00     0.038 A 
HETATM    3  C3  UNL     1       5.453  11.389  -7.440  1.00  0.00     0.065 A 
HETATM    4  C4  UNL     1       5.443  10.367  -6.497  1.00  0.00     0.038 A 
HETATM    5  C5  UNL     1       6.452  10.316  -5.531  1.00  0.00     0.026 A 
HETATM    6  C6  UNL     1       7.491  11.253  -5.528  1.00  0.00     0.005 A 
ENDROOT
BRANCH   6   7
HETATM    7  N1  UNL     1       8.427  11.264  -4.489  1.00  0.00    -0.303 NA
HETATM    8  H5  UNL     1       8.236  10.583  -3.760  1.00  0.00     0.124 HD
HETATM    9  H6  UNL     1       8.614  12.188  -4.114  1.00  0.00     0.124 HD
ENDBRANCH   6   7
BRANCH   3  10
HETATM   10  O1  UNL     1       4.489  11.480  -8.399  1.00  0.00    -0.361 OA
HETATM   11  H7  UNL     1       4.905  11.364  -9.269  1.00  0.00     0.217 HD
ENDBRANCH   3  10
TORSDOF 2
ENDMDL
MODEL 7
REMARK VINA RESULT:      -3.7      3.078      4.036
REMARK  2 active torsions:
REMARK  status: ('A' for Active; 'I' for Inactive)
REMARK    1  A    between atoms: C3_3  and  O1_8 
REMARK    2  A    between atoms: C6_6  and  N1_7 
ROOT
HETATM    1  C1  UNL     1       3.348  11.595  -6.041  1.00  0.00     0.026 A 
HETATM    2  C2  UNL     1       4.484  12.043  -6.718  1.00  0.00     0.038 A 
HETATM    3  C3  UNL     1       5.642  11.278  -6.699  1.00  0.00     0.065 A 
HETATM    4  C4  UNL     1       5.676  10.061  -6.026  1.00  0.00     0.038 A 
HETATM    5  C5  UNL     1       4.535   9.620  -5.350  1.00  0.00     0.026 A 
HETATM    6  C6  UNL     1       3.378  10.404  -5.308  1.00  0.00     0.005 A 
ENDROOT
BRANCH   6   7
HETATM    7  N1  UNL     1       2.206   9.901  -4.732  1.00  0.00    -0.303 NA
HETATM    8  H5  UNL     1       1.760   9.173  -5.282  1.00  0.00     0.124 HD
HETATM    9  H6  UNL     1       1.552  10.619  -4.438  1.00  0.00     0.124 HD
ENDBRANCH   6   7
BRANCH   3  10
HETATM   10  O1  UNL     1       6.729  11.748  -7.373  1.00  0.00    -0.361 OA
HETATM   11  H7  UNL     1       7.470  11.138  -7.230  1.00  0.00     0.217 HD
ENDBRANCH   3  10
TORSDOF 2
ENDMDL
MODEL 8
REMARK VINA RESULT:      -3.7      1.160      2.213
REMARK  2 active torsions:
REMARK  status: ('A' for Active; 'I' for Inactive)
REMARK    1  A    between atoms: C3_3  and  O1_8 
REMARK    2  A    between atoms: C6_6  and  N1_7 
ROOT
HETATM    1  C1  UNL     1       4.960  12.133  -6.768  1.00  0.00     0.026 A 
HETATM    2  C2  UNL     1       3.706  11.782  -6.264  1.00  0.00     0.038 A 
HETATM    3  C3  UNL     1       3.547  10.580  -5.589  1.00  0.00     0.065 A 
HETATM    4  C4  UNL     1       4.630   9.729  -5.397  1.00  0.00     0.038 A 
HETATM    5  C5  UNL     1       5.882  10.086  -5.906  1.00  0.00     0.026 A 
HETATM    6  C6  UNL     1       6.048  11.266  -6.639  1.00  0.00     0.005 A 
ENDROOT
BRANCH   6   7
HETATM    7  N1  UNL     1       7.326  11.672  -7.040  1.00  0.00    -0.303 NA
HETATM    8  H5  UNL     1       7.487  11.584  -8.038  1.00  0.00     0.124 HD
HETATM    9  H6  UNL     1       8.077  11.267  -6.490  1.00  0.00     0.124 HD
ENDBRANCH   6   7
BRANCH   3  10
HETATM   10  O1  UNL     1       2.309  10.275  -5.110  1.00  0.00    -0.361 OA
HETATM   11  H7  UNL     1       2.406   9.884  -4.227  1.00  0.00     0.217 HD
ENDBRANCH   3  10
TORSDOF 2
ENDMDL
MODEL 9
REMARK VINA RESULT:      -3.6      3.261      4.167
REMARK  2 active torsions:
REMARK  status: ('A' for Active; 'I' for Inactive)
REMARK    1  A    between atoms: C3_3  and  O1_8 
REMARK    2  A    between atoms: C6_6  and  N1_7 
ROOT
HETATM    1  C1  UNL     1       6.614  11.060  -6.411  1.00  0.00     0.026 A 
HETATM    2  C2  UNL     1       7.630  11.962  -6.090  1.00  0.00     0.038 A 
HETATM    3  C3  UNL     1       8.321  11.822  -4.895  1.00  0.00     0.065 A 
HETATM    4  C4  UNL     1       8.022  10.781  -4.022  1.00  0.00     0.038 A 
HETATM    5  C5  UNL     1       7.003   9.883  -4.350  1.00  0.00     0.026 A 
HETATM    6  C6  UNL     1       6.256  10.043  -5.522  1.00  0.00     0.005 A 
ENDROOT
BRANCH   6   7
HETATM    7  N1  UNL     1       5.320   9.073  -5.899  1.00  0.00    -0.303 NA
HETATM    8  H5  UNL     1       5.721   8.149  -6.030  1.00  0.00     0.124 HD
HETATM    9  H6  UNL     1       4.729   9.352  -6.675  1.00  0.00     0.124 HD
ENDBRANCH   6   7
BRANCH   3  10
HETATM   10  O1  UNL     1       9.308  12.720  -4.618  1.00  0.00    -0.361 OA
HETATM   11  H7  UNL     1       9.840  12.852  -5.419  1.00  0.00     0.217 HD
ENDBRANCH   3  10
TORSDOF 2
ENDMDL
MODEL 10
REMARK VINA RESULT:      -3.6      2.437      3.141
REMARK  2 active torsions:
REMARK  status: ('A' for Active; 'I' for Inactive)
REMARK    1  A    between atoms: C3_3  and  O1_8 
REMARK    2  A    between atoms: C6_6  and  N1_7 
ROOT
HETATM    1  C1  UNL     1       6.135  12.379  -7.026  1.00  0.00     0.026 A 
HETATM    2  C2  UNL     1       7.252  11.915  -6.327  1.00  0.00     0.038 A 
HETATM    3  C3  UNL     1       7.157  10.755  -5.572  1.00  0.00     0.065 A 
HETATM    4  C4  UNL     1       5.965  10.041  -5.517  1.00  0.00     0.038 A 
HETATM    5  C5  UNL     1       4.851  10.512  -6.218  1.00  0.00     0.026 A 
HETATM    6  C6  UNL     1       4.910  11.711  -6.936  1.00  0.00     0.005 A 
ENDROOT
BRANCH   6   7
HETATM    7  N1  UNL     1       3.828  12.111  -7.729  1.00  0.00    -0.303 NA
HETATM    8  H5  UNL     1       4.090  12.717  -8.500  1.00  0.00     0.124 HD
HETATM    9  H6  UNL     1       3.045  12.477  -7.199  1.00  0.00     0.124 HD
ENDBRANCH   6   7
BRANCH   3  10
HETATM   10  O1  UNL     1       8.270  10.333  -4.908  1.00  0.00    -0.361 OA
HETATM   11  H7  UNL     1       8.333   9.368  -4.990  1.00  0.00     0.217 HD
ENDBRANCH   3  10
TORSDOF 2
ENDMDL
MODEL 11
REMARK VINA RESULT:      -3.5      1.625      2.341
REMARK  2 active torsions:
REMARK  status: ('A' for Active; 'I' for Inactive)
REMARK    1  A    between atoms: C3_3  and  O1_8 
REMARK    2  A    between atoms: C6_6  and  N1_7 
ROOT
HETATM    1  C1  UNL     1       6.665  11.873  -6.722  1.00  0.00     0.026 A 
HETATM    2  C2  UNL     1       5.488  12.555  -7.041  1.00  0.00     0.038 A 
HETATM    3  C3  UNL     1       4.260  12.001  -6.709  1.00  0.00     0.065 A 
HETATM    4  C4  UNL     1       4.190  10.780  -6.048  1.00  0.00     0.038 A 
HETATM    5  C5  UNL     1       5.371  10.102  -5.733  1.00  0.00     0.026 A 
HETATM    6  C6  UNL     1       6.616  10.616  -6.111  1.00  0.00     0.005 A 
ENDROOT
BRANCH   6   7
HETATM    7  N1  UNL     1       7.795   9.992  -5.687  1.00  0.00    -0.303 NA
HETATM    8  H5  UNL     1       8.323  10.534  -5.010  1.00  0.00     0.124 HD
HETATM    9  H6  UNL     1       8.375   9.652  -6.447  1.00  0.00     0.124 HD
ENDBRANCH   6   7
BRANCH   3  10
HETATM   10  O1  UNL     1       3.136  12.699  -7.035  1.00  0.00    -0.361 OA
HETATM   11  H7  UNL     1       2.847  13.201  -6.257  1.00  0.00     0.217 HD
ENDBRANCH   3  10
TORSDOF 2
ENDMDL
MODEL 12
REMARK VINA RESULT:      -3.3      5.060      5.792
REMARK  2 active torsions:
REMARK  status: ('A' for Active; 'I' for Inactive)
REMARK    1  A    between atoms: C3_3  and  O1_8 
REMARK    2  A    between atoms: C6_6  and  N1_7 
ROOT
HETATM    1  C1  UNL     1       9.448   9.956  -4.017  1.00  0.00     0.026 A 
HETATM    2  C2  UNL     1      10.734  10.499  -4.003  1.00  0.00     0.038 A 
HETATM    3  C3  UNL     1      10.902  11.874  -4.093  1.00  0.00     0.065 A 
HETATM    4  C4  UNL     1       9.800  12.717  -4.182  1.00  0.00     0.038 A 
HETATM    5  C5  UNL     1       8.515  12.166  -4.197  1.00  0.00     0.026 A 
HETATM    6  C6  UNL     1       8.328  10.780  -4.166  1.00  0.00     0.005 A 
ENDROOT
BRANCH   6   7
HETATM    7  N1  UNL     1       7.039  10.245  -4.061  1.00  0.00    -0.303 NA
HETATM    8  H5  UNL     1       6.760   9.694  -4.867  1.00  0.00     0.124 HD
HETATM    9  H6  UNL     1       6.334  10.923  -3.793  1.00  0.00     0.124 HD
ENDBRANCH   6   7
BRANCH   3  10
HETATM   10  O1  UNL     1      12.173  12.365  -4.073  1.00  0.00    -0.361 OA
HETATM   11  H7  UNL     1      12.180  13.184  -3.553  1.00  0.00     0.217 HD
ENDBRANCH   3  10
TORSDOF 2
ENDMDL
MODEL 13
REMARK VINA RESULT:      -3.3      4.284      5.122
REMARK  2 active torsions:
REMARK  status: ('A' for Active; 'I' for Inactive)
REMARK    1  A    between atoms: C3_3  and  O1_8 
REMARK    2  A    between atoms: C6_6  and  N1_7 
ROOT
HETATM    1  C1  UNL     1       9.596  12.719  -4.266  1.00  0.00     0.026 A 
HETATM    2  C2  UNL     1       8.335  12.118  -4.271  1.00  0.00     0.038 A 
HETATM    3  C3  UNL     1       8.228  10.743  -4.114  1.00  0.00     0.065 A 
HETATM    4  C4  UNL     1       9.364   9.960  -3.937  1.00  0.00     0.038 A 
HETATM    5  C5  UNL     1      10.622  10.569  -3.935  1.00  0.00     0.026 A 
HETATM    6  C6  UNL     1      10.754  11.944  -4.150  1.00  0.00     0.005 A 
ENDROOT
BRANCH   6   7
HETATM    7  N1  UNL     1      12.005  12.560  -4.028  1.00  0.00    -0.303 NA
HETATM    8  H5  UNL     1      12.231  13.182  -4.798  1.00  0.00     0.124 HD
HETATM    9  H6  UNL     1      12.761  11.916  -3.817  1.00  0.00     0.124 HD
ENDBRANCH   6   7
BRANCH   3  10
HETATM   10  O1  UNL     1       6.981  10.195  -4.121  1.00  0.00    -0.361 OA
HETATM   11  H7  UNL     1       6.787   9.877  -5.017  1.00  0.00     0.217 HD
ENDBRANCH   3  10
TORSDOF 2
ENDMDL
MODEL 14
REMARK VINA RESULT:      -3.2      2.042      2.610
REMARK  2 active torsions:
REMARK  status: ('A' for Active; 'I' for Inactive)
REMARK    1  A    between atoms: C3_3  and  O1_8 
REMARK    2  A    between atoms: C6_6  and  N1_7 
ROOT
HETATM    1  C1  UNL     1       8.169  12.555  -6.261  1.00  0.00     0.026 A 
HETATM    2  C2  UNL     1       8.099  11.936  -5.011  1.00  0.00     0.038 A 
HETATM    3  C3  UNL     1       7.207  10.892  -4.811  1.00  0.00     0.065 A 
HETATM    4  C4  UNL     1       6.395  10.446  -5.847  1.00  0.00     0.038 A 
HETATM    5  C5  UNL     1       6.469  11.072  -7.095  1.00  0.00     0.026 A 
HETATM    6  C6  UNL     1       7.319  12.163  -7.300  1.00  0.00     0.005 A 
ENDROOT
BRANCH   6   7
HETATM    7  N1  UNL     1       7.474  12.705  -8.581  1.00  0.00    -0.303 NA
HETATM    8  H5  UNL     1       7.340  12.031  -9.328  1.00  0.00     0.124 HD
HETATM    9  H6  UNL     1       8.324  13.246  -8.697  1.00  0.00     0.124 HD
ENDBRANCH   6   7
BRANCH   3  10
HETATM   10  O1  UNL     1       7.171  10.311  -3.578  1.00  0.00    -0.361 OA
HETATM   11  H7  UNL     1       7.904  10.663  -3.049  1.00  0.00     0.217 HD
ENDBRANCH   3  10
TORSDOF 2
ENDMDL
MODEL 15
REMARK VINA RESULT:      -2.9      3.050      3.848
REMARK  2 active torsions:
REMARK  status: ('A' for Active; 'I' for Inactive)
REMARK    1  A    between atoms: C3_3  and  O1_8 
REMARK    2  A    between atoms: C6_6  and  N1_7 
ROOT
HETATM    1  C1  UNL     1       8.592  12.720  -5.526  1.00  0.00     0.026 A 
HETATM    2  C2  UNL     1       7.467  12.125  -6.102  1.00  0.00     0.038 A 
HETATM    3  C3  UNL     1       7.024  10.895  -5.635  1.00  0.00     0.065 A 
HETATM    4  C4  UNL     1       7.681  10.258  -4.588  1.00  0.00     0.038 A 
HETATM    5  C5  UNL     1       8.807  10.859  -4.018  1.00  0.00     0.026 A 
HETATM    6  C6  UNL     1       9.303  12.069  -4.514  1.00  0.00     0.005 A 
ENDROOT
BRANCH   6   7
HETATM    7  N1  UNL     1      10.356  12.720  -3.861  1.00  0.00    -0.303 NA
HETATM    8  H5  UNL     1      11.065  13.082  -4.491  1.00  0.00     0.124 HD
HETATM    9  H6  UNL     1      10.755  12.188  -3.095  1.00  0.00     0.124 HD
ENDBRANCH   6   7
BRANCH   3  10
HETATM   10  O1  UNL     1       5.922  10.349  -6.221  1.00  0.00    -0.361 OA
HETATM   11  H7  UNL     1       5.166  10.462  -5.623  1.00  0.00     0.217 HD
ENDBRANCH   3  10
TORSDOF 2
ENDMDL
MODEL 16
REMARK VINA RESULT:      -2.0      6.041      6.827
REMARK  2 active torsions:
REMARK  status: ('A' for Active; 'I' for Inactive)
REMARK    1  A    between atoms: C3_3  and  O1_8 
REMARK    2  A    between atoms: C6_6  and  N1_7 
ROOT
HETATM    1  C1  UNL     1      10.190  10.444  -4.049  1.00  0.00     0.026 A 
HETATM    2  C2  UNL     1      11.474  10.007  -4.381  1.00  0.00     0.038 A 
HETATM    3  C3  UNL     1      12.441  10.932  -4.751  1.00  0.00     0.065 A 
HETATM    4  C4  UNL     1      12.147  12.291  -4.778  1.00  0.00     0.038 A 
HETATM    5  C5  UNL     1      10.858  12.720  -4.445  1.00  0.00     0.026 A 
HETATM    6  C6  UNL     1       9.855  11.799  -4.128  1.00  0.00     0.005 A 
ENDROOT
BRANCH   6   7
HETATM    7  N1  UNL     1       8.605  12.244  -3.682  1.00  0.00    -0.303 NA
HETATM    8  H5  UNL     1       8.111  11.566  -3.110  1.00  0.00     0.124 HD
HETATM    9  H6  UNL     1       8.021  12.628  -4.416  1.00  0.00     0.124 HD
ENDBRANCH   6   7
BRANCH   3  10
HETATM   10  O1  UNL     1      13.683  10.467  -5.065  1.00  0.00    -0.361 OA
HETATM   11  H7  UNL     1      13.589   9.604  -5.500  1.00  0.00     0.217 HD
ENDBRANCH   3  10
TORSDOF 2
ENDMDL
