MODEL 1
REMARK VINA RESULT:      -4.4      0.000      0.000
REMARK  2 active torsions:
REMARK  status: ('A' for Active; 'I' for Inactive)
REMARK    1  A    between atoms: C3_3  and  O1_8 
REMARK    2  A    between atoms: C6_6  and  N1_7 
ROOT
HETATM    1  C1  UNL     1       7.880   5.360  -3.589  1.00  0.00     0.026 A 
HETATM    2  C2  UNL     1       8.559   4.256  -3.067  1.00  0.00     0.038 A 
HETATM    3  C3  UNL     1       9.706   3.794  -3.697  1.00  0.00     0.065 A 
HETATM    4  C4  UNL     1      10.195   4.429  -4.833  1.00  0.00     0.038 A 
HETATM    5  C5  UNL     1       9.509   5.532  -5.350  1.00  0.00     0.026 A 
HETATM    6  C6  UNL     1       8.320   5.977  -4.764  1.00  0.00     0.005 A 
ENDROOT
BRANCH   6   7
HETATM    7  N1  UNL     1       7.707   7.151  -5.216  1.00  0.00    -0.303 NA
HETATM    8  H5  UNL     1       6.780   7.004  -5.604  1.00  0.00     0.124 HD
HETATM    9  H6  UNL     1       8.295   7.714  -5.821  1.00  0.00     0.124 HD
ENDBRANCH   6   7
BRANCH   3  10
HETATM   10  O1  UNL     1      10.341   2.717  -3.156  1.00  0.00    -0.361 OA
HETATM   11  H7  UNL     1      11.219   2.996  -2.850  1.00  0.00     0.217 HD
ENDBRANCH   3  10
TORSDOF 2
ENDMDL
MODEL 2
REMARK VINA RESULT:      -4.4      1.617      2.045
REMARK  2 active torsions:
REMARK  status: ('A' for Active; 'I' for Inactive)
REMARK    1  A    between atoms: C3_3  and  O1_8 
REMARK    2  A    between atoms: C6_6  and  N1_7 
ROOT
HETATM    1  C1  UNL     1       8.689   6.218  -5.412  1.00  0.00     0.026 A 
HETATM    2  C2  UNL     1       8.268   5.716  -4.179  1.00  0.00     0.038 A 
HETATM    3  C3  UNL     1       8.919   4.624  -3.623  1.00  0.00     0.065 A 
HETATM    4  C4  UNL     1       9.996   4.034  -4.275  1.00  0.00     0.038 A 
HETATM    5  C5  UNL     1      10.411   4.542  -5.510  1.00  0.00     0.026 A 
HETATM    6  C6  UNL     1       9.731   5.604  -6.114  1.00  0.00     0.005 A 
ENDROOT
BRANCH   6   7
HETATM    7  N1  UNL     1      10.226   6.180  -7.289  1.00  0.00    -0.303 NA
HETATM    8  H5  UNL     1      11.240   6.202  -7.338  1.00  0.00     0.124 HD
HETATM    9  H6  UNL     1       9.809   7.078  -7.514  1.00  0.00     0.124 HD
ENDBRANCH   6   7
BRANCH   3  10
HETATM   10  O1  UNL     1       8.480   4.165  -2.417  1.00  0.00    -0.361 OA
HETATM   11  H7  UNL     1       8.725   3.230  -2.334  1.00  0.00     0.217 HD
ENDBRANCH   3  10
TORSDOF 2
ENDMDL
MODEL 3
REMARK VINA RESULT:      -4.4      1.609      2.346
REMARK  2 active torsions:
REMARK  status: ('A' for Active; 'I' for Inactive)
REMARK    1  A    between atoms: C3_3  and  O1_8 
REMARK    2  A    between atoms: C6_6  and  N1_7 
ROOT
HETATM    1  C1  UNL     1      10.401   4.555  -5.470  1.00  0.00     0.026 A 
HETATM    2  C2  UNL     1       9.946   4.044  -4.252  1.00  0.00     0.038 A 
HETATM    3  C3  UNL     1       8.898   4.670  -3.592  1.00  0.00     0.065 A 
HETATM    4  C4  UNL     1       8.286   5.792  -4.139  1.00  0.00     0.038 A 
HETATM    5  C5  UNL     1       8.748   6.299  -5.357  1.00  0.00     0.026 A 
HETATM    6  C6  UNL     1       9.840   5.717  -6.008  1.00  0.00     0.005 A 
ENDROOT
BRANCH   6   7
HETATM    7  N1  UNL     1      10.218   6.158  -7.282  1.00  0.00    -0.303 NA
HETATM    8  H5  UNL     1      10.466   5.405  -7.917  1.00  0.00     0.124 HD
HETATM    9  H6  UNL     1      10.911   6.898  -7.271  1.00  0.00     0.124 HD
ENDBRANCH   6   7
BRANCH   3  10
HETATM   10  O1  UNL     1       8.481   4.139  -2.408  1.00  0.00    -0.361 OA
HETATM   11  H7  UNL     1       8.171   3.233  -2.567  1.00  0.00     0.217 HD
ENDBRANCH   3  10
TORSDOF 2
ENDMDL
MODEL 4
REMARK VINA RESULT:      -4.4      2.777      3.681
REMARK  2 active torsions:
REMARK  status: ('A' for Active; 'I' for Inactive)
REMARK    1  A    between atoms: C3_3  and  O1_8 
REMARK    2  A    between atoms: C6_6  and  N1_7 
ROOT
HETATM    1  C1  UNL     1      10.125   4.411  -4.807  1.00  0.00     0.026 A 
HETATM    2  C2  UNL     1       9.465   5.517  -5.345  1.00  0.00     0.038 A 
HETATM    3  C3  UNL     1       8.310   5.991  -4.738  1.00  0.00     0.065 A 
HETATM    4  C4  UNL     1       7.814   5.384  -3.589  1.00  0.00     0.038 A 
HETATM    5  C5  UNL     1       8.480   4.276  -3.057  1.00  0.00     0.026 A 
HETATM    6  C6  UNL     1       9.611   3.748  -3.688  1.00  0.00     0.005 A 
ENDROOT
BRANCH   6   7
HETATM    7  N1  UNL     1      10.338   2.716  -3.084  1.00  0.00    -0.303 NA
HETATM    8  H5  UNL     1      10.791   2.094  -3.746  1.00  0.00     0.124 HD
HETATM    9  H6  UNL     1       9.820   2.211  -2.372  1.00  0.00     0.124 HD
ENDBRANCH   6   7
BRANCH   3  10
HETATM   10  O1  UNL     1       7.696   7.074  -5.291  1.00  0.00    -0.361 OA
HETATM   11  H7  UNL     1       7.302   7.604  -4.580  1.00  0.00     0.217 HD
ENDBRANCH   3  10
TORSDOF 2
ENDMDL
MODEL 5
REMARK VINA RESULT:      -4.4      2.979      3.484
REMARK  2 active torsions:
REMARK  status: ('A' for Active; 'I' for Inactive)
REMARK    1  A    between atoms: C3_3  and  O1_8 
REMARK    2  A    between atoms: C6_6  and  N1_7 
ROOT
HETATM    1  C1  UNL     1       9.110   5.146  -3.868  1.00  0.00     0.026 A 
HETATM    2  C2  UNL     1       8.668   6.421  -4.228  1.00  0.00     0.038 A 
HETATM    3  C3  UNL     1       9.058   6.966  -5.443  1.00  0.00     0.065 A 
HETATM    4  C4  UNL     1       9.871   6.248  -6.313  1.00  0.00     0.038 A 
HETATM    5  C5  UNL     1      10.310   4.973  -5.945  1.00  0.00     0.026 A 
HETATM    6  C6  UNL     1       9.976   4.431  -4.700  1.00  0.00     0.005 A 
ENDROOT
BRANCH   6   7
HETATM    7  N1  UNL     1      10.321   3.110  -4.391  1.00  0.00    -0.303 NA
HETATM    8  H5  UNL     1       9.679   2.421  -4.773  1.00  0.00     0.124 HD
HETATM    9  H6  UNL     1      10.513   2.955  -3.407  1.00  0.00     0.124 HD
ENDBRANCH   6   7
BRANCH   3  10
HETATM   10  O1  UNL     1       8.604   8.211  -5.759  1.00  0.00    -0.361 OA
HETATM   11  H7  UNL     1       9.087   8.862  -5.226  1.00  0.00     0.217 HD
ENDBRANCH   3  10
TORSDOF 2
ENDMDL
MODEL 6
REMARK VINA RESULT:      -4.4      2.908      3.777
REMARK  2 active torsions:
REMARK  status: ('A' for Active; 'I' for Inactive)
REMARK    1  A    between atoms: C3_3  and  O1_8 
REMARK    2  A    between atoms: C6_6  and  N1_7 
ROOT
HETATM    1  C1  UNL     1      10.311   4.821  -5.315  1.00  0.00     0.026 A 
HETATM    2  C2  UNL     1       9.966   6.036  -5.911  1.00  0.00     0.038 A 
HETATM    3  C3  UNL     1       9.039   6.865  -5.295  1.00  0.00     0.065 A 
HETATM    4  C4  UNL     1       8.462   6.505  -4.082  1.00  0.00     0.038 A 
HETATM    5  C5  UNL     1       8.812   5.286  -3.492  1.00  0.00     0.026 A 
HETATM    6  C6  UNL     1       9.699   4.411  -4.126  1.00  0.00     0.005 A 
ENDROOT
BRANCH   6   7
HETATM    7  N1  UNL     1      10.133   3.252  -3.473  1.00  0.00    -0.303 NA
HETATM    8  H5  UNL     1      10.447   2.521  -4.105  1.00  0.00     0.124 HD
HETATM    9  H6  UNL     1       9.483   2.906  -2.776  1.00  0.00     0.124 HD
ENDBRANCH   6   7
BRANCH   3  10
HETATM   10  O1  UNL     1       8.730   8.043  -5.906  1.00  0.00    -0.361 OA
HETATM   11  H7  UNL     1       8.964   7.975  -6.846  1.00  0.00     0.217 HD
ENDBRANCH   3  10
TORSDOF 2
ENDMDL
MODEL 7
REMARK VINA RESULT:      -4.4      1.269      2.231
REMARK  2 active torsions:
REMARK  status: ('A' for Active; 'I' for Inactive)
REMARK    1  A    between atoms: C3_3  and  O1_8 
REMARK    2  A    between atoms: C6_6  and  N1_7 
ROOT
HETATM    1  C1  UNL     1       9.760   6.498  -6.299  1.00  0.00     0.026 A 
HETATM    2  C2  UNL     1      10.218   5.195  -6.091  1.00  0.00     0.038 A 
HETATM    3  C3  UNL     1       9.896   4.533  -4.914  1.00  0.00     0.065 A 
HETATM    4  C4  UNL     1       9.109   5.149  -3.948  1.00  0.00     0.038 A 
HETATM    5  C5  UNL     1       8.656   6.454  -4.163  1.00  0.00     0.026 A 
HETATM    6  C6  UNL     1       9.019   7.159  -5.315  1.00  0.00     0.005 A 
ENDROOT
BRANCH   6   7
HETATM    7  N1  UNL     1       8.464   8.417  -5.576  1.00  0.00    -0.303 NA
HETATM    8  H5  UNL     1       8.967   8.946  -6.282  1.00  0.00     0.124 HD
HETATM    9  H6  UNL     1       8.278   8.964  -4.742  1.00  0.00     0.124 HD
ENDBRANCH   6   7
BRANCH   3  10
HETATM   10  O1  UNL     1      10.359   3.262  -4.750  1.00  0.00    -0.361 OA
HETATM   11  H7  UNL     1      11.125   3.285  -4.154  1.00  0.00     0.217 HD
ENDBRANCH   3  10
TORSDOF 2
ENDMDL
MODEL 8
REMARK VINA RESULT:      -4.3      2.652      3.403
REMARK  2 active torsions:
REMARK  status: ('A' for Active; 'I' for Inactive)
REMARK    1  A    between atoms: C3_3  and  O1_8 
REMARK    2  A    between atoms: C6_6  and  N1_7 
ROOT
HETATM    1  C1  UNL     1       9.449   4.413  -4.596  1.00  0.00     0.026 A 
HETATM    2  C2  UNL     1       9.851   5.157  -5.708  1.00  0.00     0.038 A 
HETATM    3  C3  UNL     1       9.506   6.498  -5.800  1.00  0.00     0.065 A 
HETATM    4  C4  UNL     1       8.778   7.113  -4.788  1.00  0.00     0.038 A 
HETATM    5  C5  UNL     1       8.377   6.362  -3.679  1.00  0.00     0.026 A 
HETATM    6  C6  UNL     1       8.665   4.996  -3.596  1.00  0.00     0.005 A 
ENDROOT
BRANCH   6   7
HETATM    7  N1  UNL     1       8.364   4.282  -2.430  1.00  0.00    -0.303 NA
HETATM    8  H5  UNL     1       8.255   3.284  -2.579  1.00  0.00     0.124 HD
HETATM    9  H6  UNL     1       7.601   4.678  -1.891  1.00  0.00     0.124 HD
ENDBRANCH   6   7
BRANCH   3  10
HETATM   10  O1  UNL     1       9.920   7.189  -6.899  1.00  0.00    -0.361 OA
HETATM   11  H7  UNL     1      10.712   6.757  -7.257  1.00  0.00     0.217 HD
ENDBRANCH   3  10
TORSDOF 2
ENDMDL
MODEL 9
REMARK VINA RESULT:      -4.2      2.050      2.269
REMARK  2 active torsions:
REMARK  status: ('A' for Active; 'I' for Inactive)
REMARK    1  A    between atoms: C3_3  and  O1_8 
REMARK    2  A    between atoms: C6_6  and  N1_7 
ROOT
HETATM    1  C1  UNL     1       8.420   7.077  -3.797  1.00  0.00     0.026 A 
HETATM    2  C2  UNL     1       7.977   5.761  -3.939  1.00  0.00     0.038 A 
HETATM    3  C3  UNL     1       8.308   5.043  -5.080  1.00  0.00     0.065 A 
HETATM    4  C4  UNL     1       9.092   5.617  -6.075  1.00  0.00     0.038 A 
HETATM    5  C5  UNL     1       9.530   6.936  -5.926  1.00  0.00     0.026 A 
HETATM    6  C6  UNL     1       9.158   7.695  -4.812  1.00  0.00     0.005 A 
ENDROOT
BRANCH   6   7
HETATM    7  N1  UNL     1       9.699   8.970  -4.614  1.00  0.00    -0.303 NA
HETATM    8  H5  UNL     1      10.667   9.052  -4.907  1.00  0.00     0.124 HD
HETATM    9  H6  UNL     1       9.544   9.342  -3.683  1.00  0.00     0.124 HD
ENDBRANCH   6   7
BRANCH   3  10
HETATM   10  O1  UNL     1       7.859   3.760  -5.180  1.00  0.00    -0.361 OA
HETATM   11  H7  UNL     1       8.615   3.159  -5.082  1.00  0.00     0.217 HD
ENDBRANCH   3  10
TORSDOF 2
ENDMDL
MODEL 10
REMARK VINA RESULT:      -4.2      2.767      3.327
REMARK  2 active torsions:
REMARK  status: ('A' for Active; 'I' for Inactive)
REMARK    1  A    between atoms: C3_3  and  O1_8 
REMARK    2  A    between atoms: C6_6  and  N1_7 
ROOT
HETATM    1  C1  UNL     1       9.884   4.482  -4.859  1.00  0.00     0.026 A 
HETATM    2  C2  UNL     1       9.194   5.391  -4.054  1.00  0.00     0.038 A 
HETATM    3  C3  UNL     1       8.993   6.690  -4.501  1.00  0.00     0.065 A 
HETATM    4  C4  UNL     1       9.458   7.089  -5.749  1.00  0.00     0.038 A 
HETATM    5  C5  UNL     1      10.149   6.174  -6.548  1.00  0.00     0.026 A 
HETATM    6  C6  UNL     1      10.413   4.878  -6.091  1.00  0.00     0.005 A 
ENDROOT
BRANCH   6   7
HETATM    7  N1  UNL     1      10.999   3.936  -6.944  1.00  0.00    -0.303 NA
HETATM    8  H5  UNL     1      10.844   4.126  -7.929  1.00  0.00     0.124 HD
HETATM    9  H6  UNL     1      10.789   2.974  -6.698  1.00  0.00     0.124 HD
ENDBRANCH   6   7
BRANCH   3  10
HETATM   10  O1  UNL     1       8.313   7.546  -3.688  1.00  0.00    -0.361 OA
HETATM   11  H7  UNL     1       8.001   7.054  -2.912  1.00  0.00     0.217 HD
ENDBRANCH   3  10
TORSDOF 2
ENDMDL
MODEL 11
REMARK VINA RESULT:      -4.1      1.781      2.184
REMARK  2 active torsions:
REMARK  status: ('A' for Active; 'I' for Inactive)
REMARK    1  A    between atoms: C3_3  and  O1_8 
REMARK    2  A    between atoms: C6_6  and  N1_7 
ROOT
HETATM    1  C1  UNL     1       9.161   5.434  -3.989  1.00  0.00     0.026 A 
HETATM    2  C2  UNL     1       9.846   4.457  -4.715  1.00  0.00     0.038 A 
HETATM    3  C3  UNL     1      10.367   4.767  -5.963  1.00  0.00     0.065 A 
HETATM    4  C4  UNL     1      10.228   6.046  -6.491  1.00  0.00     0.038 A 
HETATM    5  C5  UNL     1       9.540   7.018  -5.759  1.00  0.00     0.026 A 
HETATM    6  C6  UNL     1       8.957   6.709  -4.526  1.00  0.00     0.005 A 
ENDROOT
BRANCH   6   7
HETATM    7  N1  UNL     1       8.376   7.717  -3.748  1.00  0.00    -0.303 NA
HETATM    8  H5  UNL     1       7.514   7.434  -3.291  1.00  0.00     0.124 HD
HETATM    9  H6  UNL     1       8.283   8.605  -4.230  1.00  0.00     0.124 HD
ENDBRANCH   6   7
BRANCH   3  10
HETATM   10  O1  UNL     1      11.031   3.787  -6.639  1.00  0.00    -0.361 OA
HETATM   11  H7  UNL     1      11.138   4.066  -7.563  1.00  0.00     0.217 HD
ENDBRANCH   3  10
TORSDOF 2
ENDMDL
MODEL 12
REMARK VINA RESULT:      -3.7      1.878      2.645
REMARK  2 active torsions:
REMARK  status: ('A' for Active; 'I' for Inactive)
REMARK    1  A    between atoms: C3_3  and  O1_8 
REMARK    2  A    between atoms: C6_6  and  N1_7 
ROOT
HETATM    1  C1  UNL     1       9.057   6.358  -5.719  1.00  0.00     0.026 A 
HETATM    2  C2  UNL     1      10.347   6.149  -6.212  1.00  0.00     0.038 A 
HETATM    3  C3  UNL     1      11.080   5.054  -5.777  1.00  0.00     0.065 A 
HETATM    4  C4  UNL     1      10.536   4.153  -4.868  1.00  0.00     0.038 A 
HETATM    5  C5  UNL     1       9.245   4.370  -4.378  1.00  0.00     0.026 A 
HETATM    6  C6  UNL     1       8.513   5.499  -4.760  1.00  0.00     0.005 A 
ENDROOT
BRANCH   6   7
HETATM    7  N1  UNL     1       7.180   5.644  -4.358  1.00  0.00    -0.303 NA
HETATM    8  H5  UNL     1       7.065   6.203  -3.518  1.00  0.00     0.124 HD
HETATM    9  H6  UNL     1       6.668   4.769  -4.312  1.00  0.00     0.124 HD
ENDBRANCH   6   7
BRANCH   3  10
HETATM   10  O1  UNL     1      12.334   4.883  -6.283  1.00  0.00    -0.361 OA
HETATM   11  H7  UNL     1      12.679   5.749  -6.554  1.00  0.00     0.217 HD
ENDBRANCH   3  10
TORSDOF 2
ENDMDL
MODEL 13
REMARK VINA RESULT:      -3.5      2.588      3.022
REMARK  2 active torsions:
REMARK  status: ('A' for Active; 'I' for Inactive)
REMARK    1  A    between atoms: C3_3  and  O1_8 
REMARK    2  A    between atoms: C6_6  and  N1_7 
ROOT
HETATM    1  C1  UNL     1       8.279   6.744  -4.123  1.00  0.00     0.026 A 
HETATM    2  C2  UNL     1       9.347   7.363  -4.776  1.00  0.00     0.038 A 
HETATM    3  C3  UNL     1      10.044   6.675  -5.759  1.00  0.00     0.065 A 
HETATM    4  C4  UNL     1       9.677   5.381  -6.112  1.00  0.00     0.038 A 
HETATM    5  C5  UNL     1       8.607   4.768  -5.454  1.00  0.00     0.026 A 
HETATM    6  C6  UNL     1       7.931   5.423  -4.420  1.00  0.00     0.005 A 
ENDROOT
BRANCH   6   7
HETATM    7  N1  UNL     1       6.789   4.849  -3.850  1.00  0.00    -0.303 NA
HETATM    8  H5  UNL     1       5.929   5.084  -4.335  1.00  0.00     0.124 HD
HETATM    9  H6  UNL     1       6.717   4.987  -2.847  1.00  0.00     0.124 HD
ENDBRANCH   6   7
BRANCH   3  10
HETATM   10  O1  UNL     1      11.078   7.314  -6.375  1.00  0.00    -0.361 OA
HETATM   11  H7  UNL     1      11.858   7.267  -5.799  1.00  0.00     0.217 HD
ENDBRANCH   3  10
TORSDOF 2
ENDMDL
MODEL 14
REMARK VINA RESULT:      -3.5      6.205      7.042
REMARK  2 active torsions:
REMARK  status: ('A' for Active; 'I' for Inactive)
REMARK    1  A    between atoms: C3_3  and  O1_8 
REMARK    2  A    between atoms: C6_6  and  N1_7 
ROOT
HETATM    1  C1  UNL     1      15.398   7.222  -7.844  1.00  0.00     0.026 A 
HETATM    2  C2  UNL     1      15.677   7.545  -6.514  1.00  0.00     0.038 A 
HETATM    3  C3  UNL     1      15.123   6.788  -5.491  1.00  0.00     0.065 A 
HETATM    4  C4  UNL     1      14.306   5.700  -5.779  1.00  0.00     0.038 A 
HETATM    5  C5  UNL     1      14.031   5.383  -7.113  1.00  0.00     0.026 A 
HETATM    6  C6  UNL     1      14.532   6.170  -8.155  1.00  0.00     0.005 A 
ENDROOT
BRANCH   6   7
HETATM    7  N1  UNL     1      14.350   5.776  -9.485  1.00  0.00    -0.303 NA
HETATM    8  H5  UNL     1      13.672   5.029  -9.600  1.00  0.00     0.124 HD
HETATM    9  H6  UNL     1      15.215   5.592  -9.981  1.00  0.00     0.124 HD
ENDBRANCH   6   7
BRANCH   3  10
HETATM   10  O1  UNL     1      15.421   7.133  -4.207  1.00  0.00    -0.361 OA
HETATM   11  H7  UNL     1      15.133   6.417  -3.619  1.00  0.00     0.217 HD
ENDBRANCH   3  10
TORSDOF 2
ENDMDL
MODEL 15
REMARK VINA RESULT:      -3.4      6.301      6.782
REMARK  2 active torsions:
REMARK  status: ('A' for Active; 'I' for Inactive)
REMARK    1  A    between atoms: C3_3  and  O1_8 
REMARK    2  A    between atoms: C6_6  and  N1_7 
ROOT
HETATM    1  C1  UNL     1      14.374   7.152  -7.168  1.00  0.00     0.026 A 
HETATM    2  C2  UNL     1      14.533   6.061  -6.312  1.00  0.00     0.038 A 
HETATM    3  C3  UNL     1      15.107   6.245  -5.062  1.00  0.00     0.065 A 
HETATM    4  C4  UNL     1      15.510   7.509  -4.648  1.00  0.00     0.038 A 
HETATM    5  C5  UNL     1      15.349   8.597  -5.511  1.00  0.00     0.026 A 
HETATM    6  C6  UNL     1      14.827   8.422  -6.796  1.00  0.00     0.005 A 
ENDROOT
BRANCH   6   7
HETATM    7  N1  UNL     1      14.560   9.531  -7.606  1.00  0.00    -0.303 NA
HETATM    8  H5  UNL     1      14.777  10.420  -7.165  1.00  0.00     0.124 HD
HETATM    9  H6  UNL     1      13.635   9.523  -8.022  1.00  0.00     0.124 HD
ENDBRANCH   6   7
BRANCH   3  10
HETATM   10  O1  UNL     1      15.242   5.155  -4.255  1.00  0.00    -0.361 OA
HETATM   11  H7  UNL     1      16.185   4.935  -4.187  1.00  0.00     0.217 HD
ENDBRANCH   3  10
TORSDOF 2
ENDMDL
MODEL 16
REMARK VINA RESULT:      -3.4      6.463      7.032
REMARK  2 active torsions:
REMARK  status: ('A' for Active; 'I' for Inactive)
REMARK    1  A    between atoms: C3_3  and  O1_8 
REMARK    2  A    between atoms: C6_6  and  N1_7 
ROOT
HETATM    1  C1  UNL     1      14.564   5.833  -5.637  1.00  0.00     0.026 A 
HETATM    2  C2  UNL     1      14.246   5.377  -6.918  1.00  0.00     0.038 A 
HETATM    3  C3  UNL     1      14.451   6.205  -8.013  1.00  0.00     0.065 A 
HETATM    4  C4  UNL     1      14.984   7.479  -7.847  1.00  0.00     0.038 A 
HETATM    5  C5  UNL     1      15.298   7.928  -6.562  1.00  0.00     0.026 A 
HETATM    6  C6  UNL     1      15.045   7.131  -5.441  1.00  0.00     0.005 A 
ENDROOT
BRANCH   6   7
HETATM    7  N1  UNL     1      15.472   7.542  -4.173  1.00  0.00    -0.303 NA
HETATM    8  H5  UNL     1      16.081   8.354  -4.191  1.00  0.00     0.124 HD
HETATM    9  H6  UNL     1      15.846   6.791  -3.603  1.00  0.00     0.124 HD
ENDBRANCH   6   7
BRANCH   3  10
HETATM   10  O1  UNL     1      14.131   5.723  -9.246  1.00  0.00    -0.361 OA
HETATM   11  H7  UNL     1      13.595   6.387  -9.709  1.00  0.00     0.217 HD
ENDBRANCH   3  10
TORSDOF 2
ENDMDL
MODEL 17
REMARK VINA RESULT:      -3.3      6.318      7.140
REMARK  2 active torsions:
REMARK  status: ('A' for Active; 'I' for Inactive)
REMARK    1  A    between atoms: C3_3  and  O1_8 
REMARK    2  A    between atoms: C6_6  and  N1_7 
ROOT
HETATM    1  C1  UNL     1      13.547   6.881  -6.254  1.00  0.00     0.026 A 
HETATM    2  C2  UNL     1      14.222   8.083  -6.475  1.00  0.00     0.038 A 
HETATM    3  C3  UNL     1      15.016   8.229  -7.603  1.00  0.00     0.065 A 
HETATM    4  C4  UNL     1      15.134   7.194  -8.525  1.00  0.00     0.038 A 
HETATM    5  C5  UNL     1      14.457   5.993  -8.296  1.00  0.00     0.026 A 
HETATM    6  C6  UNL     1      13.699   5.806  -7.136  1.00  0.00     0.005 A 
ENDROOT
BRANCH   6   7
HETATM    7  N1  UNL     1      12.930   4.648  -6.974  1.00  0.00    -0.303 NA
HETATM    8  H5  UNL     1      12.376   4.641  -6.124  1.00  0.00     0.124 HD
HETATM    9  H6  UNL     1      13.453   3.788  -7.102  1.00  0.00     0.124 HD
ENDBRANCH   6   7
BRANCH   3  10
HETATM   10  O1  UNL     1      15.656   9.418  -7.785  1.00  0.00    -0.361 OA
HETATM   11  H7  UNL     1      16.316   9.526  -7.081  1.00  0.00     0.217 HD
ENDBRANCH   3  10
TORSDOF 2
ENDMDL
MODEL 18
REMARK VINA RESULT:      -3.0      3.351      3.950
REMARK  2 active torsions:
REMARK  status: ('A' for Active; 'I' for Inactive)
REMARK    1  A    between atoms: C3_3  and  O1_8 
REMARK    2  A    between atoms: C6_6  and  N1_7 
ROOT
HETATM    1  C1  UNL     1      10.194   6.674  -6.053  1.00  0.00     0.026 A 
HETATM    2  C2  UNL     1      11.528   7.081  -6.117  1.00  0.00     0.038 A 
HETATM    3  C3  UNL     1      12.502   6.181  -6.528  1.00  0.00     0.065 A 
HETATM    4  C4  UNL     1      12.159   4.884  -6.891  1.00  0.00     0.038 A 
HETATM    5  C5  UNL     1      10.821   4.484  -6.823  1.00  0.00     0.026 A 
HETATM    6  C6  UNL     1       9.834   5.358  -6.356  1.00  0.00     0.005 A 
ENDROOT
BRANCH   6   7
HETATM    7  N1  UNL     1       8.485   4.988  -6.404  1.00  0.00    -0.303 NA
HETATM    8  H5  UNL     1       8.336   3.984  -6.368  1.00  0.00     0.124 HD
HETATM    9  H6  UNL     1       7.965   5.430  -7.154  1.00  0.00     0.124 HD
ENDBRANCH   6   7
BRANCH   3  10
HETATM   10  O1  UNL     1      13.792   6.617  -6.580  1.00  0.00    -0.361 OA
HETATM   11  H7  UNL     1      14.140   6.665  -5.675  1.00  0.00     0.217 HD
ENDBRANCH   3  10
TORSDOF 2
ENDMDL
MODEL 19
REMARK VINA RESULT:      -2.9      6.971      7.180
REMARK  2 active torsions:
REMARK  status: ('A' for Active; 'I' for Inactive)
REMARK    1  A    between atoms: C3_3  and  O1_8 
REMARK    2  A    between atoms: C6_6  and  N1_7 
ROOT
HETATM    1  C1  UNL     1      14.338   9.015  -6.217  1.00  0.00     0.026 A 
HETATM    2  C2  UNL     1      14.758   9.264  -4.908  1.00  0.00     0.038 A 
HETATM    3  C3  UNL     1      15.394   8.263  -4.188  1.00  0.00     0.065 A 
HETATM    4  C4  UNL     1      15.632   7.019  -4.763  1.00  0.00     0.038 A 
HETATM    5  C5  UNL     1      15.206   6.777  -6.072  1.00  0.00     0.026 A 
HETATM    6  C6  UNL     1      14.512   7.753  -6.793  1.00  0.00     0.005 A 
ENDROOT
BRANCH   6   7
HETATM    7  N1  UNL     1      14.196   7.544  -8.141  1.00  0.00    -0.303 NA
HETATM    8  H5  UNL     1      15.008   7.518  -8.750  1.00  0.00     0.124 HD
HETATM    9  H6  UNL     1      13.469   8.157  -8.492  1.00  0.00     0.124 HD
ENDBRANCH   6   7
BRANCH   3  10
HETATM   10  O1  UNL     1      15.792   8.546  -2.916  1.00  0.00    -0.361 OA
HETATM   11  H7  UNL     1      16.742   8.359  -2.839  1.00  0.00     0.217 HD
ENDBRANCH   3  10
TORSDOF 2
ENDMDL
MODEL 20
REMARK VINA RESULT:       0.3      2.157      3.150
REMARK  2 active torsions:
REMARK  status: ('A' for Active; 'I' for Inactive)
REMARK    1  A    between atoms: C3_3  and  O1_8 
REMARK    2  A    between atoms: C6_6  and  N1_7 
ROOT
HETATM    1  C1  UNL     1      10.284   2.893  -4.814  1.00  0.00     0.026 A 
HETATM    2  C2  UNL     1      10.463   1.580  -4.373  1.00  0.00     0.038 A 
HETATM    3  C3  UNL     1      10.048   1.220  -3.099  1.00  0.00     0.065 A 
HETATM    4  C4  UNL     1       9.441   2.150  -2.262  1.00  0.00     0.038 A 
HETATM    5  C5  UNL     1       9.267   3.463  -2.710  1.00  0.00     0.026 A 
HETATM    6  C6  UNL     1       9.731   3.859  -3.968  1.00  0.00     0.005 A 
ENDROOT
BRANCH   6   7
HETATM    7  N1  UNL     1       9.446   5.141  -4.453  1.00  0.00    -0.303 NA
HETATM    8  H5  UNL     1       8.472   5.408  -4.350  1.00  0.00     0.124 HD
HETATM    9  H6  UNL     1       9.798   5.314  -5.388  1.00  0.00     0.124 HD
ENDBRANCH   6   7
BRANCH   3  10
HETATM   10  O1  UNL     1      10.238  -0.072  -2.707  1.00  0.00    -0.361 OA
HETATM   11  H7  UNL     1      10.989  -0.438  -3.200  1.00  0.00     0.217 HD
ENDBRANCH   3  10
TORSDOF 2
ENDMDL
