MODEL 1
REMARK VINA RESULT:      -7.4      0.000      0.000
REMARK  27 active torsions:
REMARK  status: ('A' for Active; 'I' for Inactive)
REMARK    1  A    between atoms: C2_2  and  S1_4 
REMARK    2  A    between atoms: S1_4  and  C3_5 
REMARK    3  A    between atoms: C3_5  and  C4_6 
REMARK    4  A    between atoms: C4_6  and  N1_7 
REMARK       I    between atoms: N1_7  and  C5_8 
REMARK    5  A    between atoms: C5_8  and  C6_10 
REMARK    6  A    between atoms: C6_10  and  C7_11 
REMARK    7  A    between atoms: C7_11  and  N2_12 
REMARK       I    between atoms: N2_12  and  C8_13 
REMARK    8  A    between atoms: C8_13  and  C9_15 
REMARK    9  A    between atoms: C9_15  and  C10_16 
REMARK   10  A    between atoms: C9_15  and  O17_54 
REMARK   11  A    between atoms: C10_16  and  C13_19 
REMARK   12  A    between atoms: C13_19  and  O4_20 
REMARK   13  A    between atoms: O4_20  and  P1_21 
REMARK   14  A    between atoms: P1_21  and  O6_23 
REMARK   15  A    between atoms: P1_21  and  O7_24 
REMARK   16  A    between atoms: O7_24  and  P2_25 
REMARK   17  A    between atoms: P2_25  and  O9_27 
REMARK   18  A    between atoms: P2_25  and  O10_28 
REMARK   19  A    between atoms: O10_28  and  C14_29 
REMARK   20  A    between atoms: C14_29  and  C15_30 
REMARK   21  A    between atoms: C16_31  and  O13_49 
REMARK   22  A    between atoms: C17_32  and  O12_48 
REMARK   23  A    between atoms: C18_33  and  N3_35 
REMARK   24  A    between atoms: C21_40  and  N7_47 
REMARK   25  A    between atoms: O13_49  and  P3_50 
REMARK   26  A    between atoms: P3_50  and  O15_52 
REMARK   27  A    between atoms: P3_50  and  O16_53 
ROOT
HETATM    1  C1  UNL     1       8.664   9.120  -3.916  1.00  0.00     0.104 C 
HETATM    2  C2  UNL     1       7.509  10.062  -4.066  1.00  0.00     0.182 C 
HETATM    3  O1  UNL     1       7.298  10.998  -3.299  1.00  0.00    -0.286 OA
ENDROOT
BRANCH   2   4
HETATM    4  S1  UNL     1       6.444   9.695  -5.417  1.00  0.00    -0.091 SA
BRANCH   4   5
HETATM    5  C3  UNL     1       6.137  11.375  -6.052  1.00  0.00     0.102 C 
BRANCH   5   6
HETATM    6  C4  UNL     1       7.207  11.809  -7.056  1.00  0.00     0.133 C 
BRANCH   6   7
HETATM    7  N1  UNL     1       8.004  12.920  -6.578  1.00  0.00    -0.360 N 
HETATM    8  C5  UNL     1       8.291  14.002  -7.377  1.00  0.00     0.219 C 
HETATM    9  O2  UNL     1       7.962  14.057  -8.557  1.00  0.00    -0.274 OA
HETATM   10  H8  UNL     1       8.350  12.898  -5.628  1.00  0.00     0.162 HD
BRANCH   8  11
HETATM   11  C6  UNL     1       9.088  15.076  -6.669  1.00  0.00     0.122 C 
BRANCH  11  12
HETATM   12  C7  UNL     1       9.378  14.706  -5.215  1.00  0.00     0.132 C 
BRANCH  12  13
HETATM   13  N2  UNL     1      10.761  14.347  -4.985  1.00  0.00    -0.358 N 
HETATM   14  C8  UNL     1      11.103  13.039  -4.698  1.00  0.00     0.247 C 
HETATM   15  O3  UNL     1      10.259  12.171  -4.512  1.00  0.00    -0.271 OA
HETATM   16  H13 UNL     1      11.448  14.909  -5.483  1.00  0.00     0.162 HD
BRANCH  14  17
HETATM   17  C9  UNL     1      12.613  12.762  -4.653  1.00  0.00     0.219 C 
BRANCH  17  18
HETATM   18  C10 UNL     1      13.183  12.534  -3.228  1.00  0.00     0.009 C 
HETATM   19  C11 UNL     1      12.472  13.398  -2.176  1.00  0.00     0.020 C 
HETATM   20  C12 UNL     1      13.054  11.059  -2.797  1.00  0.00     0.020 C 
BRANCH  18  21
HETATM   21  C13 UNL     1      14.685  12.931  -3.301  1.00  0.00     0.192 C 
BRANCH  21  22
HETATM   22  O4  UNL     1      15.365  12.273  -4.351  1.00  0.00    -0.296 OA
BRANCH  22  23
HETATM   23  P1  UNL     1      16.603  11.285  -4.102  1.00  0.00     0.401 P 
HETATM   24  O5  UNL     1      17.447  11.647  -2.921  1.00  0.00    -0.631 OA
BRANCH  23  25
HETATM   25  O6  UNL     1      17.422  11.208  -5.486  1.00  0.00    -0.307 OA
HETATM   26  H23 UNL     1      17.223  10.402  -5.979  1.00  0.00     0.222 HD
ENDBRANCH  23  25
BRANCH  23  27
HETATM   27  O7  UNL     1      15.962   9.830  -4.041  1.00  0.00    -0.195 OA
BRANCH  27  28
HETATM   28  P2  UNL     1      15.680   9.055  -5.404  1.00  0.00     0.401 P 
HETATM   29  O8  UNL     1      14.984   9.818  -6.484  1.00  0.00    -0.631 OA
BRANCH  28  30
HETATM   30  O9  UNL     1      17.120   8.506  -5.819  1.00  0.00    -0.307 OA
HETATM   31  H24 UNL     1      17.633   8.114  -5.070  1.00  0.00     0.222 HD
ENDBRANCH  28  30
BRANCH  28  32
HETATM   32  O10 UNL     1      14.972   7.702  -4.939  1.00  0.00    -0.294 OA
BRANCH  32  33
HETATM   33  C14 UNL     1      15.744   6.559  -4.679  1.00  0.00     0.215 C 
BRANCH  33  34
HETATM   34  C15 UNL     1      15.224   5.470  -5.616  1.00  0.00     0.180 C 
HETATM   35  C16 UNL     1      15.441   5.889  -7.064  1.00  0.00     0.197 C 
HETATM   36  C17 UNL     1      14.046   5.978  -7.652  1.00  0.00     0.199 C 
HETATM   37  C18 UNL     1      13.257   5.018  -6.758  1.00  0.00     0.262 C 
HETATM   38  O11 UNL     1      13.827   5.205  -5.444  1.00  0.00    -0.353 OA
BRANCH  35  39
HETATM   39  O13 UNL     1      16.229   4.888  -7.699  1.00  0.00    -0.286 OA
BRANCH  39  40
HETATM   40  P3  UNL     1      17.538   5.415  -8.451  1.00  0.00     0.391 P 
HETATM   41  O14 UNL     1      18.031   6.734  -7.949  1.00  0.00    -0.632 OA
BRANCH  40  42
HETATM   42  O15 UNL     1      17.061   5.333  -9.976  1.00  0.00    -0.307 OA
HETATM   43  H36 UNL     1      17.419   4.523 -10.410  1.00  0.00     0.222 HD
ENDBRANCH  40  42
BRANCH  40  44
HETATM   44  O16 UNL     1      18.509   4.164  -8.308  1.00  0.00    -0.307 OA
HETATM   45  H37 UNL     1      18.794   4.011  -7.393  1.00  0.00     0.222 HD
ENDBRANCH  40  44
ENDBRANCH  39  40
ENDBRANCH  35  39
BRANCH  36  46
HETATM   46  O12 UNL     1      14.079   5.693  -9.053  1.00  0.00    -0.388 OA
HETATM   47  H35 UNL     1      14.804   5.036  -9.186  1.00  0.00     0.210 HD
ENDBRANCH  36  46
BRANCH  37  48
HETATM   48  N3  UNL     1      11.845   5.340  -6.705  1.00  0.00    -0.297 N 
HETATM   49  C19 UNL     1      11.137   6.120  -7.589  1.00  0.00     0.188 A 
HETATM   50  N4  UNL     1       9.846   6.116  -7.334  1.00  0.00    -0.346 N 
HETATM   51  C20 UNL     1       9.711   5.288  -6.234  1.00  0.00     0.116 A 
HETATM   52  H4  UNL     1       9.110   6.612  -7.836  1.00  0.00     0.167 HD
HETATM   53  C21 UNL     1       8.592   4.843  -5.508  1.00  0.00     0.109 A 
HETATM   54  C23 UNL     1      10.946   4.832  -5.810  1.00  0.00     0.142 A 
HETATM   55  N5  UNL     1       8.791   4.025  -4.446  1.00  0.00    -0.341 N 
HETATM   56  C22 UNL     1      10.056   3.681  -4.134  1.00  0.00     0.183 A 
HETATM   57  H5  UNL     1       8.003   3.679  -3.898  1.00  0.00     0.167 HD
HETATM   58  N6  UNL     1      11.199   4.035  -4.756  1.00  0.00    -0.336 N 
HETATM   59  H6  UNL     1      12.131   3.739  -4.467  1.00  0.00     0.168 HD
BRANCH  53  60
HETATM   60  N7  UNL     1       7.290   5.206  -5.816  1.00  0.00    -0.287 NA
HETATM   61  H33 UNL     1       6.673   5.275  -5.010  1.00  0.00     0.125 HD
HETATM   62  H34 UNL     1       6.928   4.724  -6.628  1.00  0.00     0.125 HD
ENDBRANCH  53  60
ENDBRANCH  37  48
ENDBRANCH  33  34
ENDBRANCH  32  33
ENDBRANCH  28  32
ENDBRANCH  27  28
ENDBRANCH  23  27
ENDBRANCH  22  23
ENDBRANCH  21  22
ENDBRANCH  18  21
ENDBRANCH  17  18
BRANCH  17  63
HETATM   63  O17 UNL     1      12.929  11.620  -5.457  1.00  0.00    -0.385 OA
HETATM   64  H38 UNL     1      12.930  11.898  -6.388  1.00  0.00     0.210 HD
ENDBRANCH  17  63
ENDBRANCH  14  17
ENDBRANCH  12  13
ENDBRANCH  11  12
ENDBRANCH   8  11
ENDBRANCH   6   7
ENDBRANCH   5   6
ENDBRANCH   4   5
ENDBRANCH   2   4
TORSDOF 27
ENDMDL
MODEL 2
REMARK VINA RESULT:      -7.0      1.642      2.761
REMARK  27 active torsions:
REMARK  status: ('A' for Active; 'I' for Inactive)
REMARK    1  A    between atoms: C2_2  and  S1_4 
REMARK    2  A    between atoms: S1_4  and  C3_5 
REMARK    3  A    between atoms: C3_5  and  C4_6 
REMARK    4  A    between atoms: C4_6  and  N1_7 
REMARK       I    between atoms: N1_7  and  C5_8 
REMARK    5  A    between atoms: C5_8  and  C6_10 
REMARK    6  A    between atoms: C6_10  and  C7_11 
REMARK    7  A    between atoms: C7_11  and  N2_12 
REMARK       I    between atoms: N2_12  and  C8_13 
REMARK    8  A    between atoms: C8_13  and  C9_15 
REMARK    9  A    between atoms: C9_15  and  C10_16 
REMARK   10  A    between atoms: C9_15  and  O17_54 
REMARK   11  A    between atoms: C10_16  and  C13_19 
REMARK   12  A    between atoms: C13_19  and  O4_20 
REMARK   13  A    between atoms: O4_20  and  P1_21 
REMARK   14  A    between atoms: P1_21  and  O6_23 
REMARK   15  A    between atoms: P1_21  and  O7_24 
REMARK   16  A    between atoms: O7_24  and  P2_25 
REMARK   17  A    between atoms: P2_25  and  O9_27 
REMARK   18  A    between atoms: P2_25  and  O10_28 
REMARK   19  A    between atoms: O10_28  and  C14_29 
REMARK   20  A    between atoms: C14_29  and  C15_30 
REMARK   21  A    between atoms: C16_31  and  O13_49 
REMARK   22  A    between atoms: C17_32  and  O12_48 
REMARK   23  A    between atoms: C18_33  and  N3_35 
REMARK   24  A    between atoms: C21_40  and  N7_47 
REMARK   25  A    between atoms: O13_49  and  P3_50 
REMARK   26  A    between atoms: P3_50  and  O15_52 
REMARK   27  A    between atoms: P3_50  and  O16_53 
ROOT
HETATM    1  C1  UNL     1       7.198  11.907  -6.633  1.00  0.00     0.104 C 
HETATM    2  C2  UNL     1       6.809  11.008  -5.499  1.00  0.00     0.182 C 
HETATM    3  O1  UNL     1       5.704  10.480  -5.405  1.00  0.00    -0.286 OA
ENDROOT
BRANCH   2   4
HETATM    4  S1  UNL     1       8.058  10.798  -4.279  1.00  0.00    -0.091 SA
BRANCH   4   5
HETATM    5  C3  UNL     1       8.943  12.381  -4.446  1.00  0.00     0.102 C 
BRANCH   5   6
HETATM    6  C4  UNL     1      10.456  12.208  -4.297  1.00  0.00     0.133 C 
BRANCH   6   7
HETATM    7  N1  UNL     1      11.171  13.466  -4.345  1.00  0.00    -0.360 N 
HETATM    8  C5  UNL     1      12.475  13.542  -4.777  1.00  0.00     0.219 C 
HETATM    9  O2  UNL     1      13.133  12.549  -5.067  1.00  0.00    -0.274 OA
HETATM   10  H8  UNL     1      10.692  14.309  -4.060  1.00  0.00     0.162 HD
BRANCH   8  11
HETATM   11  C6  UNL     1      13.017  14.955  -4.803  1.00  0.00     0.122 C 
BRANCH  11  12
HETATM   12  C7  UNL     1      13.318  15.476  -3.398  1.00  0.00     0.132 C 
BRANCH  12  13
HETATM   13  N2  UNL     1      14.212  14.615  -2.652  1.00  0.00    -0.358 N 
HETATM   14  C8  UNL     1      13.922  14.277  -1.343  1.00  0.00     0.247 C 
HETATM   15  O3  UNL     1      12.984  14.774  -0.734  1.00  0.00    -0.271 OA
HETATM   16  H13 UNL     1      14.728  13.934  -3.206  1.00  0.00     0.162 HD
BRANCH  14  17
HETATM   17  C9  UNL     1      14.853  13.220  -0.730  1.00  0.00     0.219 C 
BRANCH  17  18
HETATM   18  C10 UNL     1      14.320  11.766  -0.814  1.00  0.00     0.009 C 
HETATM   19  C11 UNL     1      13.896  11.225   0.559  1.00  0.00     0.020 C 
HETATM   20  C12 UNL     1      13.106  11.663  -1.760  1.00  0.00     0.020 C 
BRANCH  18  21
HETATM   21  C13 UNL     1      15.494  10.912  -1.373  1.00  0.00     0.192 C 
BRANCH  21  22
HETATM   22  O4  UNL     1      15.399  10.714  -2.769  1.00  0.00    -0.296 OA
BRANCH  22  23
HETATM   23  P1  UNL     1      16.466  11.310  -3.807  1.00  0.00     0.401 P 
HETATM   24  O5  UNL     1      17.855  11.418  -3.263  1.00  0.00    -0.631 OA
BRANCH  23  25
HETATM   25  O6  UNL     1      15.867  12.706  -4.340  1.00  0.00    -0.307 OA
HETATM   26  H23 UNL     1      15.994  12.814  -5.292  1.00  0.00     0.222 HD
ENDBRANCH  23  25
BRANCH  23  27
HETATM   27  O7  UNL     1      16.329  10.399  -5.105  1.00  0.00    -0.195 OA
BRANCH  27  28
HETATM   28  P2  UNL     1      17.209   9.076  -5.213  1.00  0.00     0.401 P 
HETATM   29  O8  UNL     1      18.473   9.167  -6.005  1.00  0.00    -0.631 OA
BRANCH  28  30
HETATM   30  O9  UNL     1      17.426   8.654  -3.689  1.00  0.00    -0.307 OA
HETATM   31  H24 UNL     1      17.548   9.416  -3.072  1.00  0.00     0.222 HD
ENDBRANCH  28  30
BRANCH  28  32
HETATM   32  O10 UNL     1      16.170   7.958  -5.683  1.00  0.00    -0.294 OA
BRANCH  32  33
HETATM   33  C14 UNL     1      15.608   7.082  -4.742  1.00  0.00     0.215 C 
BRANCH  33  34
HETATM   34  C15 UNL     1      15.156   5.849  -5.524  1.00  0.00     0.180 C 
HETATM   35  C16 UNL     1      15.370   6.077  -7.014  1.00  0.00     0.197 C 
HETATM   36  C17 UNL     1      13.979   6.011  -7.617  1.00  0.00     0.199 C 
HETATM   37  C18 UNL     1      13.230   5.143  -6.604  1.00  0.00     0.262 C 
HETATM   38  O11 UNL     1      13.773   5.538  -5.325  1.00  0.00    -0.353 OA
BRANCH  35  39
HETATM   39  O13 UNL     1      16.216   5.041  -7.502  1.00  0.00    -0.286 OA
BRANCH  39  40
HETATM   40  P3  UNL     1      17.351   5.504  -8.529  1.00  0.00     0.391 P 
HETATM   41  O14 UNL     1      16.939   5.417  -9.962  1.00  0.00    -0.632 OA
BRANCH  40  42
HETATM   42  O15 UNL     1      18.575   4.591  -8.053  1.00  0.00    -0.307 OA
HETATM   43  H36 UNL     1      19.377   5.142  -7.886  1.00  0.00     0.222 HD
ENDBRANCH  40  42
BRANCH  40  44
HETATM   44  O16 UNL     1      17.727   6.940  -7.956  1.00  0.00    -0.307 OA
HETATM   45  H37 UNL     1      18.173   7.500  -8.610  1.00  0.00     0.222 HD
ENDBRANCH  40  44
ENDBRANCH  39  40
ENDBRANCH  35  39
BRANCH  36  46
HETATM   46  O12 UNL     1      14.045   5.539  -8.965  1.00  0.00    -0.388 OA
HETATM   47  H35 UNL     1      13.124   5.577  -9.318  1.00  0.00     0.210 HD
ENDBRANCH  36  46
BRANCH  37  48
HETATM   48  N3  UNL     1      11.803   5.395  -6.603  1.00  0.00    -0.297 N 
HETATM   49  C19 UNL     1      11.091   6.149  -7.507  1.00  0.00     0.188 A 
HETATM   50  N4  UNL     1       9.794   6.078  -7.303  1.00  0.00    -0.346 N 
HETATM   51  C20 UNL     1       9.657   5.234  -6.215  1.00  0.00     0.116 A 
HETATM   52  H4  UNL     1       9.054   6.543  -7.829  1.00  0.00     0.167 HD
HETATM   53  C21 UNL     1       8.534   4.727  -5.538  1.00  0.00     0.109 A 
HETATM   54  C23 UNL     1      10.896   4.834  -5.747  1.00  0.00     0.142 A 
HETATM   55  N5  UNL     1       8.732   3.908  -4.476  1.00  0.00    -0.341 N 
HETATM   56  C22 UNL     1      10.000   3.623  -4.118  1.00  0.00     0.183 A 
HETATM   57  H5  UNL     1       7.942   3.518  -3.962  1.00  0.00     0.167 HD
HETATM   58  N6  UNL     1      11.147   4.040  -4.692  1.00  0.00    -0.336 N 
HETATM   59  H6  UNL     1      12.081   3.786  -4.369  1.00  0.00     0.168 HD
BRANCH  53  60
HETATM   60  N7  UNL     1       7.229   5.029  -5.894  1.00  0.00    -0.287 NA
HETATM   61  H33 UNL     1       6.534   4.766  -5.198  1.00  0.00     0.125 HD
HETATM   62  H34 UNL     1       7.020   4.800  -6.856  1.00  0.00     0.125 HD
ENDBRANCH  53  60
ENDBRANCH  37  48
ENDBRANCH  33  34
ENDBRANCH  32  33
ENDBRANCH  28  32
ENDBRANCH  27  28
ENDBRANCH  23  27
ENDBRANCH  22  23
ENDBRANCH  21  22
ENDBRANCH  18  21
ENDBRANCH  17  18
BRANCH  17  63
HETATM   63  O17 UNL     1      16.138  13.270  -1.360  1.00  0.00    -0.385 OA
HETATM   64  H38 UNL     1      16.696  12.580  -0.964  1.00  0.00     0.210 HD
ENDBRANCH  17  63
ENDBRANCH  14  17
ENDBRANCH  12  13
ENDBRANCH  11  12
ENDBRANCH   8  11
ENDBRANCH   6   7
ENDBRANCH   5   6
ENDBRANCH   4   5
ENDBRANCH   2   4
TORSDOF 27
ENDMDL
MODEL 3
REMARK VINA RESULT:      -6.5      3.885      8.567
REMARK  27 active torsions:
REMARK  status: ('A' for Active; 'I' for Inactive)
REMARK    1  A    between atoms: C2_2  and  S1_4 
REMARK    2  A    between atoms: S1_4  and  C3_5 
REMARK    3  A    between atoms: C3_5  and  C4_6 
REMARK    4  A    between atoms: C4_6  and  N1_7 
REMARK       I    between atoms: N1_7  and  C5_8 
REMARK    5  A    between atoms: C5_8  and  C6_10 
REMARK    6  A    between atoms: C6_10  and  C7_11 
REMARK    7  A    between atoms: C7_11  and  N2_12 
REMARK       I    between atoms: N2_12  and  C8_13 
REMARK    8  A    between atoms: C8_13  and  C9_15 
REMARK    9  A    between atoms: C9_15  and  C10_16 
REMARK   10  A    between atoms: C9_15  and  O17_54 
REMARK   11  A    between atoms: C10_16  and  C13_19 
REMARK   12  A    between atoms: C13_19  and  O4_20 
REMARK   13  A    between atoms: O4_20  and  P1_21 
REMARK   14  A    between atoms: P1_21  and  O6_23 
REMARK   15  A    between atoms: P1_21  and  O7_24 
REMARK   16  A    between atoms: O7_24  and  P2_25 
REMARK   17  A    between atoms: P2_25  and  O9_27 
REMARK   18  A    between atoms: P2_25  and  O10_28 
REMARK   19  A    between atoms: O10_28  and  C14_29 
REMARK   20  A    between atoms: C14_29  and  C15_30 
REMARK   21  A    between atoms: C16_31  and  O13_49 
REMARK   22  A    between atoms: C17_32  and  O12_48 
REMARK   23  A    between atoms: C18_33  and  N3_35 
REMARK   24  A    between atoms: C21_40  and  N7_47 
REMARK   25  A    between atoms: O13_49  and  P3_50 
REMARK   26  A    between atoms: P3_50  and  O15_52 
REMARK   27  A    between atoms: P3_50  and  O16_53 
ROOT
HETATM    1  C1  UNL     1       8.048  10.838  -3.921  1.00  0.00     0.104 C 
HETATM    2  C2  UNL     1       7.619   9.553  -4.560  1.00  0.00     0.182 C 
HETATM    3  O1  UNL     1       6.742   9.486  -5.418  1.00  0.00    -0.286 OA
ENDROOT
BRANCH   2   4
HETATM    4  S1  UNL     1       8.451   8.128  -3.952  1.00  0.00    -0.091 SA
BRANCH   4   5
HETATM    5  C3  UNL     1       9.419   7.665  -5.424  1.00  0.00     0.102 C 
BRANCH   5   6
HETATM    6  C4  UNL     1       9.270   6.180  -5.760  1.00  0.00     0.133 C 
BRANCH   6   7
HETATM    7  N1  UNL     1      10.544   5.523  -5.971  1.00  0.00    -0.360 N 
HETATM    8  C5  UNL     1      11.213   5.609  -7.169  1.00  0.00     0.219 C 
HETATM    9  O2  UNL     1      10.741   6.173  -8.150  1.00  0.00    -0.274 OA
HETATM   10  H8  UNL     1      10.950   4.995  -5.211  1.00  0.00     0.162 HD
BRANCH   8  11
HETATM   11  C6  UNL     1      12.550   4.899  -7.161  1.00  0.00     0.122 C 
BRANCH  11  12
HETATM   12  C7  UNL     1      13.665   5.775  -7.731  1.00  0.00     0.132 C 
BRANCH  12  13
HETATM   13  N2  UNL     1      14.925   5.612  -7.037  1.00  0.00    -0.358 N 
HETATM   14  C8  UNL     1      15.218   6.391  -5.932  1.00  0.00     0.247 C 
HETATM   15  O3  UNL     1      14.495   7.312  -5.574  1.00  0.00    -0.271 OA
HETATM   16  H13 UNL     1      15.322   4.676  -7.065  1.00  0.00     0.162 HD
BRANCH  14  17
HETATM   17  C9  UNL     1      16.502   5.996  -5.188  1.00  0.00     0.219 C 
BRANCH  17  18
HETATM   18  C10 UNL     1      17.800   6.611  -5.774  1.00  0.00     0.009 C 
HETATM   19  C11 UNL     1      19.008   6.402  -4.848  1.00  0.00     0.020 C 
HETATM   20  C12 UNL     1      18.143   6.002  -7.148  1.00  0.00     0.020 C 
BRANCH  18  21
HETATM   21  C13 UNL     1      17.519   8.133  -5.929  1.00  0.00     0.192 C 
BRANCH  21  22
HETATM   22  O4  UNL     1      17.602   8.824  -4.700  1.00  0.00    -0.296 OA
BRANCH  22  23
HETATM   23  P1  UNL     1      17.733  10.420  -4.605  1.00  0.00     0.401 P 
HETATM   24  O5  UNL     1      17.618  11.122  -5.921  1.00  0.00    -0.631 OA
BRANCH  23  25
HETATM   25  O6  UNL     1      19.104  10.729  -3.821  1.00  0.00    -0.307 OA
HETATM   26  H23 UNL     1      19.080  10.409  -2.910  1.00  0.00     0.222 HD
ENDBRANCH  23  25
BRANCH  23  27
HETATM   27  O7  UNL     1      16.652  10.857  -3.522  1.00  0.00    -0.195 OA
BRANCH  27  28
HETATM   28  P2  UNL     1      15.140  10.394  -3.713  1.00  0.00     0.401 P 
HETATM   29  O8  UNL     1      14.541  10.580  -5.069  1.00  0.00    -0.631 OA
BRANCH  28  30
HETATM   30  O9  UNL     1      15.154   8.879  -3.211  1.00  0.00    -0.307 OA
HETATM   31  H24 UNL     1      14.296   8.573  -2.827  1.00  0.00     0.222 HD
ENDBRANCH  28  30
BRANCH  28  32
HETATM   32  O10 UNL     1      14.365  11.097  -2.507  1.00  0.00    -0.294 OA
BRANCH  32  33
HETATM   33  C14 UNL     1      13.954  12.434  -2.620  1.00  0.00     0.215 C 
BRANCH  33  34
HETATM   34  C15 UNL     1      14.164  13.063  -1.243  1.00  0.00     0.180 C 
HETATM   35  C16 UNL     1      15.346  12.400  -0.548  1.00  0.00     0.197 C 
HETATM   36  C17 UNL     1      14.753  11.760   0.692  1.00  0.00     0.199 C 
HETATM   37  C18 UNL     1      13.511  12.621   0.937  1.00  0.00     0.262 C 
HETATM   38  O11 UNL     1      13.024  12.928  -0.387  1.00  0.00    -0.353 OA
BRANCH  35  39
HETATM   39  O13 UNL     1      16.295  13.412  -0.229  1.00  0.00    -0.286 OA
BRANCH  39  40
HETATM   40  P3  UNL     1      17.702  13.300  -0.980  1.00  0.00     0.391 P 
HETATM   41  O14 UNL     1      18.797  14.079  -0.327  1.00  0.00    -0.632 OA
BRANCH  40  42
HETATM   42  O15 UNL     1      17.282  13.715  -2.467  1.00  0.00    -0.307 OA
HETATM   43  H36 UNL     1      16.375  14.104  -2.477  1.00  0.00     0.222 HD
ENDBRANCH  40  42
BRANCH  40  44
HETATM   44  O16 UNL     1      17.880  11.723  -1.082  1.00  0.00    -0.307 OA
HETATM   45  H37 UNL     1      18.695  11.408  -0.660  1.00  0.00     0.222 HD
ENDBRANCH  40  44
ENDBRANCH  39  40
ENDBRANCH  35  39
BRANCH  36  46
HETATM   46  O12 UNL     1      15.729  11.703   1.736  1.00  0.00    -0.388 OA
HETATM   47  H35 UNL     1      15.361  12.225   2.489  1.00  0.00     0.210 HD
ENDBRANCH  36  46
BRANCH  37  48
HETATM   48  N3  UNL     1      12.476  11.911   1.662  1.00  0.00    -0.297 N 
HETATM   49  C19 UNL     1      12.450  10.572   1.975  1.00  0.00     0.188 A 
HETATM   50  N4  UNL     1      11.434  10.261   2.750  1.00  0.00    -0.346 N 
HETATM   51  C20 UNL     1      10.771  11.458   2.953  1.00  0.00     0.116 A 
HETATM   52  H4  UNL     1      11.189   9.342   3.119  1.00  0.00     0.167 HD
HETATM   53  C21 UNL     1       9.642  11.805   3.716  1.00  0.00     0.109 A 
HETATM   54  C23 UNL     1      11.384  12.481   2.253  1.00  0.00     0.142 A 
HETATM   55  N5  UNL     1       9.221  13.093   3.703  1.00  0.00    -0.341 N 
HETATM   56  C22 UNL     1       9.904  13.980   2.953  1.00  0.00     0.183 A 
HETATM   57  H5  UNL     1       8.408  13.383   4.246  1.00  0.00     0.167 HD
HETATM   58  N6  UNL     1      10.998  13.768   2.193  1.00  0.00    -0.336 N 
HETATM   59  H6  UNL     1      11.471  14.488   1.646  1.00  0.00     0.168 HD
BRANCH  53  60
HETATM   60  N7  UNL     1       8.927  10.893   4.477  1.00  0.00    -0.287 NA
HETATM   61  H33 UNL     1       8.096  10.526   4.019  1.00  0.00     0.125 HD
HETATM   62  H34 UNL     1       8.828  11.177   5.442  1.00  0.00     0.125 HD
ENDBRANCH  53  60
ENDBRANCH  37  48
ENDBRANCH  33  34
ENDBRANCH  32  33
ENDBRANCH  28  32
ENDBRANCH  27  28
ENDBRANCH  23  27
ENDBRANCH  22  23
ENDBRANCH  21  22
ENDBRANCH  18  21
ENDBRANCH  17  18
BRANCH  17  63
HETATM   63  O17 UNL     1      16.406   6.367  -3.808  1.00  0.00    -0.385 OA
HETATM   64  H38 UNL     1      16.304   7.332  -3.762  1.00  0.00     0.210 HD
ENDBRANCH  17  63
ENDBRANCH  14  17
ENDBRANCH  12  13
ENDBRANCH  11  12
ENDBRANCH   8  11
ENDBRANCH   6   7
ENDBRANCH   5   6
ENDBRANCH   4   5
ENDBRANCH   2   4
TORSDOF 27
ENDMDL
MODEL 4
REMARK VINA RESULT:      -6.4      4.127      8.349
REMARK  27 active torsions:
REMARK  status: ('A' for Active; 'I' for Inactive)
REMARK    1  A    between atoms: C2_2  and  S1_4 
REMARK    2  A    between atoms: S1_4  and  C3_5 
REMARK    3  A    between atoms: C3_5  and  C4_6 
REMARK    4  A    between atoms: C4_6  and  N1_7 
REMARK       I    between atoms: N1_7  and  C5_8 
REMARK    5  A    between atoms: C5_8  and  C6_10 
REMARK    6  A    between atoms: C6_10  and  C7_11 
REMARK    7  A    between atoms: C7_11  and  N2_12 
REMARK       I    between atoms: N2_12  and  C8_13 
REMARK    8  A    between atoms: C8_13  and  C9_15 
REMARK    9  A    between atoms: C9_15  and  C10_16 
REMARK   10  A    between atoms: C9_15  and  O17_54 
REMARK   11  A    between atoms: C10_16  and  C13_19 
REMARK   12  A    between atoms: C13_19  and  O4_20 
REMARK   13  A    between atoms: O4_20  and  P1_21 
REMARK   14  A    between atoms: P1_21  and  O6_23 
REMARK   15  A    between atoms: P1_21  and  O7_24 
REMARK   16  A    between atoms: O7_24  and  P2_25 
REMARK   17  A    between atoms: P2_25  and  O9_27 
REMARK   18  A    between atoms: P2_25  and  O10_28 
REMARK   19  A    between atoms: O10_28  and  C14_29 
REMARK   20  A    between atoms: C14_29  and  C15_30 
REMARK   21  A    between atoms: C16_31  and  O13_49 
REMARK   22  A    between atoms: C17_32  and  O12_48 
REMARK   23  A    between atoms: C18_33  and  N3_35 
REMARK   24  A    between atoms: C21_40  and  N7_47 
REMARK   25  A    between atoms: O13_49  and  P3_50 
REMARK   26  A    between atoms: P3_50  and  O15_52 
REMARK   27  A    between atoms: P3_50  and  O16_53 
ROOT
HETATM    1  C1  UNL     1       8.477   8.365  -3.917  1.00  0.00     0.104 C 
HETATM    2  C2  UNL     1       8.806   6.942  -4.252  1.00  0.00     0.182 C 
HETATM    3  O1  UNL     1       8.595   6.003  -3.488  1.00  0.00    -0.286 OA
ENDROOT
BRANCH   2   4
HETATM    4  S1  UNL     1       9.561   6.724  -5.825  1.00  0.00    -0.091 SA
BRANCH   4   5
HETATM    5  C3  UNL     1      10.313   5.080  -5.598  1.00  0.00     0.102 C 
BRANCH   5   6
HETATM    6  C4  UNL     1      11.190   4.685  -6.788  1.00  0.00     0.133 C 
BRANCH   6   7
HETATM    7  N1  UNL     1      12.023   5.775  -7.254  1.00  0.00    -0.360 N 
HETATM    8  C5  UNL     1      13.254   6.034  -6.698  1.00  0.00     0.219 C 
HETATM    9  O2  UNL     1      13.684   5.418  -5.730  1.00  0.00    -0.274 OA
HETATM   10  H8  UNL     1      11.689   6.352  -8.014  1.00  0.00     0.162 HD
BRANCH   8  11
HETATM   11  C6  UNL     1      13.985   7.179  -7.367  1.00  0.00     0.122 C 
BRANCH  11  12
HETATM   12  C7  UNL     1      15.487   6.916  -7.468  1.00  0.00     0.132 C 
BRANCH  12  13
HETATM   13  N2  UNL     1      16.124   6.762  -6.177  1.00  0.00    -0.358 N 
HETATM   14  C8  UNL     1      17.150   5.850  -6.011  1.00  0.00     0.247 C 
HETATM   15  O3  UNL     1      17.476   5.067  -6.894  1.00  0.00    -0.271 OA
HETATM   16  H13 UNL     1      16.146   7.599  -5.597  1.00  0.00     0.162 HD
BRANCH  14  17
HETATM   17  C9  UNL     1      17.854   5.915  -4.647  1.00  0.00     0.219 C 
BRANCH  17  18
HETATM   18  C10 UNL     1      19.211   6.666  -4.659  1.00  0.00     0.009 C 
HETATM   19  C11 UNL     1      19.588   7.202  -3.270  1.00  0.00     0.020 C 
HETATM   20  C12 UNL     1      20.357   5.755  -5.143  1.00  0.00     0.020 C 
BRANCH  18  21
HETATM   21  C13 UNL     1      19.033   7.854  -5.647  1.00  0.00     0.192 C 
BRANCH  21  22
HETATM   22  O4  UNL     1      18.201   8.869  -5.123  1.00  0.00    -0.296 OA
BRANCH  22  23
HETATM   23  P1  UNL     1      17.864  10.217  -5.923  1.00  0.00     0.401 P 
HETATM   24  O5  UNL     1      17.432   9.998  -7.339  1.00  0.00    -0.631 OA
BRANCH  23  25
HETATM   25  O6  UNL     1      19.147  11.178  -5.777  1.00  0.00    -0.307 OA
HETATM   26  H23 UNL     1      19.940  10.687  -5.527  1.00  0.00     0.222 HD
ENDBRANCH  23  25
BRANCH  23  27
HETATM   27  O7  UNL     1      16.802  10.979  -5.015  1.00  0.00    -0.195 OA
BRANCH  27  28
HETATM   28  P2  UNL     1      15.399  10.283  -4.722  1.00  0.00     0.401 P 
HETATM   29  O8  UNL     1      14.527   9.997  -5.901  1.00  0.00    -0.631 OA
BRANCH  28  30
HETATM   30  O9  UNL     1      15.801   8.988  -3.880  1.00  0.00    -0.307 OA
HETATM   31  H24 UNL     1      16.632   9.090  -3.354  1.00  0.00     0.222 HD
ENDBRANCH  28  30
BRANCH  28  32
HETATM   32  O10 UNL     1      14.751  11.189  -3.578  1.00  0.00    -0.294 OA
BRANCH  32  33
HETATM   33  C14 UNL     1      13.875  10.617  -2.642  1.00  0.00     0.215 C 
BRANCH  33  34
HETATM   34  C15 UNL     1      14.373  11.058  -1.267  1.00  0.00     0.180 C 
HETATM   35  C16 UNL     1      15.189   9.941  -0.631  1.00  0.00     0.197 C 
HETATM   36  C17 UNL     1      14.422   9.570   0.624  1.00  0.00     0.199 C 
HETATM   37  C18 UNL     1      13.664  10.864   0.933  1.00  0.00     0.262 C 
HETATM   38  O11 UNL     1      13.309  11.387  -0.366  1.00  0.00    -0.353 OA
BRANCH  35  39
HETATM   39  O13 UNL     1      16.485  10.453  -0.337  1.00  0.00    -0.286 OA
BRANCH  39  40
HETATM   40  P3  UNL     1      17.710   9.575  -0.870  1.00  0.00     0.391 P 
HETATM   41  O14 UNL     1      18.842   9.469   0.101  1.00  0.00    -0.632 OA
BRANCH  40  42
HETATM   42  O15 UNL     1      18.002  10.288  -2.272  1.00  0.00    -0.307 OA
HETATM   43  H36 UNL     1      17.228  10.831  -2.555  1.00  0.00     0.222 HD
ENDBRANCH  40  42
BRANCH  40  44
HETATM   44  O16 UNL     1      16.974   8.231  -1.293  1.00  0.00    -0.307 OA
HETATM   45  H37 UNL     1      17.591   7.535  -1.569  1.00  0.00     0.222 HD
ENDBRANCH  40  44
ENDBRANCH  39  40
ENDBRANCH  35  39
BRANCH  36  46
HETATM   46  O12 UNL     1      15.317   9.079   1.625  1.00  0.00    -0.388 OA
HETATM   47  H35 UNL     1      16.168   9.564   1.500  1.00  0.00     0.210 HD
ENDBRANCH  36  46
BRANCH  37  48
HETATM   48  N3  UNL     1      12.451  10.630   1.689  1.00  0.00    -0.297 N 
HETATM   49  C19 UNL     1      11.959   9.420   2.120  1.00  0.00     0.188 A 
HETATM   50  N4  UNL     1      10.903   9.557   2.892  1.00  0.00    -0.346 N 
HETATM   51  C20 UNL     1      10.703  10.924   2.970  1.00  0.00     0.116 A 
HETATM   52  H4  UNL     1      10.355   8.820   3.334  1.00  0.00     0.167 HD
HETATM   53  C21 UNL     1       9.772  11.712   3.668  1.00  0.00     0.109 A 
HETATM   54  C23 UNL     1      11.631  11.599   2.198  1.00  0.00     0.142 A 
HETATM   55  N5  UNL     1       9.828  13.059   3.529  1.00  0.00    -0.341 N 
HETATM   56  C22 UNL     1      10.774  13.578   2.721  1.00  0.00     0.183 A 
HETATM   57  H5  UNL     1       9.171  13.663   4.022  1.00  0.00     0.167 HD
HETATM   58  N6  UNL     1      11.720  12.928   2.013  1.00  0.00    -0.336 N 
HETATM   59  H6  UNL     1      12.411  13.383   1.417  1.00  0.00     0.168 HD
BRANCH  53  60
HETATM   60  N7  UNL     1       8.787  11.182   4.487  1.00  0.00    -0.287 NA
HETATM   61  H33 UNL     1       7.841  11.465   4.242  1.00  0.00     0.125 HD
HETATM   62  H34 UNL     1       9.032  11.213   5.468  1.00  0.00     0.125 HD
ENDBRANCH  53  60
ENDBRANCH  37  48
ENDBRANCH  33  34
ENDBRANCH  32  33
ENDBRANCH  28  32
ENDBRANCH  27  28
ENDBRANCH  23  27
ENDBRANCH  22  23
ENDBRANCH  21  22
ENDBRANCH  18  21
ENDBRANCH  17  18
BRANCH  17  63
HETATM   63  O17 UNL     1      17.000   6.535  -3.680  1.00  0.00    -0.385 OA
HETATM   64  H38 UNL     1      16.125   6.115  -3.737  1.00  0.00     0.210 HD
ENDBRANCH  17  63
ENDBRANCH  14  17
ENDBRANCH  12  13
ENDBRANCH  11  12
ENDBRANCH   8  11
ENDBRANCH   6   7
ENDBRANCH   5   6
ENDBRANCH   4   5
ENDBRANCH   2   4
TORSDOF 27
ENDMDL
MODEL 5
REMARK VINA RESULT:      -6.4      3.722      5.367
REMARK  27 active torsions:
REMARK  status: ('A' for Active; 'I' for Inactive)
REMARK    1  A    between atoms: C2_2  and  S1_4 
REMARK    2  A    between atoms: S1_4  and  C3_5 
REMARK    3  A    between atoms: C3_5  and  C4_6 
REMARK    4  A    between atoms: C4_6  and  N1_7 
REMARK       I    between atoms: N1_7  and  C5_8 
REMARK    5  A    between atoms: C5_8  and  C6_10 
REMARK    6  A    between atoms: C6_10  and  C7_11 
REMARK    7  A    between atoms: C7_11  and  N2_12 
REMARK       I    between atoms: N2_12  and  C8_13 
REMARK    8  A    between atoms: C8_13  and  C9_15 
REMARK    9  A    between atoms: C9_15  and  C10_16 
REMARK   10  A    between atoms: C9_15  and  O17_54 
REMARK   11  A    between atoms: C10_16  and  C13_19 
REMARK   12  A    between atoms: C13_19  and  O4_20 
REMARK   13  A    between atoms: O4_20  and  P1_21 
REMARK   14  A    between atoms: P1_21  and  O6_23 
REMARK   15  A    between atoms: P1_21  and  O7_24 
REMARK   16  A    between atoms: O7_24  and  P2_25 
REMARK   17  A    between atoms: P2_25  and  O9_27 
REMARK   18  A    between atoms: P2_25  and  O10_28 
REMARK   19  A    between atoms: O10_28  and  C14_29 
REMARK   20  A    between atoms: C14_29  and  C15_30 
REMARK   21  A    between atoms: C16_31  and  O13_49 
REMARK   22  A    between atoms: C17_32  and  O12_48 
REMARK   23  A    between atoms: C18_33  and  N3_35 
REMARK   24  A    between atoms: C21_40  and  N7_47 
REMARK   25  A    between atoms: O13_49  and  P3_50 
REMARK   26  A    between atoms: P3_50  and  O15_52 
REMARK   27  A    between atoms: P3_50  and  O16_53 
ROOT
HETATM    1  C1  UNL     1      18.658  10.238  -7.250  1.00  0.00     0.104 C 
HETATM    2  C2  UNL     1      17.893  10.650  -6.030  1.00  0.00     0.182 C 
HETATM    3  O1  UNL     1      16.752  10.263  -5.786  1.00  0.00    -0.286 OA
ENDROOT
BRANCH   2   4
HETATM    4  S1  UNL     1      18.749  11.772  -4.982  1.00  0.00    -0.091 SA
BRANCH   4   5
HETATM    5  C3  UNL     1      17.398  12.265  -3.863  1.00  0.00     0.102 C 
BRANCH   5   6
HETATM    6  C4  UNL     1      16.753  13.584  -4.294  1.00  0.00     0.133 C 
BRANCH   6   7
HETATM    7  N1  UNL     1      15.670  13.989  -3.421  1.00  0.00    -0.360 N 
HETATM    8  C5  UNL     1      14.409  13.451  -3.535  1.00  0.00     0.219 C 
HETATM    9  O2  UNL     1      14.105  12.665  -4.424  1.00  0.00    -0.274 OA
HETATM   10  H8  UNL     1      15.854  14.680  -2.706  1.00  0.00     0.162 HD
BRANCH   8  11
HETATM   11  C6  UNL     1      13.441  13.968  -2.493  1.00  0.00     0.122 C 
BRANCH  11  12
HETATM   12  C7  UNL     1      12.943  12.853  -1.574  1.00  0.00     0.132 C 
BRANCH  12  13
HETATM   13  N2  UNL     1      13.970  11.889  -1.243  1.00  0.00    -0.358 N 
HETATM   14  C8  UNL     1      13.883  11.150  -0.077  1.00  0.00     0.247 C 
HETATM   15  O3  UNL     1      13.018  11.360   0.764  1.00  0.00    -0.271 OA
HETATM   16  H13 UNL     1      14.433  11.452  -2.037  1.00  0.00     0.162 HD
BRANCH  14  17
HETATM   17  C9  UNL     1      14.937  10.042   0.064  1.00  0.00     0.219 C 
BRANCH  17  18
HETATM   18  C10 UNL     1      15.930  10.246   1.239  1.00  0.00     0.009 C 
HETATM   19  C11 UNL     1      16.335  11.718   1.406  1.00  0.00     0.020 C 
HETATM   20  C12 UNL     1      15.330   9.764   2.576  1.00  0.00     0.020 C 
BRANCH  18  21
HETATM   21  C13 UNL     1      17.185   9.396   0.890  1.00  0.00     0.192 C 
BRANCH  21  22
HETATM   22  O4  UNL     1      17.400   9.300  -0.503  1.00  0.00    -0.296 OA
BRANCH  22  23
HETATM   23  P1  UNL     1      17.864   7.943  -1.222  1.00  0.00     0.401 P 
HETATM   24  O5  UNL     1      17.485   6.699  -0.482  1.00  0.00    -0.631 OA
BRANCH  23  25
HETATM   25  O6  UNL     1      19.444   8.080  -1.497  1.00  0.00    -0.307 OA
HETATM   26  H23 UNL     1      19.791   7.327  -1.994  1.00  0.00     0.222 HD
ENDBRANCH  23  25
BRANCH  23  27
HETATM   27  O7  UNL     1      17.283   8.041  -2.699  1.00  0.00    -0.195 OA
BRANCH  27  28
HETATM   28  P2  UNL     1      18.058   7.307  -3.882  1.00  0.00     0.401 P 
HETATM   29  O8  UNL     1      19.347   7.916  -4.327  1.00  0.00    -0.631 OA
BRANCH  28  30
HETATM   30  O9  UNL     1      18.194   5.806  -3.354  1.00  0.00    -0.307 OA
HETATM   31  H24 UNL     1      18.028   5.119  -4.044  1.00  0.00     0.222 HD
ENDBRANCH  28  30
BRANCH  28  32
HETATM   32  O10 UNL     1      16.947   7.120  -5.014  1.00  0.00    -0.294 OA
BRANCH  32  33
HETATM   33  C14 UNL     1      15.611   6.883  -4.654  1.00  0.00     0.215 C 
BRANCH  33  34
HETATM   34  C15 UNL     1      15.140   5.710  -5.511  1.00  0.00     0.180 C 
HETATM   35  C16 UNL     1      15.351   6.030  -6.985  1.00  0.00     0.197 C 
HETATM   36  C17 UNL     1      13.958   6.020  -7.585  1.00  0.00     0.199 C 
HETATM   37  C18 UNL     1      13.200   5.099  -6.626  1.00  0.00     0.262 C 
HETATM   38  O11 UNL     1      13.753   5.404  -5.327  1.00  0.00    -0.353 OA
BRANCH  35  39
HETATM   39  O13 UNL     1      16.182   5.016  -7.542  1.00  0.00    -0.286 OA
BRANCH  39  40
HETATM   40  P3  UNL     1      17.597   5.512  -8.097  1.00  0.00     0.391 P 
HETATM   41  O14 UNL     1      17.955   4.939  -9.430  1.00  0.00    -0.632 OA
BRANCH  40  42
HETATM   42  O15 UNL     1      18.545   5.158  -6.859  1.00  0.00    -0.307 OA
HETATM   43  H36 UNL     1      18.058   5.257  -6.006  1.00  0.00     0.222 HD
ENDBRANCH  40  42
BRANCH  40  44
HETATM   44  O16 UNL     1      17.440   7.091  -7.992  1.00  0.00    -0.307 OA
HETATM   45  H37 UNL     1      18.086   7.494  -7.392  1.00  0.00     0.222 HD
ENDBRANCH  40  44
ENDBRANCH  39  40
ENDBRANCH  35  39
BRANCH  36  46
HETATM   46  O12 UNL     1      14.013   5.635  -8.961  1.00  0.00    -0.388 OA
HETATM   47  H35 UNL     1      14.962   5.457  -9.162  1.00  0.00     0.210 HD
ENDBRANCH  36  46
BRANCH  37  48
HETATM   48  N3  UNL     1      11.777   5.369  -6.603  1.00  0.00    -0.297 N 
HETATM   49  C19 UNL     1      11.060   6.130  -7.497  1.00  0.00     0.188 A 
HETATM   50  N4  UNL     1       9.766   6.077  -7.272  1.00  0.00    -0.346 N 
HETATM   51  C20 UNL     1       9.635   5.235  -6.181  1.00  0.00     0.116 A 
HETATM   52  H4  UNL     1       9.023   6.549  -7.787  1.00  0.00     0.167 HD
HETATM   53  C21 UNL     1       8.518   4.744  -5.485  1.00  0.00     0.109 A 
HETATM   54  C23 UNL     1      10.876   4.821  -5.732  1.00  0.00     0.142 A 
HETATM   55  N5  UNL     1       8.722   3.925  -4.425  1.00  0.00    -0.341 N 
HETATM   56  C22 UNL     1       9.991   3.624  -4.086  1.00  0.00     0.183 A 
HETATM   57  H5  UNL     1       7.935   3.546  -3.898  1.00  0.00     0.167 HD
HETATM   58  N6  UNL     1      11.134   4.025  -4.679  1.00  0.00    -0.336 N 
HETATM   59  H6  UNL     1      12.070   3.760  -4.371  1.00  0.00     0.168 HD
BRANCH  53  60
HETATM   60  N7  UNL     1       7.211   5.061  -5.820  1.00  0.00    -0.287 NA
HETATM   61  H33 UNL     1       6.680   4.288  -6.215  1.00  0.00     0.125 HD
HETATM   62  H34 UNL     1       7.129   5.955  -6.286  1.00  0.00     0.125 HD
ENDBRANCH  53  60
ENDBRANCH  37  48
ENDBRANCH  33  34
ENDBRANCH  32  33
ENDBRANCH  28  32
ENDBRANCH  27  28
ENDBRANCH  23  27
ENDBRANCH  22  23
ENDBRANCH  21  22
ENDBRANCH  18  21
ENDBRANCH  17  18
BRANCH  17  63
HETATM   63  O17 UNL     1      14.299   8.771   0.224  1.00  0.00    -0.385 OA
HETATM   64  H38 UNL     1      13.655   8.846   0.949  1.00  0.00     0.210 HD
ENDBRANCH  17  63
ENDBRANCH  14  17
ENDBRANCH  12  13
ENDBRANCH  11  12
ENDBRANCH   8  11
ENDBRANCH   6   7
ENDBRANCH   5   6
ENDBRANCH   4   5
ENDBRANCH   2   4
TORSDOF 27
ENDMDL
MODEL 6
REMARK VINA RESULT:      -6.4      3.030      4.617
REMARK  27 active torsions:
REMARK  status: ('A' for Active; 'I' for Inactive)
REMARK    1  A    between atoms: C2_2  and  S1_4 
REMARK    2  A    between atoms: S1_4  and  C3_5 
REMARK    3  A    between atoms: C3_5  and  C4_6 
REMARK    4  A    between atoms: C4_6  and  N1_7 
REMARK       I    between atoms: N1_7  and  C5_8 
REMARK    5  A    between atoms: C5_8  and  C6_10 
REMARK    6  A    between atoms: C6_10  and  C7_11 
REMARK    7  A    between atoms: C7_11  and  N2_12 
REMARK       I    between atoms: N2_12  and  C8_13 
REMARK    8  A    between atoms: C8_13  and  C9_15 
REMARK    9  A    between atoms: C9_15  and  C10_16 
REMARK   10  A    between atoms: C9_15  and  O17_54 
REMARK   11  A    between atoms: C10_16  and  C13_19 
REMARK   12  A    between atoms: C13_19  and  O4_20 
REMARK   13  A    between atoms: O4_20  and  P1_21 
REMARK   14  A    between atoms: P1_21  and  O6_23 
REMARK   15  A    between atoms: P1_21  and  O7_24 
REMARK   16  A    between atoms: O7_24  and  P2_25 
REMARK   17  A    between atoms: P2_25  and  O9_27 
REMARK   18  A    between atoms: P2_25  and  O10_28 
REMARK   19  A    between atoms: O10_28  and  C14_29 
REMARK   20  A    between atoms: C14_29  and  C15_30 
REMARK   21  A    between atoms: C16_31  and  O13_49 
REMARK   22  A    between atoms: C17_32  and  O12_48 
REMARK   23  A    between atoms: C18_33  and  N3_35 
REMARK   24  A    between atoms: C21_40  and  N7_47 
REMARK   25  A    between atoms: O13_49  and  P3_50 
REMARK   26  A    between atoms: P3_50  and  O15_52 
REMARK   27  A    between atoms: P3_50  and  O16_53 
ROOT
HETATM    1  C1  UNL     1       8.205  14.684  -7.107  1.00  0.00     0.104 C 
HETATM    2  C2  UNL     1       8.782  13.684  -6.151  1.00  0.00     0.182 C 
HETATM    3  O1  UNL     1       8.432  12.507  -6.115  1.00  0.00    -0.286 OA
ENDROOT
BRANCH   2   4
HETATM    4  S1  UNL     1       9.981  14.344  -5.048  1.00  0.00    -0.091 SA
BRANCH   4   5
HETATM    5  C3  UNL     1      10.610  12.807  -4.297  1.00  0.00     0.102 C 
BRANCH   5   6
HETATM    6  C4  UNL     1      12.136  12.726  -4.358  1.00  0.00     0.133 C 
BRANCH   6   7
HETATM    7  N1  UNL     1      12.782  13.607  -3.407  1.00  0.00    -0.360 N 
HETATM    8  C5  UNL     1      12.996  13.230  -2.101  1.00  0.00     0.219 C 
HETATM    9  O2  UNL     1      12.587  12.169  -1.645  1.00  0.00    -0.274 OA
HETATM   10  H8  UNL     1      13.088  14.519  -3.718  1.00  0.00     0.162 HD
BRANCH   8  11
HETATM   11  C6  UNL     1      13.734  14.273  -1.290  1.00  0.00     0.122 C 
BRANCH  11  12
HETATM   12  C7  UNL     1      13.479  14.117   0.208  1.00  0.00     0.132 C 
BRANCH  12  13
HETATM   13  N2  UNL     1      14.143  12.964   0.780  1.00  0.00    -0.358 N 
HETATM   14  C8  UNL     1      13.838  12.549   2.063  1.00  0.00     0.247 C 
HETATM   15  O3  UNL     1      13.100  13.193   2.798  1.00  0.00    -0.271 OA
HETATM   16  H13 UNL     1      14.428  12.248   0.115  1.00  0.00     0.162 HD
BRANCH  14  17
HETATM   17  C9  UNL     1      14.479  11.217   2.479  1.00  0.00     0.219 C 
BRANCH  17  18
HETATM   18  C10 UNL     1      13.686   9.957   2.042  1.00  0.00     0.009 C 
HETATM   19  C11 UNL     1      13.462   8.982   3.206  1.00  0.00     0.020 C 
HETATM   20  C12 UNL     1      12.306  10.331   1.463  1.00  0.00     0.020 C 
BRANCH  18  21
HETATM   21  C13 UNL     1      14.547   9.271   0.943  1.00  0.00     0.192 C 
BRANCH  21  22
HETATM   22  O4  UNL     1      14.405   9.892  -0.319  1.00  0.00    -0.296 OA
BRANCH  22  23
HETATM   23  P1  UNL     1      15.633  10.108  -1.326  1.00  0.00     0.401 P 
HETATM   24  O5  UNL     1      16.716   9.083  -1.201  1.00  0.00    -0.631 OA
BRANCH  23  25
HETATM   25  O6  UNL     1      16.145  11.621  -1.118  1.00  0.00    -0.307 OA
HETATM   26  H23 UNL     1      15.884  11.975  -0.258  1.00  0.00     0.222 HD
ENDBRANCH  23  25
BRANCH  23  27
HETATM   27  O7  UNL     1      14.970  10.202  -2.769  1.00  0.00    -0.195 OA
BRANCH  27  28
HETATM   28  P2  UNL     1      15.783  10.903  -3.946  1.00  0.00     0.401 P 
HETATM   29  O8  UNL     1      15.598  12.376  -4.112  1.00  0.00    -0.631 OA
BRANCH  28  30
HETATM   30  O9  UNL     1      17.292  10.464  -3.662  1.00  0.00    -0.307 OA
HETATM   31  H24 UNL     1      17.748  11.010  -2.976  1.00  0.00     0.222 HD
ENDBRANCH  28  30
BRANCH  28  32
HETATM   32  O10 UNL     1      15.454  10.009  -5.228  1.00  0.00    -0.294 OA
BRANCH  32  33
HETATM   33  C14 UNL     1      14.247   9.296  -5.296  1.00  0.00     0.215 C 
BRANCH  33  34
HETATM   34  C15 UNL     1      14.627   7.836  -5.538  1.00  0.00     0.180 C 
HETATM   35  C16 UNL     1      15.080   7.654  -6.981  1.00  0.00     0.197 C 
HETATM   36  C17 UNL     1      14.079   6.684  -7.578  1.00  0.00     0.199 C 
HETATM   37  C18 UNL     1      13.585   5.927  -6.342  1.00  0.00     0.262 C 
HETATM   38  O11 UNL     1      13.543   6.930  -5.304  1.00  0.00    -0.353 OA
BRANCH  35  39
HETATM   39  O13 UNL     1      16.400   7.122  -6.965  1.00  0.00    -0.286 OA
BRANCH  39  40
HETATM   40  P3  UNL     1      17.576   8.190  -7.144  1.00  0.00     0.391 P 
HETATM   41  O14 UNL     1      18.694   7.714  -8.015  1.00  0.00    -0.632 OA
BRANCH  40  42
HETATM   42  O15 UNL     1      17.917   8.520  -5.617  1.00  0.00    -0.307 OA
HETATM   43  H36 UNL     1      18.088   9.484  -5.498  1.00  0.00     0.222 HD
ENDBRANCH  40  42
BRANCH  40  44
HETATM   44  O16 UNL     1      16.766   9.473  -7.620  1.00  0.00    -0.307 OA
HETATM   45  H37 UNL     1      16.705   9.543  -8.586  1.00  0.00     0.222 HD
ENDBRANCH  40  44
ENDBRANCH  39  40
ENDBRANCH  35  39
BRANCH  36  46
HETATM   46  O12 UNL     1      14.692   5.916  -8.617  1.00  0.00    -0.388 OA
HETATM   47  H35 UNL     1      15.354   5.331  -8.177  1.00  0.00     0.210 HD
ENDBRANCH  36  46
BRANCH  37  48
HETATM   48  N3  UNL     1      12.254   5.381  -6.519  1.00  0.00    -0.297 N 
HETATM   49  C19 UNL     1      11.924   4.121  -6.958  1.00  0.00     0.188 A 
HETATM   50  N4  UNL     1      10.632   3.890  -6.887  1.00  0.00    -0.346 N 
HETATM   51  C20 UNL     1      10.097   5.058  -6.370  1.00  0.00     0.116 A 
HETATM   52  H4  UNL     1      10.134   3.041  -7.152  1.00  0.00     0.167 HD
HETATM   53  C21 UNL     1       8.789   5.433  -6.019  1.00  0.00     0.109 A 
HETATM   54  C23 UNL     1      11.087   6.004  -6.175  1.00  0.00     0.142 A 
HETATM   55  N5  UNL     1       8.580   6.682  -5.536  1.00  0.00    -0.341 N 
HETATM   56  C22 UNL     1       9.639   7.507  -5.421  1.00  0.00     0.183 A 
HETATM   57  H5  UNL     1       7.645   6.989  -5.267  1.00  0.00     0.167 HD
HETATM   58  N6  UNL     1      10.931   7.258  -5.716  1.00  0.00    -0.336 N 
HETATM   59  H6  UNL     1      11.690   7.931  -5.605  1.00  0.00     0.168 HD
BRANCH  53  60
HETATM   60  N7  UNL     1       7.694   4.593  -6.149  1.00  0.00    -0.287 NA
HETATM   61  H33 UNL     1       7.923   3.602  -6.136  1.00  0.00     0.125 HD
HETATM   62  H34 UNL     1       7.043   4.901  -6.859  1.00  0.00     0.125 HD
ENDBRANCH  53  60
ENDBRANCH  37  48
ENDBRANCH  33  34
ENDBRANCH  32  33
ENDBRANCH  28  32
ENDBRANCH  27  28
ENDBRANCH  23  27
ENDBRANCH  22  23
ENDBRANCH  21  22
ENDBRANCH  18  21
ENDBRANCH  17  18
BRANCH  17  63
HETATM   63  O17 UNL     1      15.807  11.123   1.952  1.00  0.00    -0.385 OA
HETATM   64  H38 UNL     1      16.330  11.856   2.319  1.00  0.00     0.210 HD
ENDBRANCH  17  63
ENDBRANCH  14  17
ENDBRANCH  12  13
ENDBRANCH  11  12
ENDBRANCH   8  11
ENDBRANCH   6   7
ENDBRANCH   5   6
ENDBRANCH   4   5
ENDBRANCH   2   4
TORSDOF 27
ENDMDL
MODEL 7
REMARK VINA RESULT:      -6.2      4.585      9.662
REMARK  27 active torsions:
REMARK  status: ('A' for Active; 'I' for Inactive)
REMARK    1  A    between atoms: C2_2  and  S1_4 
REMARK    2  A    between atoms: S1_4  and  C3_5 
REMARK    3  A    between atoms: C3_5  and  C4_6 
REMARK    4  A    between atoms: C4_6  and  N1_7 
REMARK       I    between atoms: N1_7  and  C5_8 
REMARK    5  A    between atoms: C5_8  and  C6_10 
REMARK    6  A    between atoms: C6_10  and  C7_11 
REMARK    7  A    between atoms: C7_11  and  N2_12 
REMARK       I    between atoms: N2_12  and  C8_13 
REMARK    8  A    between atoms: C8_13  and  C9_15 
REMARK    9  A    between atoms: C9_15  and  C10_16 
REMARK   10  A    between atoms: C9_15  and  O17_54 
REMARK   11  A    between atoms: C10_16  and  C13_19 
REMARK   12  A    between atoms: C13_19  and  O4_20 
REMARK   13  A    between atoms: O4_20  and  P1_21 
REMARK   14  A    between atoms: P1_21  and  O6_23 
REMARK   15  A    between atoms: P1_21  and  O7_24 
REMARK   16  A    between atoms: O7_24  and  P2_25 
REMARK   17  A    between atoms: P2_25  and  O9_27 
REMARK   18  A    between atoms: P2_25  and  O10_28 
REMARK   19  A    between atoms: O10_28  and  C14_29 
REMARK   20  A    between atoms: C14_29  and  C15_30 
REMARK   21  A    between atoms: C16_31  and  O13_49 
REMARK   22  A    between atoms: C17_32  and  O12_48 
REMARK   23  A    between atoms: C18_33  and  N3_35 
REMARK   24  A    between atoms: C21_40  and  N7_47 
REMARK   25  A    between atoms: O13_49  and  P3_50 
REMARK   26  A    between atoms: P3_50  and  O15_52 
REMARK   27  A    between atoms: P3_50  and  O16_53 
ROOT
HETATM    1  C1  UNL     1       8.004   6.713  -4.669  1.00  0.00     0.104 C 
HETATM    2  C2  UNL     1       7.945   5.220  -4.774  1.00  0.00     0.182 C 
HETATM    3  O1  UNL     1       7.301   4.629  -5.636  1.00  0.00    -0.286 OA
ENDROOT
BRANCH   2   4
HETATM    4  S1  UNL     1       8.849   4.370  -3.527  1.00  0.00    -0.091 SA
BRANCH   4   5
HETATM    5  C3  UNL     1      10.302   3.836  -4.488  1.00  0.00     0.102 C 
BRANCH   5   6
HETATM    6  C4  UNL     1      10.466   4.649  -5.773  1.00  0.00     0.133 C 
BRANCH   6   7
HETATM    7  N1  UNL     1      11.840   4.709  -6.226  1.00  0.00    -0.360 N 
HETATM    8  C5  UNL     1      12.220   5.501  -7.284  1.00  0.00     0.219 C 
HETATM    9  O2  UNL     1      11.415   6.137  -7.955  1.00  0.00    -0.274 OA
HETATM   10  H8  UNL     1      12.536   4.157  -5.742  1.00  0.00     0.162 HD
BRANCH   8  11
HETATM   11  C6  UNL     1      13.708   5.462  -7.558  1.00  0.00     0.122 C 
BRANCH  11  12
HETATM   12  C7  UNL     1      14.379   6.803  -7.260  1.00  0.00     0.132 C 
BRANCH  12  13
HETATM   13  N2  UNL     1      15.607   6.668  -6.506  1.00  0.00    -0.358 N 
HETATM   14  C8  UNL     1      15.712   7.219  -5.242  1.00  0.00     0.247 C 
HETATM   15  O3  UNL     1      14.837   7.931  -4.766  1.00  0.00    -0.271 OA
HETATM   16  H13 UNL     1      16.145   5.824  -6.692  1.00  0.00     0.162 HD
BRANCH  14  17
HETATM   17  C9  UNL     1      16.997   6.852  -4.484  1.00  0.00     0.219 C 
BRANCH  17  18
HETATM   18  C10 UNL     1      18.006   8.020  -4.326  1.00  0.00     0.009 C 
HETATM   19  C11 UNL     1      19.457   7.523  -4.243  1.00  0.00     0.020 C 
HETATM   20  C12 UNL     1      17.910   9.012  -5.503  1.00  0.00     0.020 C 
BRANCH  18  21
HETATM   21  C13 UNL     1      17.623   8.739  -3.001  1.00  0.00     0.192 C 
BRANCH  21  22
HETATM   22  O4  UNL     1      18.568   8.515  -1.974  1.00  0.00    -0.296 OA
BRANCH  22  23
HETATM   23  P1  UNL     1      18.157   8.360  -0.432  1.00  0.00     0.401 P 
HETATM   24  O5  UNL     1      19.315   8.138   0.490  1.00  0.00    -0.631 OA
BRANCH  23  25
HETATM   25  O6  UNL     1      17.040   7.203  -0.361  1.00  0.00    -0.307 OA
HETATM   26  H23 UNL     1      17.115   6.677   0.445  1.00  0.00     0.222 HD
ENDBRANCH  23  25
BRANCH  23  27
HETATM   27  O7  UNL     1      17.287   9.651  -0.107  1.00  0.00    -0.195 OA
BRANCH  27  28
HETATM   28  P2  UNL     1      16.274   9.608   1.122  1.00  0.00     0.401 P 
HETATM   29  O8  UNL     1      14.872   9.185   0.829  1.00  0.00    -0.631 OA
BRANCH  28  30
HETATM   30  O9  UNL     1      17.025   8.681   2.183  1.00  0.00    -0.307 OA
HETATM   31  H24 UNL     1      17.696   9.156   2.731  1.00  0.00     0.222 HD
ENDBRANCH  28  30
BRANCH  28  32
HETATM   32  O10 UNL     1      16.442  11.039   1.812  1.00  0.00    -0.294 OA
BRANCH  32  33
HETATM   33  C14 UNL     1      15.330  11.680   2.379  1.00  0.00     0.215 C 
BRANCH  33  34
HETATM   34  C15 UNL     1      15.025  12.878   1.482  1.00  0.00     0.180 C 
HETATM   35  C16 UNL     1      13.589  12.795   0.980  1.00  0.00     0.197 C 
HETATM   36  C17 UNL     1      13.715  12.684  -0.527  1.00  0.00     0.199 C 
HETATM   37  C18 UNL     1      15.069  13.348  -0.789  1.00  0.00     0.262 C 
HETATM   38  O11 UNL     1      15.883  12.953   0.337  1.00  0.00    -0.353 OA
BRANCH  35  39
HETATM   39  O13 UNL     1      12.914  13.984   1.377  1.00  0.00    -0.286 OA
BRANCH  39  40
HETATM   40  P3  UNL     1      11.700  13.779   2.397  1.00  0.00     0.391 P 
HETATM   41  O14 UNL     1      10.494  14.599   2.071  1.00  0.00    -0.632 OA
BRANCH  40  42
HETATM   42  O15 UNL     1      12.432  14.061   3.792  1.00  0.00    -0.307 OA
HETATM   43  H36 UNL     1      12.828  13.232   4.152  1.00  0.00     0.222 HD
ENDBRANCH  40  42
BRANCH  40  44
HETATM   44  O16 UNL     1      11.542  12.197   2.385  1.00  0.00    -0.307 OA
HETATM   45  H37 UNL     1      12.379  11.736   2.219  1.00  0.00     0.222 HD
ENDBRANCH  40  44
ENDBRANCH  39  40
ENDBRANCH  35  39
BRANCH  36  46
HETATM   46  O12 UNL     1      12.569  13.256  -1.164  1.00  0.00    -0.388 OA
HETATM   47  H35 UNL     1      12.586  12.944  -2.100  1.00  0.00     0.210 HD
ENDBRANCH  36  46
BRANCH  37  48
HETATM   48  N3  UNL     1      15.695  12.874  -2.006  1.00  0.00    -0.297 N 
HETATM   49  C19 UNL     1      15.236  11.888  -2.848  1.00  0.00     0.188 A 
HETATM   50  N4  UNL     1      15.968  11.780  -3.936  1.00  0.00    -0.346 N 
HETATM   51  C20 UNL     1      16.947  12.748  -3.795  1.00  0.00     0.116 A 
HETATM   52  H4  UNL     1      15.842  11.129  -4.711  1.00  0.00     0.167 HD
HETATM   53  C21 UNL     1      18.000  13.166  -4.626  1.00  0.00     0.109 A 
HETATM   54  C23 UNL     1      16.813  13.406  -2.586  1.00  0.00     0.142 A 
HETATM   55  N5  UNL     1      18.816  14.157  -4.192  1.00  0.00    -0.341 N 
HETATM   56  C22 UNL     1      18.579  14.692  -2.978  1.00  0.00     0.183 A 
HETATM   57  H5  UNL     1      19.588  14.490  -4.769  1.00  0.00     0.167 HD
HETATM   58  N6  UNL     1      17.602  14.382  -2.101  1.00  0.00    -0.336 N 
HETATM   59  H6  UNL     1      17.478  14.827  -1.192  1.00  0.00     0.168 HD
BRANCH  53  60
HETATM   60  N7  UNL     1      18.257  12.609  -5.869  1.00  0.00    -0.287 NA
HETATM   61  H33 UNL     1      19.218  12.301  -6.000  1.00  0.00     0.125 HD
HETATM   62  H34 UNL     1      17.838  13.129  -6.629  1.00  0.00     0.125 HD
ENDBRANCH  53  60
ENDBRANCH  37  48
ENDBRANCH  33  34
ENDBRANCH  32  33
ENDBRANCH  28  32
ENDBRANCH  27  28
ENDBRANCH  23  27
ENDBRANCH  22  23
ENDBRANCH  21  22
ENDBRANCH  18  21
ENDBRANCH  17  18
BRANCH  17  63
HETATM   63  O17 UNL     1      16.675   6.350  -3.182  1.00  0.00    -0.385 OA
HETATM   64  H38 UNL     1      16.466   5.405  -3.266  1.00  0.00     0.210 HD
ENDBRANCH  17  63
ENDBRANCH  14  17
ENDBRANCH  12  13
ENDBRANCH  11  12
ENDBRANCH   8  11
ENDBRANCH   6   7
ENDBRANCH   5   6
ENDBRANCH   4   5
ENDBRANCH   2   4
TORSDOF 27
ENDMDL
MODEL 8
REMARK VINA RESULT:      -6.1      3.592      7.860
REMARK  27 active torsions:
REMARK  status: ('A' for Active; 'I' for Inactive)
REMARK    1  A    between atoms: C2_2  and  S1_4 
REMARK    2  A    between atoms: S1_4  and  C3_5 
REMARK    3  A    between atoms: C3_5  and  C4_6 
REMARK    4  A    between atoms: C4_6  and  N1_7 
REMARK       I    between atoms: N1_7  and  C5_8 
REMARK    5  A    between atoms: C5_8  and  C6_10 
REMARK    6  A    between atoms: C6_10  and  C7_11 
REMARK    7  A    between atoms: C7_11  and  N2_12 
REMARK       I    between atoms: N2_12  and  C8_13 
REMARK    8  A    between atoms: C8_13  and  C9_15 
REMARK    9  A    between atoms: C9_15  and  C10_16 
REMARK   10  A    between atoms: C9_15  and  O17_54 
REMARK   11  A    between atoms: C10_16  and  C13_19 
REMARK   12  A    between atoms: C13_19  and  O4_20 
REMARK   13  A    between atoms: O4_20  and  P1_21 
REMARK   14  A    between atoms: P1_21  and  O6_23 
REMARK   15  A    between atoms: P1_21  and  O7_24 
REMARK   16  A    between atoms: O7_24  and  P2_25 
REMARK   17  A    between atoms: P2_25  and  O9_27 
REMARK   18  A    between atoms: P2_25  and  O10_28 
REMARK   19  A    between atoms: O10_28  and  C14_29 
REMARK   20  A    between atoms: C14_29  and  C15_30 
REMARK   21  A    between atoms: C16_31  and  O13_49 
REMARK   22  A    between atoms: C17_32  and  O12_48 
REMARK   23  A    between atoms: C18_33  and  N3_35 
REMARK   24  A    between atoms: C21_40  and  N7_47 
REMARK   25  A    between atoms: O13_49  and  P3_50 
REMARK   26  A    between atoms: P3_50  and  O15_52 
REMARK   27  A    between atoms: P3_50  and  O16_53 
ROOT
HETATM    1  C1  UNL     1      16.659   8.966  -6.961  1.00  0.00     0.104 C 
HETATM    2  C2  UNL     1      15.192   8.729  -7.150  1.00  0.00     0.182 C 
HETATM    3  O1  UNL     1      14.325   9.487  -6.721  1.00  0.00    -0.286 OA
ENDROOT
BRANCH   2   4
HETATM    4  S1  UNL     1      14.802   7.246  -8.011  1.00  0.00    -0.091 SA
BRANCH   4   5
HETATM    5  C3  UNL     1      16.444   6.457  -8.056  1.00  0.00     0.102 C 
BRANCH   5   6
HETATM    6  C4  UNL     1      16.520   5.245  -7.125  1.00  0.00     0.133 C 
BRANCH   6   7
HETATM    7  N1  UNL     1      17.200   5.539  -5.880  1.00  0.00    -0.360 N 
HETATM    8  C5  UNL     1      16.506   5.806  -4.722  1.00  0.00     0.219 C 
HETATM    9  O2  UNL     1      15.284   5.892  -4.690  1.00  0.00    -0.274 OA
HETATM   10  H8  UNL     1      18.211   5.538  -5.866  1.00  0.00     0.162 HD
BRANCH   8  11
HETATM   11  C6  UNL     1      17.404   6.031  -3.525  1.00  0.00     0.122 C 
BRANCH  11  12
HETATM   12  C7  UNL     1      17.629   7.518  -3.251  1.00  0.00     0.132 C 
BRANCH  12  13
HETATM   13  N2  UNL     1      16.416   8.217  -2.881  1.00  0.00    -0.358 N 
HETATM   14  C8  UNL     1      16.260   9.554  -3.196  1.00  0.00     0.247 C 
HETATM   15  O3  UNL     1      17.165  10.220  -3.682  1.00  0.00    -0.271 OA
HETATM   16  H13 UNL     1      15.575   7.645  -2.846  1.00  0.00     0.162 HD
BRANCH  14  17
HETATM   17  C9  UNL     1      14.863  10.125  -2.907  1.00  0.00     0.219 C 
BRANCH  17  18
HETATM   18  C10 UNL     1      14.773  10.980  -1.616  1.00  0.00     0.009 C 
HETATM   19  C11 UNL     1      13.380  10.910  -0.972  1.00  0.00     0.020 C 
HETATM   20  C12 UNL     1      15.806  10.528  -0.565  1.00  0.00     0.020 C 
BRANCH  18  21
HETATM   21  C13 UNL     1      15.073  12.443  -2.052  1.00  0.00     0.192 C 
BRANCH  21  22
HETATM   22  O4  UNL     1      13.945  13.285  -1.924  1.00  0.00    -0.296 OA
BRANCH  22  23
HETATM   23  P1  UNL     1      13.283  14.049  -3.169  1.00  0.00     0.401 P 
HETATM   24  O5  UNL     1      14.063  13.937  -4.441  1.00  0.00    -0.631 OA
BRANCH  23  25
HETATM   25  O6  UNL     1      13.023  15.567  -2.698  1.00  0.00    -0.307 OA
HETATM   26  H23 UNL     1      13.403  15.746  -1.829  1.00  0.00     0.222 HD
ENDBRANCH  23  25
BRANCH  23  27
HETATM   27  O7  UNL     1      11.796  13.491  -3.249  1.00  0.00    -0.195 OA
BRANCH  27  28
HETATM   28  P2  UNL     1      11.100  13.355  -4.676  1.00  0.00     0.401 P 
HETATM   29  O8  UNL     1      11.075  14.577  -5.535  1.00  0.00    -0.631 OA
BRANCH  28  30
HETATM   30  O9  UNL     1      11.855  12.112  -5.334  1.00  0.00    -0.307 OA
HETATM   31  H24 UNL     1      12.812  12.272  -5.520  1.00  0.00     0.222 HD
ENDBRANCH  28  30
BRANCH  28  32
HETATM   32  O10 UNL     1       9.680  12.700  -4.353  1.00  0.00    -0.294 OA
BRANCH  32  33
HETATM   33  C14 UNL     1       9.612  11.429  -3.761  1.00  0.00     0.215 C 
BRANCH  33  34
HETATM   34  C15 UNL     1       9.283  10.451  -4.887  1.00  0.00     0.180 C 
HETATM   35  C16 UNL     1       7.774  10.377  -5.082  1.00  0.00     0.197 C 
HETATM   36  C17 UNL     1       7.417   8.935  -4.774  1.00  0.00     0.199 C 
HETATM   37  C18 UNL     1       8.729   8.206  -5.073  1.00  0.00     0.262 C 
HETATM   38  O11 UNL     1       9.754   9.123  -4.630  1.00  0.00    -0.353 OA
BRANCH  35  39
HETATM   39  O13 UNL     1       7.486  10.725  -6.432  1.00  0.00    -0.286 OA
BRANCH  39  40
HETATM   40  P3  UNL     1       6.428  11.907  -6.628  1.00  0.00     0.391 P 
HETATM   41  O14 UNL     1       5.214  11.779  -5.766  1.00  0.00    -0.632 OA
BRANCH  40  42
HETATM   42  O15 UNL     1       6.218  11.861  -8.214  1.00  0.00    -0.307 OA
HETATM   43  H36 UNL     1       5.584  11.148  -8.461  1.00  0.00     0.222 HD
ENDBRANCH  40  42
BRANCH  40  44
HETATM   44  O16 UNL     1       7.345  13.189  -6.421  1.00  0.00    -0.307 OA
HETATM   45  H37 UNL     1       8.231  12.969  -6.092  1.00  0.00     0.222 HD
ENDBRANCH  40  44
ENDBRANCH  39  40
ENDBRANCH  35  39
BRANCH  36  46
HETATM   46  O12 UNL     1       6.262   8.541  -5.520  1.00  0.00    -0.388 OA
HETATM   47  H35 UNL     1       6.020   9.312  -6.086  1.00  0.00     0.210 HD
ENDBRANCH  36  46
BRANCH  37  48
HETATM   48  N3  UNL     1       8.859   6.968  -4.331  1.00  0.00    -0.297 N 
HETATM   49  C19 UNL     1       8.205   6.621  -3.172  1.00  0.00     0.188 A 
HETATM   50  N4  UNL     1       8.445   5.377  -2.818  1.00  0.00    -0.346 N 
HETATM   51  C20 UNL     1       9.292   4.892  -3.799  1.00  0.00     0.116 A 
HETATM   52  H4  UNL     1       8.086   4.880  -2.003  1.00  0.00     0.167 HD
HETATM   53  C21 UNL     1       9.873   3.631  -4.018  1.00  0.00     0.109 A 
HETATM   54  C23 UNL     1       9.588   5.880  -4.721  1.00  0.00     0.142 A 
HETATM   55  N5  UNL     1      10.687   3.469  -5.089  1.00  0.00    -0.341 N 
HETATM   56  C22 UNL     1      10.904   4.530  -5.892  1.00  0.00     0.183 A 
HETATM   57  H5  UNL     1      11.124   2.568  -5.283  1.00  0.00     0.167 HD
HETATM   58  N6  UNL     1      10.400   5.776  -5.788  1.00  0.00    -0.336 N 
HETATM   59  H6  UNL     1      10.605   6.539  -6.434  1.00  0.00     0.168 HD
BRANCH  53  60
HETATM   60  N7  UNL     1       9.665   2.541  -3.187  1.00  0.00    -0.287 NA
HETATM   61  H33 UNL     1      10.412   2.378  -2.516  1.00  0.00     0.125 HD
HETATM   62  H34 UNL     1       9.309   1.733  -3.679  1.00  0.00     0.125 HD
ENDBRANCH  53  60
ENDBRANCH  37  48
ENDBRANCH  33  34
ENDBRANCH  32  33
ENDBRANCH  28  32
ENDBRANCH  27  28
ENDBRANCH  23  27
ENDBRANCH  22  23
ENDBRANCH  21  22
ENDBRANCH  18  21
ENDBRANCH  17  18
BRANCH  17  63
HETATM   63  O17 UNL     1      14.417  10.920  -4.011  1.00  0.00    -0.385 OA
HETATM   64  H38 UNL     1      14.013  10.326  -4.667  1.00  0.00     0.210 HD
ENDBRANCH  17  63
ENDBRANCH  14  17
ENDBRANCH  12  13
ENDBRANCH  11  12
ENDBRANCH   8  11
ENDBRANCH   6   7
ENDBRANCH   5   6
ENDBRANCH   4   5
ENDBRANCH   2   4
TORSDOF 27
ENDMDL
MODEL 9
REMARK VINA RESULT:      -6.1      2.902      4.557
REMARK  27 active torsions:
REMARK  status: ('A' for Active; 'I' for Inactive)
REMARK    1  A    between atoms: C2_2  and  S1_4 
REMARK    2  A    between atoms: S1_4  and  C3_5 
REMARK    3  A    between atoms: C3_5  and  C4_6 
REMARK    4  A    between atoms: C4_6  and  N1_7 
REMARK       I    between atoms: N1_7  and  C5_8 
REMARK    5  A    between atoms: C5_8  and  C6_10 
REMARK    6  A    between atoms: C6_10  and  C7_11 
REMARK    7  A    between atoms: C7_11  and  N2_12 
REMARK       I    between atoms: N2_12  and  C8_13 
REMARK    8  A    between atoms: C8_13  and  C9_15 
REMARK    9  A    between atoms: C9_15  and  C10_16 
REMARK   10  A    between atoms: C9_15  and  O17_54 
REMARK   11  A    between atoms: C10_16  and  C13_19 
REMARK   12  A    between atoms: C13_19  and  O4_20 
REMARK   13  A    between atoms: O4_20  and  P1_21 
REMARK   14  A    between atoms: P1_21  and  O6_23 
REMARK   15  A    between atoms: P1_21  and  O7_24 
REMARK   16  A    between atoms: O7_24  and  P2_25 
REMARK   17  A    between atoms: P2_25  and  O9_27 
REMARK   18  A    between atoms: P2_25  and  O10_28 
REMARK   19  A    between atoms: O10_28  and  C14_29 
REMARK   20  A    between atoms: C14_29  and  C15_30 
REMARK   21  A    between atoms: C16_31  and  O13_49 
REMARK   22  A    between atoms: C17_32  and  O12_48 
REMARK   23  A    between atoms: C18_33  and  N3_35 
REMARK   24  A    between atoms: C21_40  and  N7_47 
REMARK   25  A    between atoms: O13_49  and  P3_50 
REMARK   26  A    between atoms: P3_50  and  O15_52 
REMARK   27  A    between atoms: P3_50  and  O16_53 
ROOT
HETATM    1  C1  UNL     1       8.683   9.137  -3.915  1.00  0.00     0.104 C 
HETATM    2  C2  UNL     1       7.518  10.066  -4.068  1.00  0.00     0.182 C 
HETATM    3  O1  UNL     1       7.298  11.004  -3.305  1.00  0.00    -0.286 OA
ENDROOT
BRANCH   2   4
HETATM    4  S1  UNL     1       6.455   9.681  -5.415  1.00  0.00    -0.091 SA
BRANCH   4   5
HETATM    5  C3  UNL     1       6.152  11.352  -6.076  1.00  0.00     0.102 C 
BRANCH   5   6
HETATM    6  C4  UNL     1       7.271  11.805  -7.015  1.00  0.00     0.133 C 
BRANCH   6   7
HETATM    7  N1  UNL     1       8.004  12.944  -6.503  1.00  0.00    -0.360 N 
HETATM    8  C5  UNL     1       8.307  14.027  -7.296  1.00  0.00     0.219 C 
HETATM    9  O2  UNL     1       8.048  14.061  -8.493  1.00  0.00    -0.274 OA
HETATM   10  H8  UNL     1       8.293  12.941  -5.534  1.00  0.00     0.162 HD
BRANCH   8  11
HETATM   11  C6  UNL     1       9.027  15.131  -6.553  1.00  0.00     0.122 C 
BRANCH  11  12
HETATM   12  C7  UNL     1       9.431  14.701  -5.143  1.00  0.00     0.132 C 
BRANCH  12  13
HETATM   13  N2  UNL     1      10.828  14.333  -5.040  1.00  0.00    -0.358 N 
HETATM   14  C8  UNL     1      11.188  13.010  -4.860  1.00  0.00     0.247 C 
HETATM   15  O3  UNL     1      10.360  12.130  -4.665  1.00  0.00    -0.271 OA
HETATM   16  H13 UNL     1      11.476  14.927  -5.553  1.00  0.00     0.162 HD
BRANCH  14  17
HETATM   17  C9  UNL     1      12.697  12.736  -4.946  1.00  0.00     0.219 C 
BRANCH  17  18
HETATM   18  C10 UNL     1      13.476  13.012  -3.633  1.00  0.00     0.009 C 
HETATM   19  C11 UNL     1      14.202  14.365  -3.664  1.00  0.00     0.020 C 
HETATM   20  C12 UNL     1      12.539  13.003  -2.408  1.00  0.00     0.020 C 
BRANCH  18  21
HETATM   21  C13 UNL     1      14.517  11.863  -3.505  1.00  0.00     0.192 C 
BRANCH  21  22
HETATM   22  O4  UNL     1      14.139  10.898  -2.545  1.00  0.00    -0.296 OA
BRANCH  22  23
HETATM   23  P1  UNL     1      14.842  10.775  -1.109  1.00  0.00     0.401 P 
HETATM   24  O5  UNL     1      13.935  11.072   0.044  1.00  0.00    -0.631 OA
BRANCH  23  25
HETATM   25  O6  UNL     1      16.157  11.702  -1.155  1.00  0.00    -0.307 OA
HETATM   26  H23 UNL     1      16.604  11.738  -0.299  1.00  0.00     0.222 HD
ENDBRANCH  23  25
BRANCH  23  27
HETATM   27  O7  UNL     1      15.488   9.322  -1.090  1.00  0.00    -0.195 OA
BRANCH  27  28
HETATM   28  P2  UNL     1      16.895   9.114  -0.373  1.00  0.00     0.401 P 
HETATM   29  O8  UNL     1      17.135   9.884   0.884  1.00  0.00    -0.631 OA
BRANCH  28  30
HETATM   30  O9  UNL     1      16.985   7.530  -0.194  1.00  0.00    -0.307 OA
HETATM   31  H24 UNL     1      17.101   7.236   0.743  1.00  0.00     0.222 HD
ENDBRANCH  28  30
BRANCH  28  32
HETATM   32  O10 UNL     1      17.960   9.338  -1.542  1.00  0.00    -0.294 OA
BRANCH  32  33
HETATM   33  C14 UNL     1      18.773   8.274  -1.964  1.00  0.00     0.215 C 
BRANCH  33  34
HETATM   34  C15 UNL     1      18.767   8.313  -3.491  1.00  0.00     0.180 C 
HETATM   35  C16 UNL     1      17.991   9.531  -3.973  1.00  0.00     0.197 C 
HETATM   36  C17 UNL     1      16.824   8.958  -4.756  1.00  0.00     0.199 C 
HETATM   37  C18 UNL     1      17.369   7.597  -5.197  1.00  0.00     0.262 C 
HETATM   38  O11 UNL     1      18.166   7.152  -4.077  1.00  0.00    -0.353 OA
BRANCH  35  39
HETATM   39  O13 UNL     1      18.856  10.310  -4.792  1.00  0.00    -0.286 OA
BRANCH  39  40
HETATM   40  P3  UNL     1      18.915  11.870  -4.444  1.00  0.00     0.391 P 
HETATM   41  O14 UNL     1      20.286  12.456  -4.536  1.00  0.00    -0.632 OA
BRANCH  40  42
HETATM   42  O15 UNL     1      18.197  11.884  -3.014  1.00  0.00    -0.307 OA
HETATM   43  H36 UNL     1      18.750  11.419  -2.342  1.00  0.00     0.222 HD
ENDBRANCH  40  42
BRANCH  40  44
HETATM   44  O16 UNL     1      17.798  12.452  -5.415  1.00  0.00    -0.307 OA
HETATM   45  H37 UNL     1      17.842  12.074  -6.308  1.00  0.00     0.222 HD
ENDBRANCH  40  44
ENDBRANCH  39  40
ENDBRANCH  35  39
BRANCH  36  46
HETATM   46  O12 UNL     1      16.422   9.868  -5.783  1.00  0.00    -0.388 OA
HETATM   47  H35 UNL     1      15.630  10.345  -5.437  1.00  0.00     0.210 HD
ENDBRANCH  36  46
BRANCH  37  48
HETATM   48  N3  UNL     1      16.318   6.628  -5.436  1.00  0.00    -0.297 N 
HETATM   49  C19 UNL     1      15.842   5.685  -4.555  1.00  0.00     0.188 A 
HETATM   50  N4  UNL     1      14.798   5.042  -5.030  1.00  0.00    -0.346 N 
HETATM   51  C20 UNL     1      14.584   5.598  -6.279  1.00  0.00     0.116 A 
HETATM   52  H4  UNL     1      14.265   4.298  -4.579  1.00  0.00     0.167 HD
HETATM   53  C21 UNL     1      13.606   5.379  -7.265  1.00  0.00     0.109 A 
HETATM   54  C23 UNL     1      15.542   6.555  -6.559  1.00  0.00     0.142 A 
HETATM   55  N5  UNL     1      13.673   6.093  -8.415  1.00  0.00    -0.341 N 
HETATM   56  C22 UNL     1      14.680   6.977  -8.560  1.00  0.00     0.183 A 
HETATM   57  H5  UNL     1      12.979   5.964  -9.152  1.00  0.00     0.167 HD
HETATM   58  N6  UNL     1      15.663   7.277  -7.687  1.00  0.00    -0.336 N 
HETATM   59  H6  UNL     1      16.401   7.961  -7.859  1.00  0.00     0.168 HD
BRANCH  53  60
HETATM   60  N7  UNL     1      12.577   4.461  -7.127  1.00  0.00    -0.287 NA
HETATM   61  H33 UNL     1      12.482   4.076  -6.190  1.00  0.00     0.125 HD
HETATM   62  H34 UNL     1      12.527   3.806  -7.896  1.00  0.00     0.125 HD
ENDBRANCH  53  60
ENDBRANCH  37  48
ENDBRANCH  33  34
ENDBRANCH  32  33
ENDBRANCH  28  32
ENDBRANCH  27  28
ENDBRANCH  23  27
ENDBRANCH  22  23
ENDBRANCH  21  22
ENDBRANCH  18  21
ENDBRANCH  17  18
BRANCH  17  63
HETATM   63  O17 UNL     1      12.930  11.378  -5.336  1.00  0.00    -0.385 OA
HETATM   64  H38 UNL     1      13.888  11.255  -5.441  1.00  0.00     0.210 HD
ENDBRANCH  17  63
ENDBRANCH  14  17
ENDBRANCH  12  13
ENDBRANCH  11  12
ENDBRANCH   8  11
ENDBRANCH   6   7
ENDBRANCH   5   6
ENDBRANCH   4   5
ENDBRANCH   2   4
TORSDOF 27
ENDMDL
MODEL 10
REMARK VINA RESULT:      -6.0      5.565      9.807
REMARK  27 active torsions:
REMARK  status: ('A' for Active; 'I' for Inactive)
REMARK    1  A    between atoms: C2_2  and  S1_4 
REMARK    2  A    between atoms: S1_4  and  C3_5 
REMARK    3  A    between atoms: C3_5  and  C4_6 
REMARK    4  A    between atoms: C4_6  and  N1_7 
REMARK       I    between atoms: N1_7  and  C5_8 
REMARK    5  A    between atoms: C5_8  and  C6_10 
REMARK    6  A    between atoms: C6_10  and  C7_11 
REMARK    7  A    between atoms: C7_11  and  N2_12 
REMARK       I    between atoms: N2_12  and  C8_13 
REMARK    8  A    between atoms: C8_13  and  C9_15 
REMARK    9  A    between atoms: C9_15  and  C10_16 
REMARK   10  A    between atoms: C9_15  and  O17_54 
REMARK   11  A    between atoms: C10_16  and  C13_19 
REMARK   12  A    between atoms: C13_19  and  O4_20 
REMARK   13  A    between atoms: O4_20  and  P1_21 
REMARK   14  A    between atoms: P1_21  and  O6_23 
REMARK   15  A    between atoms: P1_21  and  O7_24 
REMARK   16  A    between atoms: O7_24  and  P2_25 
REMARK   17  A    between atoms: P2_25  and  O9_27 
REMARK   18  A    between atoms: P2_25  and  O10_28 
REMARK   19  A    between atoms: O10_28  and  C14_29 
REMARK   20  A    between atoms: C14_29  and  C15_30 
REMARK   21  A    between atoms: C16_31  and  O13_49 
REMARK   22  A    between atoms: C17_32  and  O12_48 
REMARK   23  A    between atoms: C18_33  and  N3_35 
REMARK   24  A    between atoms: C21_40  and  N7_47 
REMARK   25  A    between atoms: O13_49  and  P3_50 
REMARK   26  A    between atoms: P3_50  and  O15_52 
REMARK   27  A    between atoms: P3_50  and  O16_53 
ROOT
HETATM    1  C1  UNL     1       8.636   5.750  -3.668  1.00  0.00     0.104 C 
HETATM    2  C2  UNL     1       8.588   5.693  -5.165  1.00  0.00     0.182 C 
HETATM    3  O1  UNL     1       7.788   5.000  -5.788  1.00  0.00    -0.286 OA
ENDROOT
BRANCH   2   4
HETATM    4  S1  UNL     1       9.806   6.676  -5.967  1.00  0.00    -0.091 SA
BRANCH   4   5
HETATM    5  C3  UNL     1      10.817   5.371  -6.739  1.00  0.00     0.102 C 
BRANCH   5   6
HETATM    6  C4  UNL     1      12.251   5.371  -6.206  1.00  0.00     0.133 C 
BRANCH   6   7
HETATM    7  N1  UNL     1      12.978   6.575  -6.555  1.00  0.00    -0.360 N 
HETATM    8  C5  UNL     1      14.156   6.530  -7.263  1.00  0.00     0.219 C 
HETATM    9  O2  UNL     1      14.701   5.476  -7.571  1.00  0.00    -0.274 OA
HETATM   10  H8  UNL     1      12.600   7.470  -6.273  1.00  0.00     0.162 HD
BRANCH   8  11
HETATM   11  C6  UNL     1      14.723   7.899  -7.571  1.00  0.00     0.122 C 
BRANCH  11  12
HETATM   12  C7  UNL     1      16.203   7.999  -7.203  1.00  0.00     0.132 C 
BRANCH  12  13
HETATM   13  N2  UNL     1      16.484   7.553  -5.855  1.00  0.00    -0.358 N 
HETATM   14  C8  UNL     1      17.450   6.590  -5.628  1.00  0.00     0.247 C 
HETATM   15  O3  UNL     1      18.011   6.000  -6.543  1.00  0.00    -0.271 OA
HETATM   16  H13 UNL     1      16.337   8.246  -5.124  1.00  0.00     0.162 HD
BRANCH  14  17
HETATM   17  C9  UNL     1      17.772   6.338  -4.147  1.00  0.00     0.219 C 
BRANCH  17  18
HETATM   18  C10 UNL     1      19.051   7.053  -3.637  1.00  0.00     0.009 C 
HETATM   19  C11 UNL     1      19.138   7.057  -2.103  1.00  0.00     0.020 C 
HETATM   20  C12 UNL     1      20.329   6.385  -4.183  1.00  0.00     0.020 C 
BRANCH  18  21
HETATM   21  C13 UNL     1      18.959   8.516  -4.159  1.00  0.00     0.192 C 
BRANCH  21  22
HETATM   22  O4  UNL     1      18.033   9.292  -3.425  1.00  0.00    -0.296 OA
BRANCH  22  23
HETATM   23  P1  UNL     1      17.500  10.718  -3.928  1.00  0.00     0.401 P 
HETATM   24  O5  UNL     1      17.228  10.785  -5.398  1.00  0.00    -0.631 OA
BRANCH  23  25
HETATM   25  O6  UNL     1      18.556  11.818  -3.412  1.00  0.00    -0.307 OA
HETATM   26  H23 UNL     1      19.293  11.415  -2.934  1.00  0.00     0.222 HD
ENDBRANCH  23  25
BRANCH  23  27
HETATM   27  O7  UNL     1      16.245  11.037  -3.005  1.00  0.00    -0.195 OA
BRANCH  27  28
HETATM   28  P2  UNL     1      15.173   9.889  -2.739  1.00  0.00     0.401 P 
HETATM   29  O8  UNL     1      14.710   9.108  -3.925  1.00  0.00    -0.631 OA
BRANCH  28  30
HETATM   30  O9  UNL     1      15.859   9.003  -1.602  1.00  0.00    -0.307 OA
HETATM   31  H24 UNL     1      16.718   9.363  -1.273  1.00  0.00     0.222 HD
ENDBRANCH  28  30
BRANCH  28  32
HETATM   32  O10 UNL     1      14.030  10.617  -1.894  1.00  0.00    -0.294 OA
BRANCH  32  33
HETATM   33  C14 UNL     1      14.371  11.597  -0.948  1.00  0.00     0.215 C 
BRANCH  33  34
HETATM   34  C15 UNL     1      14.112  10.975   0.423  1.00  0.00     0.180 C 
HETATM   35  C16 UNL     1      14.091  12.064   1.487  1.00  0.00     0.197 C 
HETATM   36  C17 UNL     1      15.245  11.722   2.411  1.00  0.00     0.199 C 
HETATM   37  C18 UNL     1      15.387  10.212   2.203  1.00  0.00     0.262 C 
HETATM   38  O11 UNL     1      15.108  10.017   0.799  1.00  0.00    -0.353 OA
BRANCH  35  39
HETATM   39  O13 UNL     1      12.834  12.006   2.153  1.00  0.00    -0.286 OA
BRANCH  39  40
HETATM   40  P3  UNL     1      12.051  13.395   2.271  1.00  0.00     0.391 P 
HETATM   41  O14 UNL     1      12.001  14.168   0.993  1.00  0.00    -0.632 OA
BRANCH  40  42
HETATM   42  O15 UNL     1      12.811  14.062   3.511  1.00  0.00    -0.307 OA
HETATM   43  H36 UNL     1      12.817  13.451   4.286  1.00  0.00     0.222 HD
ENDBRANCH  40  42
BRANCH  40  44
HETATM   44  O16 UNL     1      10.670  12.925   2.903  1.00  0.00    -0.307 OA
HETATM   45  H37 UNL     1      10.520  13.287   3.791  1.00  0.00     0.222 HD
ENDBRANCH  40  44
ENDBRANCH  39  40
ENDBRANCH  35  39
BRANCH  36  46
HETATM   46  O12 UNL     1      14.971  12.179   3.737  1.00  0.00    -0.388 OA
HETATM   47  H35 UNL     1      15.810  12.573   4.075  1.00  0.00     0.210 HD
ENDBRANCH  36  46
BRANCH  37  48
HETATM   48  N3  UNL     1      16.727   9.736   2.483  1.00  0.00    -0.297 N 
HETATM   49  C19 UNL     1      17.145   9.034   3.590  1.00  0.00     0.188 A 
HETATM   50  N4  UNL     1      18.395   8.638   3.486  1.00  0.00    -0.346 N 
HETATM   51  C20 UNL     1      18.805   9.100   2.248  1.00  0.00     0.116 A 
HETATM   52  H4  UNL     1      18.940   8.107   4.165  1.00  0.00     0.167 HD
HETATM   53  C21 UNL     1      20.010   8.972   1.534  1.00  0.00     0.109 A 
HETATM   54  C23 UNL     1      17.794   9.816   1.633  1.00  0.00     0.142 A 
HETATM   55  N5  UNL     1      20.109   9.562   0.318  1.00  0.00    -0.341 N 
HETATM   56  C22 UNL     1      19.047  10.250  -0.147  1.00  0.00     0.183 A 
HETATM   57  H5  UNL     1      20.966   9.488  -0.231  1.00  0.00     0.167 HD
HETATM   58  N6  UNL     1      17.847  10.433   0.439  1.00  0.00    -0.336 N 
HETATM   59  H6  UNL     1      17.080  10.968   0.032  1.00  0.00     0.168 HD
BRANCH  53  60
HETATM   60  N7  UNL     1      21.110   8.278   2.013  1.00  0.00    -0.287 NA
HETATM   61  H33 UNL     1      21.027   7.980   2.983  1.00  0.00     0.125 HD
HETATM   62  H34 UNL     1      21.989   8.695   1.739  1.00  0.00     0.125 HD
ENDBRANCH  53  60
ENDBRANCH  37  48
ENDBRANCH  33  34
ENDBRANCH  32  33
ENDBRANCH  28  32
ENDBRANCH  27  28
ENDBRANCH  23  27
ENDBRANCH  22  23
ENDBRANCH  21  22
ENDBRANCH  18  21
ENDBRANCH  17  18
BRANCH  17  63
HETATM   63  O17 UNL     1      16.669   6.739  -3.327  1.00  0.00    -0.385 OA
HETATM   64  H38 UNL     1      15.949   7.029  -3.912  1.00  0.00     0.210 HD
ENDBRANCH  17  63
ENDBRANCH  14  17
ENDBRANCH  12  13
ENDBRANCH  11  12
ENDBRANCH   8  11
ENDBRANCH   6   7
ENDBRANCH   5   6
ENDBRANCH   4   5
ENDBRANCH   2   4
TORSDOF 27
ENDMDL
MODEL 11
REMARK VINA RESULT:      -6.0      4.751      9.070
REMARK  27 active torsions:
REMARK  status: ('A' for Active; 'I' for Inactive)
REMARK    1  A    between atoms: C2_2  and  S1_4 
REMARK    2  A    between atoms: S1_4  and  C3_5 
REMARK    3  A    between atoms: C3_5  and  C4_6 
REMARK    4  A    between atoms: C4_6  and  N1_7 
REMARK       I    between atoms: N1_7  and  C5_8 
REMARK    5  A    between atoms: C5_8  and  C6_10 
REMARK    6  A    between atoms: C6_10  and  C7_11 
REMARK    7  A    between atoms: C7_11  and  N2_12 
REMARK       I    between atoms: N2_12  and  C8_13 
REMARK    8  A    between atoms: C8_13  and  C9_15 
REMARK    9  A    between atoms: C9_15  and  C10_16 
REMARK   10  A    between atoms: C9_15  and  O17_54 
REMARK   11  A    between atoms: C10_16  and  C13_19 
REMARK   12  A    between atoms: C13_19  and  O4_20 
REMARK   13  A    between atoms: O4_20  and  P1_21 
REMARK   14  A    between atoms: P1_21  and  O6_23 
REMARK   15  A    between atoms: P1_21  and  O7_24 
REMARK   16  A    between atoms: O7_24  and  P2_25 
REMARK   17  A    between atoms: P2_25  and  O9_27 
REMARK   18  A    between atoms: P2_25  and  O10_28 
REMARK   19  A    between atoms: O10_28  and  C14_29 
REMARK   20  A    between atoms: C14_29  and  C15_30 
REMARK   21  A    between atoms: C16_31  and  O13_49 
REMARK   22  A    between atoms: C17_32  and  O12_48 
REMARK   23  A    between atoms: C18_33  and  N3_35 
REMARK   24  A    between atoms: C21_40  and  N7_47 
REMARK   25  A    between atoms: O13_49  and  P3_50 
REMARK   26  A    between atoms: P3_50  and  O15_52 
REMARK   27  A    between atoms: P3_50  and  O16_53 
ROOT
HETATM    1  C1  UNL     1      10.302   4.263  -4.759  1.00  0.00     0.104 C 
HETATM    2  C2  UNL     1      10.410   5.058  -6.024  1.00  0.00     0.182 C 
HETATM    3  O1  UNL     1       9.569   5.020  -6.918  1.00  0.00    -0.286 OA
ENDROOT
BRANCH   2   4
HETATM    4  S1  UNL     1      11.872   6.028  -6.148  1.00  0.00    -0.091 SA
BRANCH   4   5
HETATM    5  C3  UNL     1      12.866   4.975  -7.254  1.00  0.00     0.102 C 
BRANCH   5   6
HETATM    6  C4  UNL     1      13.563   5.792  -8.344  1.00  0.00     0.133 C 
BRANCH   6   7
HETATM    7  N1  UNL     1      14.228   6.968  -7.822  1.00  0.00    -0.360 N 
HETATM    8  C5  UNL     1      15.575   7.179  -8.004  1.00  0.00     0.219 C 
HETATM    9  O2  UNL     1      16.305   6.355  -8.543  1.00  0.00    -0.274 OA
HETATM   10  H8  UNL     1      13.681   7.653  -7.318  1.00  0.00     0.162 HD
BRANCH   8  11
HETATM   11  C6  UNL     1      16.059   8.493  -7.430  1.00  0.00     0.122 C 
BRANCH  11  12
HETATM   12  C7  UNL     1      17.392   8.340  -6.699  1.00  0.00     0.132 C 
BRANCH  12  13
HETATM   13  N2  UNL     1      17.241   7.905  -5.327  1.00  0.00    -0.358 N 
HETATM   14  C8  UNL     1      17.702   6.661  -4.936  1.00  0.00     0.247 C 
HETATM   15  O3  UNL     1      18.139   5.846  -5.738  1.00  0.00    -0.271 OA
HETATM   16  H13 UNL     1      17.250   8.646  -4.629  1.00  0.00     0.162 HD
BRANCH  14  17
HETATM   17  C9  UNL     1      17.640   6.398  -3.424  1.00  0.00     0.219 C 
BRANCH  17  18
HETATM   18  C10 UNL     1      19.024   6.328  -2.726  1.00  0.00     0.009 C 
HETATM   19  C11 UNL     1      18.928   6.622  -1.222  1.00  0.00     0.020 C 
HETATM   20  C12 UNL     1      19.674   4.941  -2.899  1.00  0.00     0.020 C 
BRANCH  18  21
HETATM   21  C13 UNL     1      19.904   7.410  -3.415  1.00  0.00     0.192 C 
BRANCH  21  22
HETATM   22  O4  UNL     1      19.875   8.645  -2.728  1.00  0.00    -0.296 OA
BRANCH  22  23
HETATM   23  P1  UNL     1      19.335   9.999  -3.395  1.00  0.00     0.401 P 
HETATM   24  O5  UNL     1      19.637  10.125  -4.855  1.00  0.00    -0.631 OA
BRANCH  23  25
HETATM   25  O6  UNL     1      19.906  11.215  -2.507  1.00  0.00    -0.307 OA
HETATM   26  H23 UNL     1      20.605  11.700  -2.964  1.00  0.00     0.222 HD
ENDBRANCH  23  25
BRANCH  23  27
HETATM   27  O7  UNL     1      17.788  10.049  -3.029  1.00  0.00    -0.195 OA
BRANCH  27  28
HETATM   28  P2  UNL     1      16.917  11.283  -3.534  1.00  0.00     0.401 P 
HETATM   29  O8  UNL     1      17.345  12.642  -3.085  1.00  0.00    -0.631 OA
BRANCH  28  30
HETATM   30  O9  UNL     1      16.900  11.097  -5.120  1.00  0.00    -0.307 OA
HETATM   31  H24 UNL     1      16.490  11.850  -5.611  1.00  0.00     0.222 HD
ENDBRANCH  28  30
BRANCH  28  32
HETATM   32  O10 UNL     1      15.417  10.870  -3.174  1.00  0.00    -0.294 OA
BRANCH  32  33
HETATM   33  C14 UNL     1      15.126  10.301  -1.925  1.00  0.00     0.215 C 
BRANCH  33  34
HETATM   34  C15 UNL     1      14.895  11.468  -0.967  1.00  0.00     0.180 C 
HETATM   35  C16 UNL     1      15.873  11.380   0.197  1.00  0.00     0.197 C 
HETATM   36  C17 UNL     1      14.996  11.212   1.424  1.00  0.00     0.199 C 
HETATM   37  C18 UNL     1      13.682  11.853   0.972  1.00  0.00     0.262 C 
HETATM   38  O11 UNL     1      13.570  11.491  -0.423  1.00  0.00    -0.353 OA
BRANCH  35  39
HETATM   39  O13 UNL     1      16.623  12.589   0.236  1.00  0.00    -0.286 OA
BRANCH  39  40
HETATM   40  P3  UNL     1      18.192  12.419   0.491  1.00  0.00     0.391 P 
HETATM   41  O14 UNL     1      18.613  12.735   1.890  1.00  0.00    -0.632 OA
BRANCH  40  42
HETATM   42  O15 UNL     1      18.787  13.327  -0.685  1.00  0.00    -0.307 OA
HETATM   43  H36 UNL     1      18.126  13.437  -1.409  1.00  0.00     0.222 HD
ENDBRANCH  40  42
BRANCH  40  44
HETATM   44  O16 UNL     1      18.438  10.939  -0.036  1.00  0.00    -0.307 OA
HETATM   45  H37 UNL     1      18.757  10.340   0.659  1.00  0.00     0.222 HD
ENDBRANCH  40  44
ENDBRANCH  39  40
ENDBRANCH  35  39
BRANCH  36  46
HETATM   46  O12 UNL     1      15.638  11.771   2.573  1.00  0.00    -0.388 OA
HETATM   47  H35 UNL     1      16.560  11.420   2.575  1.00  0.00     0.210 HD
ENDBRANCH  36  46
BRANCH  37  48
HETATM   48  N3  UNL     1      12.533  11.328   1.683  1.00  0.00    -0.297 N 
HETATM   49  C19 UNL     1      12.280  10.013   1.997  1.00  0.00     0.188 A 
HETATM   50  N4  UNL     1      11.216   9.878   2.758  1.00  0.00    -0.346 N 
HETATM   51  C20 UNL     1      10.759  11.170   2.951  1.00  0.00     0.116 A 
HETATM   52  H4  UNL     1      10.817   9.015   3.125  1.00  0.00     0.167 HD
HETATM   53  C21 UNL     1       9.694  11.703   3.697  1.00  0.00     0.109 A 
HETATM   54  C23 UNL     1      11.543  12.075   2.258  1.00  0.00     0.142 A 
HETATM   55  N5  UNL     1       9.494  13.043   3.677  1.00  0.00    -0.341 N 
HETATM   56  C22 UNL     1      10.325  13.802   2.935  1.00  0.00     0.183 A 
HETATM   57  H5  UNL     1       8.733  13.467   4.209  1.00  0.00     0.167 HD
HETATM   58  N6  UNL     1      11.379  13.408   2.191  1.00  0.00    -0.336 N 
HETATM   59  H6  UNL     1      11.972  14.037   1.649  1.00  0.00     0.168 HD
BRANCH  53  60
HETATM   60  N7  UNL     1       8.827  10.926   4.450  1.00  0.00    -0.287 NA
HETATM   61  H33 UNL     1       8.425  10.140   3.945  1.00  0.00     0.125 HD
HETATM   62  H34 UNL     1       8.195  11.476   5.016  1.00  0.00     0.125 HD
ENDBRANCH  53  60
ENDBRANCH  37  48
ENDBRANCH  33  34
ENDBRANCH  32  33
ENDBRANCH  28  32
ENDBRANCH  27  28
ENDBRANCH  23  27
ENDBRANCH  22  23
ENDBRANCH  21  22
ENDBRANCH  18  21
ENDBRANCH  17  18
BRANCH  17  63
HETATM   63  O17 UNL     1      16.856   7.408  -2.779  1.00  0.00    -0.385 OA
HETATM   64  H38 UNL     1      16.896   7.255  -1.820  1.00  0.00     0.210 HD
ENDBRANCH  17  63
ENDBRANCH  14  17
ENDBRANCH  12  13
ENDBRANCH  11  12
ENDBRANCH   8  11
ENDBRANCH   6   7
ENDBRANCH   5   6
ENDBRANCH   4   5
ENDBRANCH   2   4
TORSDOF 27
ENDMDL
MODEL 12
REMARK VINA RESULT:      -5.9      4.674      9.696
REMARK  27 active torsions:
REMARK  status: ('A' for Active; 'I' for Inactive)
REMARK    1  A    between atoms: C2_2  and  S1_4 
REMARK    2  A    between atoms: S1_4  and  C3_5 
REMARK    3  A    between atoms: C3_5  and  C4_6 
REMARK    4  A    between atoms: C4_6  and  N1_7 
REMARK       I    between atoms: N1_7  and  C5_8 
REMARK    5  A    between atoms: C5_8  and  C6_10 
REMARK    6  A    between atoms: C6_10  and  C7_11 
REMARK    7  A    between atoms: C7_11  and  N2_12 
REMARK       I    between atoms: N2_12  and  C8_13 
REMARK    8  A    between atoms: C8_13  and  C9_15 
REMARK    9  A    between atoms: C9_15  and  C10_16 
REMARK   10  A    between atoms: C9_15  and  O17_54 
REMARK   11  A    between atoms: C10_16  and  C13_19 
REMARK   12  A    between atoms: C13_19  and  O4_20 
REMARK   13  A    between atoms: O4_20  and  P1_21 
REMARK   14  A    between atoms: P1_21  and  O6_23 
REMARK   15  A    between atoms: P1_21  and  O7_24 
REMARK   16  A    between atoms: O7_24  and  P2_25 
REMARK   17  A    between atoms: P2_25  and  O9_27 
REMARK   18  A    between atoms: P2_25  and  O10_28 
REMARK   19  A    between atoms: O10_28  and  C14_29 
REMARK   20  A    between atoms: C14_29  and  C15_30 
REMARK   21  A    between atoms: C16_31  and  O13_49 
REMARK   22  A    between atoms: C17_32  and  O12_48 
REMARK   23  A    between atoms: C18_33  and  N3_35 
REMARK   24  A    between atoms: C21_40  and  N7_47 
REMARK   25  A    between atoms: O13_49  and  P3_50 
REMARK   26  A    between atoms: P3_50  and  O15_52 
REMARK   27  A    between atoms: P3_50  and  O16_53 
ROOT
HETATM    1  C1  UNL     1       8.777   6.895  -5.349  1.00  0.00     0.104 C 
HETATM    2  C2  UNL     1       8.644   5.403  -5.365  1.00  0.00     0.182 C 
HETATM    3  O1  UNL     1       7.579   4.822  -5.561  1.00  0.00    -0.286 OA
ENDROOT
BRANCH   2   4
HETATM    4  S1  UNL     1      10.140   4.538  -5.038  1.00  0.00    -0.091 SA
BRANCH   4   5
HETATM    5  C3  UNL     1      11.010   4.786  -6.620  1.00  0.00     0.102 C 
BRANCH   5   6
HETATM    6  C4  UNL     1      12.097   5.857  -6.511  1.00  0.00     0.133 C 
BRANCH   6   7
HETATM    7  N1  UNL     1      13.364   5.323  -6.055  1.00  0.00    -0.360 N 
HETATM    8  C5  UNL     1      14.433   5.168  -6.906  1.00  0.00     0.219 C 
HETATM    9  O2  UNL     1      14.357   5.393  -8.109  1.00  0.00    -0.274 OA
HETATM   10  H8  UNL     1      13.462   5.066  -5.081  1.00  0.00     0.162 HD
BRANCH   8  11
HETATM   11  C6  UNL     1      15.677   4.648  -6.218  1.00  0.00     0.122 C 
BRANCH  11  12
HETATM   12  C7  UNL     1      16.940   5.353  -6.712  1.00  0.00     0.132 C 
BRANCH  12  13
HETATM   13  N2  UNL     1      17.965   5.460  -5.695  1.00  0.00    -0.358 N 
HETATM   14  C8  UNL     1      17.795   6.315  -4.622  1.00  0.00     0.247 C 
HETATM   15  O3  UNL     1      16.850   7.090  -4.549  1.00  0.00    -0.271 OA
HETATM   16  H13 UNL     1      18.514   4.618  -5.537  1.00  0.00     0.162 HD
BRANCH  14  17
HETATM   17  C9  UNL     1      18.870   6.200  -3.531  1.00  0.00     0.219 C 
BRANCH  17  18
HETATM   18  C10 UNL     1      19.733   7.476  -3.341  1.00  0.00     0.009 C 
HETATM   19  C11 UNL     1      21.089   7.166  -2.690  1.00  0.00     0.020 C 
HETATM   20  C12 UNL     1      20.001   8.182  -4.686  1.00  0.00     0.020 C 
BRANCH  18  21
HETATM   21  C13 UNL     1      18.909   8.413  -2.412  1.00  0.00     0.192 C 
BRANCH  21  22
HETATM   22  O4  UNL     1      19.504   8.568  -1.139  1.00  0.00    -0.296 OA
BRANCH  22  23
HETATM   23  P1  UNL     1      18.668   8.501   0.227  1.00  0.00     0.401 P 
HETATM   24  O5  UNL     1      19.513   8.411   1.458  1.00  0.00    -0.631 OA
BRANCH  23  25
HETATM   25  O6  UNL     1      17.617   7.291   0.071  1.00  0.00    -0.307 OA
HETATM   26  H23 UNL     1      17.958   6.587  -0.497  1.00  0.00     0.222 HD
ENDBRANCH  23  25
BRANCH  23  27
HETATM   27  O7  UNL     1      17.697   9.760   0.177  1.00  0.00    -0.195 OA
BRANCH  27  28
HETATM   28  P2  UNL     1      16.345   9.725   1.018  1.00  0.00     0.401 P 
HETATM   29  O8  UNL     1      15.130   9.201   0.324  1.00  0.00    -0.631 OA
BRANCH  28  30
HETATM   30  O9  UNL     1      16.750   8.907   2.328  1.00  0.00    -0.307 OA
HETATM   31  H24 UNL     1      17.574   9.231   2.768  1.00  0.00     0.222 HD
ENDBRANCH  28  30
BRANCH  28  32
HETATM   32  O10 UNL     1      16.224  11.200   1.618  1.00  0.00    -0.294 OA
BRANCH  32  33
HETATM   33  C14 UNL     1      14.995  11.655   2.120  1.00  0.00     0.215 C 
BRANCH  33  34
HETATM   34  C15 UNL     1      14.642  12.905   1.316  1.00  0.00     0.180 C 
HETATM   35  C16 UNL     1      13.229  12.779   0.761  1.00  0.00     0.197 C 
HETATM   36  C17 UNL     1      13.404  12.804  -0.745  1.00  0.00     0.199 C 
HETATM   37  C18 UNL     1      14.721  13.568  -0.905  1.00  0.00     0.262 C 
HETATM   38  O11 UNL     1      15.526  13.127   0.211  1.00  0.00    -0.353 OA
BRANCH  35  39
HETATM   39  O13 UNL     1      12.470  13.887   1.232  1.00  0.00    -0.286 OA
BRANCH  39  40
HETATM   40  P3  UNL     1      11.509  13.587   2.474  1.00  0.00     0.391 P 
HETATM   41  O14 UNL     1      11.021  12.175   2.531  1.00  0.00    -0.632 OA
BRANCH  40  42
HETATM   42  O15 UNL     1      10.416  14.741   2.292  1.00  0.00    -0.307 OA
HETATM   43  H36 UNL     1      10.132  15.093   3.169  1.00  0.00     0.222 HD
ENDBRANCH  40  42
BRANCH  40  44
HETATM   44  O16 UNL     1      12.390  14.111   3.689  1.00  0.00    -0.307 OA
HETATM   45  H37 UNL     1      13.343  14.058   3.513  1.00  0.00     0.222 HD
ENDBRANCH  40  44
ENDBRANCH  39  40
ENDBRANCH  35  39
BRANCH  36  46
HETATM   46  O12 UNL     1      12.244  13.358  -1.370  1.00  0.00    -0.388 OA
HETATM   47  H35 UNL     1      12.355  13.213  -2.340  1.00  0.00     0.210 HD
ENDBRANCH  36  46
BRANCH  37  48
HETATM   48  N3  UNL     1      15.411  13.237  -2.136  1.00  0.00    -0.297 N 
HETATM   49  C19 UNL     1      16.182  14.075  -2.907  1.00  0.00     0.188 A 
HETATM   50  N4  UNL     1      16.774  13.439  -3.894  1.00  0.00    -0.346 N 
HETATM   51  C20 UNL     1      16.371  12.123  -3.753  1.00  0.00     0.116 A 
HETATM   52  H4  UNL     1      17.393  13.829  -4.605  1.00  0.00     0.167 HD
HETATM   53  C21 UNL     1      16.685  10.949  -4.460  1.00  0.00     0.109 A 
HETATM   54  C23 UNL     1      15.495  11.991  -2.691  1.00  0.00     0.142 A 
HETATM   55  N5  UNL     1      16.106   9.785  -4.076  1.00  0.00    -0.341 N 
HETATM   56  C22 UNL     1      15.251   9.812  -3.034  1.00  0.00     0.183 A 
HETATM   57  H5  UNL     1      16.312   8.913  -4.562  1.00  0.00     0.167 HD
HETATM   58  N6  UNL     1      14.882  10.867  -2.280  1.00  0.00    -0.336 N 
HETATM   59  H6  UNL     1      14.226  10.819  -1.500  1.00  0.00     0.168 HD
BRANCH  53  60
HETATM   60  N7  UNL     1      17.552  10.919  -5.541  1.00  0.00    -0.287 NA
HETATM   61  H33 UNL     1      17.371  10.167  -6.202  1.00  0.00     0.125 HD
HETATM   62  H34 UNL     1      18.517  11.072  -5.277  1.00  0.00     0.125 HD
ENDBRANCH  53  60
ENDBRANCH  37  48
ENDBRANCH  33  34
ENDBRANCH  32  33
ENDBRANCH  28  32
ENDBRANCH  27  28
ENDBRANCH  23  27
ENDBRANCH  22  23
ENDBRANCH  21  22
ENDBRANCH  18  21
ENDBRANCH  17  18
BRANCH  17  63
HETATM   63  O17 UNL     1      18.265   5.870  -2.276  1.00  0.00    -0.385 OA
HETATM   64  H38 UNL     1      17.342   5.618  -2.443  1.00  0.00     0.210 HD
ENDBRANCH  17  63
ENDBRANCH  14  17
ENDBRANCH  12  13
ENDBRANCH  11  12
ENDBRANCH   8  11
ENDBRANCH   6   7
ENDBRANCH   5   6
ENDBRANCH   4   5
ENDBRANCH   2   4
TORSDOF 27
ENDMDL
MODEL 13
REMARK VINA RESULT:      -5.8      4.386      9.319
REMARK  27 active torsions:
REMARK  status: ('A' for Active; 'I' for Inactive)
REMARK    1  A    between atoms: C2_2  and  S1_4 
REMARK    2  A    between atoms: S1_4  and  C3_5 
REMARK    3  A    between atoms: C3_5  and  C4_6 
REMARK    4  A    between atoms: C4_6  and  N1_7 
REMARK       I    between atoms: N1_7  and  C5_8 
REMARK    5  A    between atoms: C5_8  and  C6_10 
REMARK    6  A    between atoms: C6_10  and  C7_11 
REMARK    7  A    between atoms: C7_11  and  N2_12 
REMARK       I    between atoms: N2_12  and  C8_13 
REMARK    8  A    between atoms: C8_13  and  C9_15 
REMARK    9  A    between atoms: C9_15  and  C10_16 
REMARK   10  A    between atoms: C9_15  and  O17_54 
REMARK   11  A    between atoms: C10_16  and  C13_19 
REMARK   12  A    between atoms: C13_19  and  O4_20 
REMARK   13  A    between atoms: O4_20  and  P1_21 
REMARK   14  A    between atoms: P1_21  and  O6_23 
REMARK   15  A    between atoms: P1_21  and  O7_24 
REMARK   16  A    between atoms: O7_24  and  P2_25 
REMARK   17  A    between atoms: P2_25  and  O9_27 
REMARK   18  A    between atoms: P2_25  and  O10_28 
REMARK   19  A    between atoms: O10_28  and  C14_29 
REMARK   20  A    between atoms: C14_29  and  C15_30 
REMARK   21  A    between atoms: C16_31  and  O13_49 
REMARK   22  A    between atoms: C17_32  and  O12_48 
REMARK   23  A    between atoms: C18_33  and  N3_35 
REMARK   24  A    between atoms: C21_40  and  N7_47 
REMARK   25  A    between atoms: O13_49  and  P3_50 
REMARK   26  A    between atoms: P3_50  and  O15_52 
REMARK   27  A    between atoms: P3_50  and  O16_53 
ROOT
HETATM    1  C1  UNL     1      10.086   5.390  -5.830  1.00  0.00     0.104 C 
HETATM    2  C2  UNL     1      11.020   5.901  -6.885  1.00  0.00     0.182 C 
HETATM    3  O1  UNL     1      10.673   6.128  -8.041  1.00  0.00    -0.286 OA
ENDROOT
BRANCH   2   4
HETATM    4  S1  UNL     1      12.679   6.112  -6.342  1.00  0.00    -0.091 SA
BRANCH   4   5
HETATM    5  C3  UNL     1      13.566   5.204  -7.650  1.00  0.00     0.102 C 
BRANCH   5   6
HETATM    6  C4  UNL     1      14.100   6.142  -8.734  1.00  0.00     0.133 C 
BRANCH   6   7
HETATM    7  N1  UNL     1      14.578   7.401  -8.198  1.00  0.00    -0.360 N 
HETATM    8  C5  UNL     1      15.910   7.614  -7.928  1.00  0.00     0.219 C 
HETATM    9  O2  UNL     1      16.756   6.735  -8.046  1.00  0.00    -0.274 OA
HETATM   10  H8  UNL     1      13.911   8.141  -8.027  1.00  0.00     0.162 HD
BRANCH   8  11
HETATM   11  C6  UNL     1      16.204   9.012  -7.429  1.00  0.00     0.122 C 
BRANCH  11  12
HETATM   12  C7  UNL     1      17.362   9.030  -6.432  1.00  0.00     0.132 C 
BRANCH  12  13
HETATM   13  N2  UNL     1      17.032   8.409  -5.166  1.00  0.00    -0.358 N 
HETATM   14  C8  UNL     1      17.717   7.286  -4.741  1.00  0.00     0.247 C 
HETATM   15  O3  UNL     1      18.531   6.711  -5.452  1.00  0.00    -0.271 OA
HETATM   16  H13 UNL     1      16.679   9.039  -4.449  1.00  0.00     0.162 HD
BRANCH  14  17
HETATM   17  C9  UNL     1      17.391   6.837  -3.309  1.00  0.00     0.219 C 
BRANCH  17  18
HETATM   18  C10 UNL     1      18.627   6.699  -2.381  1.00  0.00     0.009 C 
HETATM   19  C11 UNL     1      18.237   6.693  -0.895  1.00  0.00     0.020 C 
HETATM   20  C12 UNL     1      19.411   5.404  -2.672  1.00  0.00     0.020 C 
BRANCH  18  21
HETATM   21  C13 UNL     1      19.524   7.934  -2.680  1.00  0.00     0.192 C 
BRANCH  21  22
HETATM   22  O4  UNL     1      19.059   9.105  -2.040  1.00  0.00    -0.296 OA
BRANCH  22  23
HETATM   23  P1  UNL     1      18.816  10.485  -2.820  1.00  0.00     0.401 P 
HETATM   24  O5  UNL     1      19.480  10.557  -4.159  1.00  0.00    -0.631 OA
BRANCH  23  25
HETATM   25  O6  UNL     1      19.248  11.669  -1.817  1.00  0.00    -0.307 OA
HETATM   26  H23 UNL     1      20.206  11.715  -1.703  1.00  0.00     0.222 HD
ENDBRANCH  23  25
BRANCH  23  27
HETATM   27  O7  UNL     1      17.236  10.667  -2.851  1.00  0.00    -0.195 OA
BRANCH  27  28
HETATM   28  P2  UNL     1      16.632  12.093  -3.225  1.00  0.00     0.401 P 
HETATM   29  O8  UNL     1      16.919  13.218  -2.284  1.00  0.00    -0.631 OA
BRANCH  28  30
HETATM   30  O9  UNL     1      17.162  12.337  -4.711  1.00  0.00    -0.307 OA
HETATM   31  H24 UNL     1      16.478  12.692  -5.330  1.00  0.00     0.222 HD
ENDBRANCH  28  30
BRANCH  28  32
HETATM   32  O10 UNL     1      15.089  11.797  -3.508  1.00  0.00    -0.294 OA
BRANCH  32  33
HETATM   33  C14 UNL     1      14.423  10.792  -2.788  1.00  0.00     0.215 C 
BRANCH  33  34
HETATM   34  C15 UNL     1      13.348  11.499  -1.964  1.00  0.00     0.180 C 
HETATM   35  C16 UNL     1      13.281  12.969  -2.356  1.00  0.00     0.197 C 
HETATM   36  C17 UNL     1      13.647  13.721  -1.091  1.00  0.00     0.199 C 
HETATM   37  C18 UNL     1      13.255  12.724   0.003  1.00  0.00     0.262 C 
HETATM   38  O11 UNL     1      13.592  11.434  -0.554  1.00  0.00    -0.353 OA
BRANCH  35  39
HETATM   39  O13 UNL     1      11.953  13.252  -2.783  1.00  0.00    -0.286 OA
BRANCH  39  40
HETATM   40  P3  UNL     1      11.763  13.446  -4.359  1.00  0.00     0.391 P 
HETATM   41  O14 UNL     1      11.010  14.684  -4.726  1.00  0.00    -0.632 OA
BRANCH  40  42
HETATM   42  O15 UNL     1      11.116  12.039  -4.758  1.00  0.00    -0.307 OA
HETATM   43  H36 UNL     1      11.440  11.744  -5.642  1.00  0.00     0.222 HD
ENDBRANCH  40  42
BRANCH  40  44
HETATM   44  O16 UNL     1      13.261  13.315  -4.876  1.00  0.00    -0.307 OA
HETATM   45  H37 UNL     1      13.742  12.585  -4.455  1.00  0.00     0.222 HD
ENDBRANCH  40  44
ENDBRANCH  39  40
ENDBRANCH  35  39
BRANCH  36  46
HETATM   46  O12 UNL     1      13.009  15.001  -1.072  1.00  0.00    -0.388 OA
HETATM   47  H35 UNL     1      12.691  15.140  -0.148  1.00  0.00     0.210 HD
ENDBRANCH  36  46
BRANCH  37  48
HETATM   48  N3  UNL     1      14.009  12.915   1.226  1.00  0.00    -0.297 N 
HETATM   49  C19 UNL     1      13.551  13.446   2.410  1.00  0.00     0.188 A 
HETATM   50  N4  UNL     1      14.446  13.366   3.370  1.00  0.00    -0.346 N 
HETATM   51  C20 UNL     1      15.536  12.749   2.782  1.00  0.00     0.116 A 
HETATM   52  H4  UNL     1      14.357  13.687   4.334  1.00  0.00     0.167 HD
HETATM   53  C21 UNL     1      16.785  12.342   3.281  1.00  0.00     0.109 A 
HETATM   54  C23 UNL     1      15.293  12.500   1.443  1.00  0.00     0.142 A 
HETATM   55  N5  UNL     1      17.665  11.759   2.432  1.00  0.00    -0.341 N 
HETATM   56  C22 UNL     1      17.300  11.601   1.144  1.00  0.00     0.183 A 
HETATM   57  H5  UNL     1      18.580  11.448   2.758  1.00  0.00     0.167 HD
HETATM   58  N6  UNL     1      16.135  11.941   0.556  1.00  0.00    -0.336 N 
HETATM   59  H6  UNL     1      15.920  11.794  -0.430  1.00  0.00     0.168 HD
BRANCH  53  60
HETATM   60  N7  UNL     1      17.171  12.515   4.601  1.00  0.00    -0.287 NA
HETATM   61  H33 UNL     1      17.285  13.487   4.880  1.00  0.00     0.125 HD
HETATM   62  H34 UNL     1      17.896  11.871   4.888  1.00  0.00     0.125 HD
ENDBRANCH  53  60
ENDBRANCH  37  48
ENDBRANCH  33  34
ENDBRANCH  32  33
ENDBRANCH  28  32
ENDBRANCH  27  28
ENDBRANCH  23  27
ENDBRANCH  22  23
ENDBRANCH  21  22
ENDBRANCH  18  21
ENDBRANCH  17  18
BRANCH  17  63
HETATM   63  O17 UNL     1      16.468   7.749  -2.704  1.00  0.00    -0.385 OA
HETATM   64  H38 UNL     1      16.973   8.365  -2.148  1.00  0.00     0.210 HD
ENDBRANCH  17  63
ENDBRANCH  14  17
ENDBRANCH  12  13
ENDBRANCH  11  12
ENDBRANCH   8  11
ENDBRANCH   6   7
ENDBRANCH   5   6
ENDBRANCH   4   5
ENDBRANCH   2   4
TORSDOF 27
ENDMDL
MODEL 14
REMARK VINA RESULT:      -5.8      4.108      8.853
REMARK  27 active torsions:
REMARK  status: ('A' for Active; 'I' for Inactive)
REMARK    1  A    between atoms: C2_2  and  S1_4 
REMARK    2  A    between atoms: S1_4  and  C3_5 
REMARK    3  A    between atoms: C3_5  and  C4_6 
REMARK    4  A    between atoms: C4_6  and  N1_7 
REMARK       I    between atoms: N1_7  and  C5_8 
REMARK    5  A    between atoms: C5_8  and  C6_10 
REMARK    6  A    between atoms: C6_10  and  C7_11 
REMARK    7  A    between atoms: C7_11  and  N2_12 
REMARK       I    between atoms: N2_12  and  C8_13 
REMARK    8  A    between atoms: C8_13  and  C9_15 
REMARK    9  A    between atoms: C9_15  and  C10_16 
REMARK   10  A    between atoms: C9_15  and  O17_54 
REMARK   11  A    between atoms: C10_16  and  C13_19 
REMARK   12  A    between atoms: C13_19  and  O4_20 
REMARK   13  A    between atoms: O4_20  and  P1_21 
REMARK   14  A    between atoms: P1_21  and  O6_23 
REMARK   15  A    between atoms: P1_21  and  O7_24 
REMARK   16  A    between atoms: O7_24  and  P2_25 
REMARK   17  A    between atoms: P2_25  and  O9_27 
REMARK   18  A    between atoms: P2_25  and  O10_28 
REMARK   19  A    between atoms: O10_28  and  C14_29 
REMARK   20  A    between atoms: C14_29  and  C15_30 
REMARK   21  A    between atoms: C16_31  and  O13_49 
REMARK   22  A    between atoms: C17_32  and  O12_48 
REMARK   23  A    between atoms: C18_33  and  N3_35 
REMARK   24  A    between atoms: C21_40  and  N7_47 
REMARK   25  A    between atoms: O13_49  and  P3_50 
REMARK   26  A    between atoms: P3_50  and  O15_52 
REMARK   27  A    between atoms: P3_50  and  O16_53 
ROOT
HETATM    1  C1  UNL     1       8.670   8.435  -4.033  1.00  0.00     0.104 C 
HETATM    2  C2  UNL     1       8.459   7.133  -4.744  1.00  0.00     0.182 C 
HETATM    3  O1  UNL     1       7.597   6.320  -4.420  1.00  0.00    -0.286 OA
ENDROOT
BRANCH   2   4
HETATM    4  S1  UNL     1       9.579   6.839  -6.067  1.00  0.00    -0.091 SA
BRANCH   4   5
HETATM    5  C3  UNL     1       9.756   5.029  -5.944  1.00  0.00     0.102 C 
BRANCH   5   6
HETATM    6  C4  UNL     1      10.914   4.511  -6.800  1.00  0.00     0.133 C 
BRANCH   6   7
HETATM    7  N1  UNL     1      12.201   5.013  -6.364  1.00  0.00    -0.360 N 
HETATM    8  C5  UNL     1      12.931   5.893  -7.127  1.00  0.00     0.219 C 
HETATM    9  O2  UNL     1      12.581   6.242  -8.249  1.00  0.00    -0.274 OA
HETATM   10  H8  UNL     1      12.563   4.709  -5.470  1.00  0.00     0.162 HD
BRANCH   8  11
HETATM   11  C6  UNL     1      14.218   6.336  -6.465  1.00  0.00     0.122 C 
BRANCH  11  12
HETATM   12  C7  UNL     1      15.368   5.369  -6.748  1.00  0.00     0.132 C 
BRANCH  12  13
HETATM   13  N2  UNL     1      15.871   4.721  -5.556  1.00  0.00    -0.358 N 
HETATM   14  C8  UNL     1      17.073   5.119  -5.000  1.00  0.00     0.247 C 
HETATM   15  O3  UNL     1      17.804   5.935  -5.547  1.00  0.00    -0.271 OA
HETATM   16  H13 UNL     1      15.162   4.360  -4.921  1.00  0.00     0.162 HD
BRANCH  14  17
HETATM   17  C9  UNL     1      17.402   4.475  -3.645  1.00  0.00     0.219 C 
BRANCH  17  18
HETATM   18  C10 UNL     1      18.364   5.305  -2.756  1.00  0.00     0.009 C 
HETATM   19  C11 UNL     1      18.898   4.493  -1.567  1.00  0.00     0.020 C 
HETATM   20  C12 UNL     1      19.575   5.820  -3.561  1.00  0.00     0.020 C 
BRANCH  18  21
HETATM   21  C13 UNL     1      17.531   6.510  -2.233  1.00  0.00     0.192 C 
BRANCH  21  22
HETATM   22  O4  UNL     1      17.925   7.733  -2.822  1.00  0.00    -0.296 OA
BRANCH  22  23
HETATM   23  P1  UNL     1      16.875   8.816  -3.364  1.00  0.00     0.401 P 
HETATM   24  O5  UNL     1      15.634   8.934  -2.537  1.00  0.00    -0.631 OA
BRANCH  23  25
HETATM   25  O6  UNL     1      16.594   8.459  -4.909  1.00  0.00    -0.307 OA
HETATM   26  H23 UNL     1      16.759   7.527  -5.100  1.00  0.00     0.222 HD
ENDBRANCH  23  25
BRANCH  23  27
HETATM   27  O7  UNL     1      17.710  10.163  -3.506  1.00  0.00    -0.195 OA
BRANCH  27  28
HETATM   28  P2  UNL     1      16.981  11.467  -4.060  1.00  0.00     0.401 P 
HETATM   29  O8  UNL     1      17.597  12.134  -5.246  1.00  0.00    -0.631 OA
BRANCH  28  30
HETATM   30  O9  UNL     1      15.480  10.975  -4.296  1.00  0.00    -0.307 OA
HETATM   31  H24 UNL     1      14.806  11.696  -4.244  1.00  0.00     0.222 HD
ENDBRANCH  28  30
BRANCH  28  32
HETATM   32  O10 UNL     1      16.789  12.382  -2.766  1.00  0.00    -0.294 OA
BRANCH  32  33
HETATM   33  C14 UNL     1      15.530  12.479  -2.154  1.00  0.00     0.215 C 
BRANCH  33  34
HETATM   34  C15 UNL     1      15.787  12.505  -0.648  1.00  0.00     0.180 C 
HETATM   35  C16 UNL     1      16.553  11.255  -0.235  1.00  0.00     0.197 C 
HETATM   36  C17 UNL     1      15.622  10.532   0.720  1.00  0.00     0.199 C 
HETATM   37  C18 UNL     1      14.760  11.676   1.259  1.00  0.00     0.262 C 
HETATM   38  O11 UNL     1      14.582  12.553   0.124  1.00  0.00    -0.353 OA
BRANCH  35  39
HETATM   39  O13 UNL     1      17.759  11.666   0.399  1.00  0.00    -0.286 OA
BRANCH  39  40
HETATM   40  P3  UNL     1      19.083  10.906  -0.078  1.00  0.00     0.391 P 
HETATM   41  O14 UNL     1      18.944   9.418  -0.111  1.00  0.00    -0.632 OA
BRANCH  40  42
HETATM   42  O15 UNL     1      20.163  11.527   0.925  1.00  0.00    -0.307 OA
HETATM   43  H36 UNL     1      19.780  12.290   1.421  1.00  0.00     0.222 HD
ENDBRANCH  40  42
BRANCH  40  44
HETATM   44  O16 UNL     1      19.394  11.647  -1.450  1.00  0.00    -0.307 OA
HETATM   45  H37 UNL     1      19.770  12.532  -1.323  1.00  0.00     0.222 HD
ENDBRANCH  40  44
ENDBRANCH  39  40
ENDBRANCH  35  39
BRANCH  36  46
HETATM   46  O12 UNL     1      16.377   9.776   1.670  1.00  0.00    -0.388 OA
HETATM   47  H35 UNL     1      16.988  10.413   2.111  1.00  0.00     0.210 HD
ENDBRANCH  36  46
BRANCH  37  48
HETATM   48  N3  UNL     1      13.458  11.227   1.710  1.00  0.00    -0.297 N 
HETATM   49  C19 UNL     1      13.046   9.929   1.897  1.00  0.00     0.188 A 
HETATM   50  N4  UNL     1      11.848   9.858   2.436  1.00  0.00    -0.346 N 
HETATM   51  C20 UNL     1      11.467  11.177   2.610  1.00  0.00     0.116 A 
HETATM   52  H4  UNL     1      11.318   9.020   2.672  1.00  0.00     0.167 HD
HETATM   53  C21 UNL     1      10.323  11.772   3.171  1.00  0.00     0.109 A 
HETATM   54  C23 UNL     1      12.438  12.035   2.129  1.00  0.00     0.142 A 
HETATM   55  N5  UNL     1      10.237  13.124   3.188  1.00  0.00    -0.341 N 
HETATM   56  C22 UNL     1      11.253  13.835   2.660  1.00  0.00     0.183 A 
HETATM   57  H5  UNL     1       9.424  13.592   3.590  1.00  0.00     0.167 HD
HETATM   58  N6  UNL     1      12.396  13.379   2.107  1.00  0.00    -0.336 N 
HETATM   59  H6  UNL     1      13.130  13.974   1.723  1.00  0.00     0.168 HD
BRANCH  53  60
HETATM   60  N7  UNL     1       9.269  11.046   3.702  1.00  0.00    -0.287 NA
HETATM   61  H33 UNL     1       8.577  10.750   3.017  1.00  0.00     0.125 HD
HETATM   62  H34 UNL     1       8.917  11.435   4.567  1.00  0.00     0.125 HD
ENDBRANCH  53  60
ENDBRANCH  37  48
ENDBRANCH  33  34
ENDBRANCH  32  33
ENDBRANCH  28  32
ENDBRANCH  27  28
ENDBRANCH  23  27
ENDBRANCH  22  23
ENDBRANCH  21  22
ENDBRANCH  18  21
ENDBRANCH  17  18
BRANCH  17  63
HETATM   63  O17 UNL     1      16.197   4.234  -2.909  1.00  0.00    -0.385 OA
HETATM   64  H38 UNL     1      16.107   4.934  -2.240  1.00  0.00     0.210 HD
ENDBRANCH  17  63
ENDBRANCH  14  17
ENDBRANCH  12  13
ENDBRANCH  11  12
ENDBRANCH   8  11
ENDBRANCH   6   7
ENDBRANCH   5   6
ENDBRANCH   4   5
ENDBRANCH   2   4
TORSDOF 27
ENDMDL
MODEL 15
REMARK VINA RESULT:      -5.8      4.091      7.987
REMARK  27 active torsions:
REMARK  status: ('A' for Active; 'I' for Inactive)
REMARK    1  A    between atoms: C2_2  and  S1_4 
REMARK    2  A    between atoms: S1_4  and  C3_5 
REMARK    3  A    between atoms: C3_5  and  C4_6 
REMARK    4  A    between atoms: C4_6  and  N1_7 
REMARK       I    between atoms: N1_7  and  C5_8 
REMARK    5  A    between atoms: C5_8  and  C6_10 
REMARK    6  A    between atoms: C6_10  and  C7_11 
REMARK    7  A    between atoms: C7_11  and  N2_12 
REMARK       I    between atoms: N2_12  and  C8_13 
REMARK    8  A    between atoms: C8_13  and  C9_15 
REMARK    9  A    between atoms: C9_15  and  C10_16 
REMARK   10  A    between atoms: C9_15  and  O17_54 
REMARK   11  A    between atoms: C10_16  and  C13_19 
REMARK   12  A    between atoms: C13_19  and  O4_20 
REMARK   13  A    between atoms: O4_20  and  P1_21 
REMARK   14  A    between atoms: P1_21  and  O6_23 
REMARK   15  A    between atoms: P1_21  and  O7_24 
REMARK   16  A    between atoms: O7_24  and  P2_25 
REMARK   17  A    between atoms: P2_25  and  O9_27 
REMARK   18  A    between atoms: P2_25  and  O10_28 
REMARK   19  A    between atoms: O10_28  and  C14_29 
REMARK   20  A    between atoms: C14_29  and  C15_30 
REMARK   21  A    between atoms: C16_31  and  O13_49 
REMARK   22  A    between atoms: C17_32  and  O12_48 
REMARK   23  A    between atoms: C18_33  and  N3_35 
REMARK   24  A    between atoms: C21_40  and  N7_47 
REMARK   25  A    between atoms: O13_49  and  P3_50 
REMARK   26  A    between atoms: P3_50  and  O15_52 
REMARK   27  A    between atoms: P3_50  and  O16_53 
ROOT
HETATM    1  C1  UNL     1       8.432   7.888  -3.640  1.00  0.00     0.104 C 
HETATM    2  C2  UNL     1       8.340   6.818  -4.685  1.00  0.00     0.182 C 
HETATM    3  O1  UNL     1       7.472   5.949  -4.686  1.00  0.00    -0.286 OA
ENDROOT
BRANCH   2   4
HETATM    4  S1  UNL     1       9.609   6.882  -5.901  1.00  0.00    -0.091 SA
BRANCH   4   5
HETATM    5  C3  UNL     1       9.972   5.106  -6.082  1.00  0.00     0.102 C 
BRANCH   5   6
HETATM    6  C4  UNL     1      11.246   4.865  -6.896  1.00  0.00     0.133 C 
BRANCH   6   7
HETATM    7  N1  UNL     1      12.440   4.860  -6.076  1.00  0.00    -0.360 N 
HETATM    8  C5  UNL     1      13.300   5.933  -6.043  1.00  0.00     0.219 C 
HETATM    9  O2  UNL     1      13.155   6.917  -6.759  1.00  0.00    -0.274 OA
HETATM   10  H8  UNL     1      12.638   4.046  -5.509  1.00  0.00     0.162 HD
BRANCH   8  11
HETATM   11  C6  UNL     1      14.455   5.747  -5.083  1.00  0.00     0.122 C 
BRANCH  11  12
HETATM   12  C7  UNL     1      15.548   4.855  -5.670  1.00  0.00     0.132 C 
BRANCH  12  13
HETATM   13  N2  UNL     1      16.459   4.340  -4.669  1.00  0.00    -0.358 N 
HETATM   14  C8  UNL     1      17.249   5.205  -3.936  1.00  0.00     0.247 C 
HETATM   15  O3  UNL     1      17.301   6.404  -4.177  1.00  0.00    -0.271 OA
HETATM   16  H13 UNL     1      16.168   3.476  -4.215  1.00  0.00     0.162 HD
BRANCH  14  17
HETATM   17  C9  UNL     1      18.034   4.546  -2.791  1.00  0.00     0.219 C 
BRANCH  17  18
HETATM   18  C10 UNL     1      19.499   5.039  -2.649  1.00  0.00     0.009 C 
HETATM   19  C11 UNL     1      20.480   3.878  -2.429  1.00  0.00     0.020 C 
HETATM   20  C12 UNL     1      19.957   5.817  -3.899  1.00  0.00     0.020 C 
BRANCH  18  21
HETATM   21  C13 UNL     1      19.515   5.979  -1.410  1.00  0.00     0.192 C 
BRANCH  21  22
HETATM   22  O4  UNL     1      19.031   7.273  -1.710  1.00  0.00    -0.296 OA
BRANCH  22  23
HETATM   23  P1  UNL     1      17.831   7.963  -0.901  1.00  0.00     0.401 P 
HETATM   24  O5  UNL     1      17.457   7.254   0.362  1.00  0.00    -0.631 OA
BRANCH  23  25
HETATM   25  O6  UNL     1      16.610   8.133  -1.936  1.00  0.00    -0.307 OA
HETATM   26  H23 UNL     1      16.126   8.956  -1.792  1.00  0.00     0.222 HD
ENDBRANCH  23  25
BRANCH  23  27
HETATM   27  O7  UNL     1      18.284   9.476  -0.706  1.00  0.00    -0.195 OA
BRANCH  27  28
HETATM   28  P2  UNL     1      17.168  10.591  -0.486  1.00  0.00     0.401 P 
HETATM   29  O8  UNL     1      16.052  10.257   0.450  1.00  0.00    -0.631 OA
BRANCH  28  30
HETATM   30  O9  UNL     1      18.013  11.876  -0.059  1.00  0.00    -0.307 OA
HETATM   31  H24 UNL     1      18.979  11.807  -0.255  1.00  0.00     0.222 HD
ENDBRANCH  28  30
BRANCH  28  32
HETATM   32  O10 UNL     1      16.736  11.003  -1.967  1.00  0.00    -0.294 OA
BRANCH  32  33
HETATM   33  C14 UNL     1      17.712  11.375  -2.905  1.00  0.00     0.215 C 
BRANCH  33  34
HETATM   34  C15 UNL     1      17.020  11.363  -4.268  1.00  0.00     0.180 C 
HETATM   35  C16 UNL     1      15.655  10.700  -4.147  1.00  0.00     0.197 C 
HETATM   36  C17 UNL     1      15.738   9.480  -5.045  1.00  0.00     0.199 C 
HETATM   37  C18 UNL     1      16.817   9.893  -6.050  1.00  0.00     0.262 C 
HETATM   38  O11 UNL     1      17.763  10.652  -5.265  1.00  0.00    -0.353 OA
BRANCH  35  39
HETATM   39  O13 UNL     1      14.672  11.629  -4.593  1.00  0.00    -0.286 OA
BRANCH  39  40
HETATM   40  P3  UNL     1      13.388  11.778  -3.653  1.00  0.00     0.391 P 
HETATM   41  O14 UNL     1      12.939  13.191  -3.466  1.00  0.00    -0.632 OA
BRANCH  40  42
HETATM   42  O15 UNL     1      13.872  10.977  -2.355  1.00  0.00    -0.307 OA
HETATM   43  H36 UNL     1      13.127  10.460  -1.966  1.00  0.00     0.222 HD
ENDBRANCH  40  42
BRANCH  40  44
HETATM   44  O16 UNL     1      12.372  10.768  -4.344  1.00  0.00    -0.307 OA
HETATM   45  H37 UNL     1      11.962  10.156  -3.712  1.00  0.00     0.222 HD
ENDBRANCH  40  44
ENDBRANCH  39  40
ENDBRANCH  35  39
BRANCH  36  46
HETATM   46  O12 UNL     1      14.446   9.158  -5.565  1.00  0.00    -0.388 OA
HETATM   47  H35 UNL     1      14.272   9.799  -6.295  1.00  0.00     0.210 HD
ENDBRANCH  36  46
BRANCH  37  48
HETATM   48  N3  UNL     1      17.501   8.755  -6.631  1.00  0.00    -0.297 N 
HETATM   49  C19 UNL     1      18.765   8.304  -6.333  1.00  0.00     0.188 A 
HETATM   50  N4  UNL     1      19.047   7.172  -6.941  1.00  0.00    -0.346 N 
HETATM   51  C20 UNL     1      17.907   6.873  -7.666  1.00  0.00     0.116 A 
HETATM   52  H4  UNL     1      19.912   6.635  -6.890  1.00  0.00     0.167 HD
HETATM   53  C21 UNL     1      17.557   5.785  -8.486  1.00  0.00     0.109 A 
HETATM   54  C23 UNL     1      16.956   7.865  -7.514  1.00  0.00     0.142 A 
HETATM   55  N5  UNL     1      16.340   5.786  -9.081  1.00  0.00    -0.341 N 
HETATM   56  C22 UNL     1      15.522   6.835  -8.860  1.00  0.00     0.183 A 
HETATM   57  H5  UNL     1      16.049   5.013  -9.679  1.00  0.00     0.167 HD
HETATM   58  N6  UNL     1      15.743   7.922  -8.093  1.00  0.00    -0.336 N 
HETATM   59  H6  UNL     1      15.079   8.686  -7.967  1.00  0.00     0.168 HD
BRANCH  53  60
HETATM   60  N7  UNL     1      18.399   4.712  -8.728  1.00  0.00    -0.287 NA
HETATM   61  H33 UNL     1      17.924   3.869  -9.043  1.00  0.00     0.125 HD
HETATM   62  H34 UNL     1      19.106   4.596  -8.014  1.00  0.00     0.125 HD
ENDBRANCH  53  60
ENDBRANCH  37  48
ENDBRANCH  33  34
ENDBRANCH  32  33
ENDBRANCH  28  32
ENDBRANCH  27  28
ENDBRANCH  23  27
ENDBRANCH  22  23
ENDBRANCH  21  22
ENDBRANCH  18  21
ENDBRANCH  17  18
BRANCH  17  63
HETATM   63  O17 UNL     1      17.361   4.759  -1.546  1.00  0.00    -0.385 OA
HETATM   64  H38 UNL     1      16.588   4.170  -1.517  1.00  0.00     0.210 HD
ENDBRANCH  17  63
ENDBRANCH  14  17
ENDBRANCH  12  13
ENDBRANCH  11  12
ENDBRANCH   8  11
ENDBRANCH   6   7
ENDBRANCH   5   6
ENDBRANCH   4   5
ENDBRANCH   2   4
TORSDOF 27
ENDMDL
MODEL 16
REMARK VINA RESULT:      -5.8      6.122     10.699
REMARK  27 active torsions:
REMARK  status: ('A' for Active; 'I' for Inactive)
REMARK    1  A    between atoms: C2_2  and  S1_4 
REMARK    2  A    between atoms: S1_4  and  C3_5 
REMARK    3  A    between atoms: C3_5  and  C4_6 
REMARK    4  A    between atoms: C4_6  and  N1_7 
REMARK       I    between atoms: N1_7  and  C5_8 
REMARK    5  A    between atoms: C5_8  and  C6_10 
REMARK    6  A    between atoms: C6_10  and  C7_11 
REMARK    7  A    between atoms: C7_11  and  N2_12 
REMARK       I    between atoms: N2_12  and  C8_13 
REMARK    8  A    between atoms: C8_13  and  C9_15 
REMARK    9  A    between atoms: C9_15  and  C10_16 
REMARK   10  A    between atoms: C9_15  and  O17_54 
REMARK   11  A    between atoms: C10_16  and  C13_19 
REMARK   12  A    between atoms: C13_19  and  O4_20 
REMARK   13  A    between atoms: O4_20  and  P1_21 
REMARK   14  A    between atoms: P1_21  and  O6_23 
REMARK   15  A    between atoms: P1_21  and  O7_24 
REMARK   16  A    between atoms: O7_24  and  P2_25 
REMARK   17  A    between atoms: P2_25  and  O9_27 
REMARK   18  A    between atoms: P2_25  and  O10_28 
REMARK   19  A    between atoms: O10_28  and  C14_29 
REMARK   20  A    between atoms: C14_29  and  C15_30 
REMARK   21  A    between atoms: C16_31  and  O13_49 
REMARK   22  A    between atoms: C17_32  and  O12_48 
REMARK   23  A    between atoms: C18_33  and  N3_35 
REMARK   24  A    between atoms: C21_40  and  N7_47 
REMARK   25  A    between atoms: O13_49  and  P3_50 
REMARK   26  A    between atoms: P3_50  and  O15_52 
REMARK   27  A    between atoms: P3_50  and  O16_53 
ROOT
HETATM    1  C1  UNL     1      15.510   8.361  -7.669  1.00  0.00     0.104 C 
HETATM    2  C2  UNL     1      14.637   7.335  -7.011  1.00  0.00     0.182 C 
HETATM    3  O1  UNL     1      13.500   7.573  -6.612  1.00  0.00    -0.286 OA
ENDROOT
BRANCH   2   4
HETATM    4  S1  UNL     1      15.391   5.758  -6.819  1.00  0.00    -0.091 SA
BRANCH   4   5
HETATM    5  C3  UNL     1      15.160   5.506  -5.029  1.00  0.00     0.102 C 
BRANCH   5   6
HETATM    6  C4  UNL     1      16.295   4.682  -4.418  1.00  0.00     0.133 C 
BRANCH   6   7
HETATM    7  N1  UNL     1      16.672   5.141  -3.097  1.00  0.00    -0.360 N 
HETATM    8  C5  UNL     1      17.980   5.124  -2.670  1.00  0.00     0.219 C 
HETATM    9  O2  UNL     1      18.887   4.649  -3.343  1.00  0.00    -0.274 OA
HETATM   10  H8  UNL     1      15.951   5.490  -2.479  1.00  0.00     0.162 HD
BRANCH   8  11
HETATM   11  C6  UNL     1      18.164   5.698  -1.282  1.00  0.00     0.122 C 
BRANCH  11  12
HETATM   12  C7  UNL     1      19.244   6.778  -1.250  1.00  0.00     0.132 C 
BRANCH  12  13
HETATM   13  N2  UNL     1      19.570   7.295  -2.563  1.00  0.00    -0.358 N 
HETATM   14  C8  UNL     1      19.352   8.628  -2.860  1.00  0.00     0.247 C 
HETATM   15  O3  UNL     1      18.778   9.383  -2.086  1.00  0.00    -0.271 OA
HETATM   16  H13 UNL     1      20.342   6.832  -3.036  1.00  0.00     0.162 HD
BRANCH  14  17
HETATM   17  C9  UNL     1      19.903   9.082  -4.220  1.00  0.00     0.219 C 
BRANCH  17  18
HETATM   18  C10 UNL     1      18.915   8.909  -5.404  1.00  0.00     0.009 C 
HETATM   19  C11 UNL     1      19.446   9.544  -6.698  1.00  0.00     0.020 C 
HETATM   20  C12 UNL     1      18.629   7.421  -5.688  1.00  0.00     0.020 C 
BRANCH  18  21
HETATM   21  C13 UNL     1      17.602   9.623  -4.972  1.00  0.00     0.192 C 
BRANCH  21  22
HETATM   22  O4  UNL     1      17.648  11.018  -5.198  1.00  0.00    -0.296 OA
BRANCH  22  23
HETATM   23  P1  UNL     1      17.124  12.091  -4.128  1.00  0.00     0.401 P 
HETATM   24  O5  UNL     1      16.691  13.391  -4.728  1.00  0.00    -0.631 OA
BRANCH  23  25
HETATM   25  O6  UNL     1      18.278  12.241  -3.016  1.00  0.00    -0.307 OA
HETATM   26  H23 UNL     1      18.344  11.457  -2.455  1.00  0.00     0.222 HD
ENDBRANCH  23  25
BRANCH  23  27
HETATM   27  O7  UNL     1      15.996  11.331  -3.303  1.00  0.00    -0.195 OA
BRANCH  27  28
HETATM   28  P2  UNL     1      15.384  12.031  -2.009  1.00  0.00     0.401 P 
HETATM   29  O8  UNL     1      16.331  12.339  -0.895  1.00  0.00    -0.631 OA
BRANCH  28  30
HETATM   30  O9  UNL     1      14.639  13.312  -2.604  1.00  0.00    -0.307 OA
HETATM   31  H24 UNL     1      13.653  13.251  -2.583  1.00  0.00     0.222 HD
ENDBRANCH  28  30
BRANCH  28  32
HETATM   32  O10 UNL     1      14.133  11.114  -1.629  1.00  0.00    -0.294 OA
BRANCH  32  33
HETATM   33  C14 UNL     1      13.039  11.667  -0.946  1.00  0.00     0.215 C 
BRANCH  33  34
HETATM   34  C15 UNL     1      13.056  11.057   0.454  1.00  0.00     0.180 C 
HETATM   35  C16 UNL     1      13.329  12.142   1.487  1.00  0.00     0.197 C 
HETATM   36  C17 UNL     1      14.638  11.734   2.136  1.00  0.00     0.199 C 
HETATM   37  C18 UNL     1      14.649  10.220   1.916  1.00  0.00     0.262 C 
HETATM   38  O11 UNL     1      14.057  10.045   0.610  1.00  0.00    -0.353 OA
BRANCH  35  39
HETATM   39  O13 UNL     1      12.249  12.150   2.414  1.00  0.00    -0.286 OA
BRANCH  39  40
HETATM   40  P3  UNL     1      11.591  13.580   2.694  1.00  0.00     0.391 P 
HETATM   41  O14 UNL     1      11.409  14.410   1.464  1.00  0.00    -0.632 OA
BRANCH  40  42
HETATM   42  O15 UNL     1      12.568  14.142   3.829  1.00  0.00    -0.307 OA
HETATM   43  H36 UNL     1      12.106  14.176   4.701  1.00  0.00     0.222 HD
ENDBRANCH  40  42
BRANCH  40  44
HETATM   44  O16 UNL     1      10.287  13.174   3.507  1.00  0.00    -0.307 OA
HETATM   45  H37 UNL     1       9.864  13.930   3.944  1.00  0.00     0.222 HD
ENDBRANCH  40  44
ENDBRANCH  39  40
ENDBRANCH  35  39
BRANCH  36  46
HETATM   46  O12 UNL     1      14.688  12.202   3.487  1.00  0.00    -0.388 OA
HETATM   47  H35 UNL     1      13.755  12.388   3.751  1.00  0.00     0.210 HD
ENDBRANCH  36  46
BRANCH  37  48
HETATM   48  N3  UNL     1      15.990   9.670   1.898  1.00  0.00    -0.297 N 
HETATM   49  C19 UNL     1      16.732   9.326   0.793  1.00  0.00     0.188 A 
HETATM   50  N4  UNL     1      17.960   8.974   1.106  1.00  0.00    -0.346 N 
HETATM   51  C20 UNL     1      18.018   9.102   2.483  1.00  0.00     0.116 A 
HETATM   52  H4  UNL     1      18.704   8.675   0.476  1.00  0.00     0.167 HD
HETATM   53  C21 UNL     1      19.056   8.919   3.414  1.00  0.00     0.109 A 
HETATM   54  C23 UNL     1      16.793   9.494   2.990  1.00  0.00     0.142 A 
HETATM   55  N5  UNL     1      18.791   9.116   4.728  1.00  0.00    -0.341 N 
HETATM   56  C22 UNL     1      17.540   9.475   5.080  1.00  0.00     0.183 A 
HETATM   57  H5  UNL     1      19.519   8.996   5.432  1.00  0.00     0.167 HD
HETATM   58  N6  UNL     1      16.474   9.688   4.282  1.00  0.00    -0.336 N 
HETATM   59  H6  UNL     1      15.548   9.959   4.614  1.00  0.00     0.168 HD
BRANCH  53  60
HETATM   60  N7  UNL     1      20.339   8.535   3.059  1.00  0.00    -0.287 NA
HETATM   61  H33 UNL     1      20.385   7.678   2.513  1.00  0.00     0.125 HD
HETATM   62  H34 UNL     1      21.003   8.629   3.816  1.00  0.00     0.125 HD
ENDBRANCH  53  60
ENDBRANCH  37  48
ENDBRANCH  33  34
ENDBRANCH  32  33
ENDBRANCH  28  32
ENDBRANCH  27  28
ENDBRANCH  23  27
ENDBRANCH  22  23
ENDBRANCH  21  22
ENDBRANCH  18  21
ENDBRANCH  17  18
BRANCH  17  63
HETATM   63  O17 UNL     1      20.300  10.457  -4.157  1.00  0.00    -0.385 OA
HETATM   64  H38 UNL     1      19.597  10.993  -4.561  1.00  0.00     0.210 HD
ENDBRANCH  17  63
ENDBRANCH  14  17
ENDBRANCH  12  13
ENDBRANCH  11  12
ENDBRANCH   8  11
ENDBRANCH   6   7
ENDBRANCH   5   6
ENDBRANCH   4   5
ENDBRANCH   2   4
TORSDOF 27
ENDMDL
MODEL 17
REMARK VINA RESULT:      -5.7      5.046      9.977
REMARK  27 active torsions:
REMARK  status: ('A' for Active; 'I' for Inactive)
REMARK    1  A    between atoms: C2_2  and  S1_4 
REMARK    2  A    between atoms: S1_4  and  C3_5 
REMARK    3  A    between atoms: C3_5  and  C4_6 
REMARK    4  A    between atoms: C4_6  and  N1_7 
REMARK       I    between atoms: N1_7  and  C5_8 
REMARK    5  A    between atoms: C5_8  and  C6_10 
REMARK    6  A    between atoms: C6_10  and  C7_11 
REMARK    7  A    between atoms: C7_11  and  N2_12 
REMARK       I    between atoms: N2_12  and  C8_13 
REMARK    8  A    between atoms: C8_13  and  C9_15 
REMARK    9  A    between atoms: C9_15  and  C10_16 
REMARK   10  A    between atoms: C9_15  and  O17_54 
REMARK   11  A    between atoms: C10_16  and  C13_19 
REMARK   12  A    between atoms: C13_19  and  O4_20 
REMARK   13  A    between atoms: O4_20  and  P1_21 
REMARK   14  A    between atoms: P1_21  and  O6_23 
REMARK   15  A    between atoms: P1_21  and  O7_24 
REMARK   16  A    between atoms: O7_24  and  P2_25 
REMARK   17  A    between atoms: P2_25  and  O9_27 
REMARK   18  A    between atoms: P2_25  and  O10_28 
REMARK   19  A    between atoms: O10_28  and  C14_29 
REMARK   20  A    between atoms: C14_29  and  C15_30 
REMARK   21  A    between atoms: C16_31  and  O13_49 
REMARK   22  A    between atoms: C17_32  and  O12_48 
REMARK   23  A    between atoms: C18_33  and  N3_35 
REMARK   24  A    between atoms: C21_40  and  N7_47 
REMARK   25  A    between atoms: O13_49  and  P3_50 
REMARK   26  A    between atoms: P3_50  and  O15_52 
REMARK   27  A    between atoms: P3_50  and  O16_53 
ROOT
HETATM    1  C1  UNL     1      10.644   4.957  -5.958  1.00  0.00     0.104 C 
HETATM    2  C2  UNL     1      11.422   5.686  -7.010  1.00  0.00     0.182 C 
HETATM    3  O1  UNL     1      10.917   6.125  -8.040  1.00  0.00    -0.286 OA
ENDROOT
BRANCH   2   4
HETATM    4  S1  UNL     1      13.142   5.831  -6.670  1.00  0.00    -0.091 SA
BRANCH   4   5
HETATM    5  C3  UNL     1      13.793   6.004  -8.363  1.00  0.00     0.102 C 
BRANCH   5   6
HETATM    6  C4  UNL     1      15.146   6.718  -8.383  1.00  0.00     0.133 C 
BRANCH   6   7
HETATM    7  N1  UNL     1      16.100   6.133  -7.464  1.00  0.00    -0.360 N 
HETATM    8  C5  UNL     1      16.845   6.907  -6.605  1.00  0.00     0.219 C 
HETATM    9  O2  UNL     1      16.808   8.132  -6.619  1.00  0.00    -0.274 OA
HETATM   10  H8  UNL     1      16.212   5.128  -7.452  1.00  0.00     0.162 HD
BRANCH   8  11
HETATM   11  C6  UNL     1      17.740   6.097  -5.691  1.00  0.00     0.122 C 
BRANCH  11  12
HETATM   12  C7  UNL     1      16.954   5.445  -4.554  1.00  0.00     0.132 C 
BRANCH  12  13
HETATM   13  N2  UNL     1      17.083   6.150  -3.297  1.00  0.00    -0.358 N 
HETATM   14  C8  UNL     1      17.981   5.712  -2.341  1.00  0.00     0.247 C 
HETATM   15  O3  UNL     1      18.604   4.665  -2.464  1.00  0.00    -0.271 OA
HETATM   16  H13 UNL     1      16.893   7.150  -3.334  1.00  0.00     0.162 HD
BRANCH  14  17
HETATM   17  C9  UNL     1      18.146   6.648  -1.134  1.00  0.00     0.219 C 
BRANCH  17  18
HETATM   18  C10 UNL     1      19.525   7.353  -1.051  1.00  0.00     0.009 C 
HETATM   19  C11 UNL     1      20.647   6.383  -0.652  1.00  0.00     0.020 C 
HETATM   20  C12 UNL     1      19.912   7.999  -2.397  1.00  0.00     0.020 C 
BRANCH  18  21
HETATM   21  C13 UNL     1      19.376   8.455   0.036  1.00  0.00     0.192 C 
BRANCH  21  22
HETATM   22  O4  UNL     1      18.562   8.041   1.114  1.00  0.00    -0.296 OA
BRANCH  22  23
HETATM   23  P1  UNL     1      18.017   9.053   2.232  1.00  0.00     0.401 P 
HETATM   24  O5  UNL     1      18.641  10.412   2.184  1.00  0.00    -0.631 OA
BRANCH  23  25
HETATM   25  O6  UNL     1      18.183   8.312   3.652  1.00  0.00    -0.307 OA
HETATM   26  H23 UNL     1      17.361   7.895   3.940  1.00  0.00     0.222 HD
ENDBRANCH  23  25
BRANCH  23  27
HETATM   27  O7  UNL     1      16.435   9.042   2.061  1.00  0.00    -0.195 OA
BRANCH  27  28
HETATM   28  P2  UNL     1      15.781   9.909   0.895  1.00  0.00     0.401 P 
HETATM   29  O8  UNL     1      16.714  10.532  -0.090  1.00  0.00    -0.631 OA
BRANCH  28  30
HETATM   30  O9  UNL     1      14.721   8.907   0.245  1.00  0.00    -0.307 OA
HETATM   31  H24 UNL     1      13.808   9.278   0.170  1.00  0.00     0.222 HD
ENDBRANCH  28  30
BRANCH  28  32
HETATM   32  O10 UNL     1      14.804  10.912   1.662  1.00  0.00    -0.294 OA
BRANCH  32  33
HETATM   33  C14 UNL     1      15.301  12.118   2.181  1.00  0.00     0.215 C 
BRANCH  33  34
HETATM   34  C15 UNL     1      14.775  13.225   1.269  1.00  0.00     0.180 C 
HETATM   35  C16 UNL     1      13.385  12.860   0.765  1.00  0.00     0.197 C 
HETATM   36  C17 UNL     1      13.537  12.758  -0.741  1.00  0.00     0.199 C 
HETATM   37  C18 UNL     1      14.738  13.668  -1.007  1.00  0.00     0.262 C 
HETATM   38  O11 UNL     1      15.608  13.450   0.126  1.00  0.00    -0.353 OA
BRANCH  35  39
HETATM   39  O13 UNL     1      12.491  13.900   1.145  1.00  0.00    -0.286 OA
BRANCH  39  40
HETATM   40  P3  UNL     1      11.567  13.586   2.411  1.00  0.00     0.391 P 
HETATM   41  O14 UNL     1      11.109  12.166   2.486  1.00  0.00    -0.632 OA
BRANCH  40  42
HETATM   42  O15 UNL     1      10.447  14.718   2.253  1.00  0.00    -0.307 OA
HETATM   43  H36 UNL     1      10.686  15.346   1.530  1.00  0.00     0.222 HD
ENDBRANCH  40  42
BRANCH  40  44
HETATM   44  O16 UNL     1      12.468  14.133   3.602  1.00  0.00    -0.307 OA
HETATM   45  H37 UNL     1      12.240  13.738   4.459  1.00  0.00     0.222 HD
ENDBRANCH  40  44
ENDBRANCH  39  40
ENDBRANCH  35  39
BRANCH  36  46
HETATM   46  O12 UNL     1      12.305  13.090  -1.387  1.00  0.00    -0.388 OA
HETATM   47  H35 UNL     1      11.799  12.247  -1.471  1.00  0.00     0.210 HD
ENDBRANCH  36  46
BRANCH  37  48
HETATM   48  N3  UNL     1      15.450  13.310  -2.218  1.00  0.00    -0.297 N 
HETATM   49  C19 UNL     1      16.296  14.108  -2.951  1.00  0.00     0.188 A 
HETATM   50  N4  UNL     1      16.885  13.449  -3.925  1.00  0.00    -0.346 N 
HETATM   51  C20 UNL     1      16.400  12.157  -3.815  1.00  0.00     0.116 A 
HETATM   52  H4  UNL     1      17.550  13.808  -4.609  1.00  0.00     0.167 HD
HETATM   53  C21 UNL     1      16.669  10.974  -4.525  1.00  0.00     0.109 A 
HETATM   54  C23 UNL     1      15.481  12.067  -2.785  1.00  0.00     0.142 A 
HETATM   55  N5  UNL     1      16.009   9.843  -4.175  1.00  0.00    -0.341 N 
HETATM   56  C22 UNL     1      15.121   9.909  -3.164  1.00  0.00     0.183 A 
HETATM   57  H5  UNL     1      16.181   8.965  -4.665  1.00  0.00     0.167 HD
HETATM   58  N6  UNL     1      14.789  10.977  -2.409  1.00  0.00    -0.336 N 
HETATM   59  H6  UNL     1      14.103  10.960  -1.654  1.00  0.00     0.168 HD
BRANCH  53  60
HETATM   60  N7  UNL     1      17.571  10.904  -5.575  1.00  0.00    -0.287 NA
HETATM   61  H33 UNL     1      18.109  11.756  -5.723  1.00  0.00     0.125 HD
HETATM   62  H34 UNL     1      17.184  10.461  -6.398  1.00  0.00     0.125 HD
ENDBRANCH  53  60
ENDBRANCH  37  48
ENDBRANCH  33  34
ENDBRANCH  32  33
ENDBRANCH  28  32
ENDBRANCH  27  28
ENDBRANCH  23  27
ENDBRANCH  22  23
ENDBRANCH  21  22
ENDBRANCH  18  21
ENDBRANCH  17  18
BRANCH  17  63
HETATM   63  O17 UNL     1      17.123   7.650  -1.145  1.00  0.00    -0.385 OA
HETATM   64  H38 UNL     1      16.355   7.292  -1.620  1.00  0.00     0.210 HD
ENDBRANCH  17  63
ENDBRANCH  14  17
ENDBRANCH  12  13
ENDBRANCH  11  12
ENDBRANCH   8  11
ENDBRANCH   6   7
ENDBRANCH   5   6
ENDBRANCH   4   5
ENDBRANCH   2   4
TORSDOF 27
ENDMDL
MODEL 18
REMARK VINA RESULT:      -5.7      4.688      8.585
REMARK  27 active torsions:
REMARK  status: ('A' for Active; 'I' for Inactive)
REMARK    1  A    between atoms: C2_2  and  S1_4 
REMARK    2  A    between atoms: S1_4  and  C3_5 
REMARK    3  A    between atoms: C3_5  and  C4_6 
REMARK    4  A    between atoms: C4_6  and  N1_7 
REMARK       I    between atoms: N1_7  and  C5_8 
REMARK    5  A    between atoms: C5_8  and  C6_10 
REMARK    6  A    between atoms: C6_10  and  C7_11 
REMARK    7  A    between atoms: C7_11  and  N2_12 
REMARK       I    between atoms: N2_12  and  C8_13 
REMARK    8  A    between atoms: C8_13  and  C9_15 
REMARK    9  A    between atoms: C9_15  and  C10_16 
REMARK   10  A    between atoms: C9_15  and  O17_54 
REMARK   11  A    between atoms: C10_16  and  C13_19 
REMARK   12  A    between atoms: C13_19  and  O4_20 
REMARK   13  A    between atoms: O4_20  and  P1_21 
REMARK   14  A    between atoms: P1_21  and  O6_23 
REMARK   15  A    between atoms: P1_21  and  O7_24 
REMARK   16  A    between atoms: O7_24  and  P2_25 
REMARK   17  A    between atoms: P2_25  and  O9_27 
REMARK   18  A    between atoms: P2_25  and  O10_28 
REMARK   19  A    between atoms: O10_28  and  C14_29 
REMARK   20  A    between atoms: C14_29  and  C15_30 
REMARK   21  A    between atoms: C16_31  and  O13_49 
REMARK   22  A    between atoms: C17_32  and  O12_48 
REMARK   23  A    between atoms: C18_33  and  N3_35 
REMARK   24  A    between atoms: C21_40  and  N7_47 
REMARK   25  A    between atoms: O13_49  and  P3_50 
REMARK   26  A    between atoms: P3_50  and  O15_52 
REMARK   27  A    between atoms: P3_50  and  O16_53 
ROOT
HETATM    1  C1  UNL     1      10.306   6.412  -6.536  1.00  0.00     0.104 C 
HETATM    2  C2  UNL     1      11.315   5.346  -6.834  1.00  0.00     0.182 C 
HETATM    3  O1  UNL     1      11.019   4.247  -7.295  1.00  0.00    -0.286 OA
ENDROOT
BRANCH   2   4
HETATM    4  S1  UNL     1      12.970   5.781  -6.429  1.00  0.00    -0.091 SA
BRANCH   4   5
HETATM    5  C3  UNL     1      13.629   6.127  -8.092  1.00  0.00     0.102 C 
BRANCH   5   6
HETATM    6  C4  UNL     1      14.704   7.216  -8.064  1.00  0.00     0.133 C 
BRANCH   6   7
HETATM    7  N1  UNL     1      15.246   7.433  -6.739  1.00  0.00    -0.360 N 
HETATM    8  C5  UNL     1      16.577   7.231  -6.459  1.00  0.00     0.219 C 
HETATM    9  O2  UNL     1      17.364   6.781  -7.283  1.00  0.00    -0.274 OA
HETATM   10  H8  UNL     1      14.625   7.749  -6.005  1.00  0.00     0.162 HD
BRANCH   8  11
HETATM   11  C6  UNL     1      16.947   7.568  -5.030  1.00  0.00     0.122 C 
BRANCH  11  12
HETATM   12  C7  UNL     1      15.725   7.586  -4.113  1.00  0.00     0.132 C 
BRANCH  12  13
HETATM   13  N2  UNL     1      15.609   8.808  -3.345  1.00  0.00    -0.358 N 
HETATM   14  C8  UNL     1      14.817   9.845  -3.800  1.00  0.00     0.247 C 
HETATM   15  O3  UNL     1      14.287   9.824  -4.904  1.00  0.00    -0.271 OA
HETATM   16  H13 UNL     1      15.703   8.702  -2.337  1.00  0.00     0.162 HD
BRANCH  14  17
HETATM   17  C9  UNL     1      14.642  11.005  -2.809  1.00  0.00     0.219 C 
BRANCH  17  18
HETATM   18  C10 UNL     1      15.459  12.277  -3.157  1.00  0.00     0.009 C 
HETATM   19  C11 UNL     1      16.632  11.970  -4.100  1.00  0.00     0.020 C 
HETATM   20  C12 UNL     1      14.578  13.349  -3.829  1.00  0.00     0.020 C 
BRANCH  18  21
HETATM   21  C13 UNL     1      16.004  12.818  -1.804  1.00  0.00     0.192 C 
BRANCH  21  22
HETATM   22  O4  UNL     1      17.405  12.674  -1.692  1.00  0.00    -0.296 OA
BRANCH  22  23
HETATM   23  P1  UNL     1      18.391  13.915  -1.448  1.00  0.00     0.401 P 
HETATM   24  O5  UNL     1      17.889  15.213  -1.997  1.00  0.00    -0.631 OA
BRANCH  23  25
HETATM   25  O6  UNL     1      19.833  13.483  -2.019  1.00  0.00    -0.307 OA
HETATM   26  H23 UNL     1      20.469  14.209  -1.984  1.00  0.00     0.222 HD
ENDBRANCH  23  25
BRANCH  23  27
HETATM   27  O7  UNL     1      18.667  13.918   0.119  1.00  0.00    -0.195 OA
BRANCH  27  28
HETATM   28  P2  UNL     1      18.977  12.537   0.849  1.00  0.00     0.401 P 
HETATM   29  O8  UNL     1      19.931  11.611   0.169  1.00  0.00    -0.631 OA
BRANCH  28  30
HETATM   30  O9  UNL     1      19.437  12.989   2.309  1.00  0.00    -0.307 OA
HETATM   31  H24 UNL     1      19.075  13.864   2.594  1.00  0.00     0.222 HD
ENDBRANCH  28  30
BRANCH  28  32
HETATM   32  O10 UNL     1      17.532  11.937   1.170  1.00  0.00    -0.294 OA
BRANCH  32  33
HETATM   33  C14 UNL     1      17.177  11.629   2.492  1.00  0.00     0.215 C 
BRANCH  33  34
HETATM   34  C15 UNL     1      16.439  10.293   2.436  1.00  0.00     0.180 C 
HETATM   35  C16 UNL     1      16.292   9.846   0.987  1.00  0.00     0.197 C 
HETATM   36  C17 UNL     1      14.794   9.799   0.750  1.00  0.00     0.199 C 
HETATM   37  C18 UNL     1      14.250   9.578   2.163  1.00  0.00     0.262 C 
HETATM   38  O11 UNL     1      15.128  10.353   3.009  1.00  0.00    -0.353 OA
BRANCH  35  39
HETATM   39  O13 UNL     1      16.896   8.564   0.857  1.00  0.00    -0.286 OA
BRANCH  39  40
HETATM   40  P3  UNL     1      17.968   8.423  -0.320  1.00  0.00     0.391 P 
HETATM   41  O14 UNL     1      19.359   8.158   0.159  1.00  0.00    -0.632 OA
BRANCH  40  42
HETATM   42  O15 UNL     1      17.709   9.782  -1.125  1.00  0.00    -0.307 OA
HETATM   43  H36 UNL     1      16.814  10.143  -0.919  1.00  0.00     0.222 HD
ENDBRANCH  40  42
BRANCH  40  44
HETATM   44  O16 UNL     1      17.284   7.322  -1.240  1.00  0.00    -0.307 OA
HETATM   45  H37 UNL     1      16.992   7.674  -2.096  1.00  0.00     0.222 HD
ENDBRANCH  40  44
ENDBRANCH  39  40
ENDBRANCH  35  39
BRANCH  36  46
HETATM   46  O12 UNL     1      14.479   8.813  -0.237  1.00  0.00    -0.388 OA
HETATM   47  H35 UNL     1      15.214   8.155  -0.217  1.00  0.00     0.210 HD
ENDBRANCH  36  46
BRANCH  37  48
HETATM   48  N3  UNL     1      12.896  10.069   2.322  1.00  0.00    -0.297 N 
HETATM   49  C19 UNL     1      11.761   9.323   2.537  1.00  0.00     0.188 A 
HETATM   50  N4  UNL     1      10.706  10.074   2.765  1.00  0.00    -0.346 N 
HETATM   51  C20 UNL     1      11.181  11.372   2.699  1.00  0.00     0.116 A 
HETATM   52  H4  UNL     1       9.751   9.769   2.950  1.00  0.00     0.167 HD
HETATM   53  C21 UNL     1      10.569  12.622   2.892  1.00  0.00     0.109 A 
HETATM   54  C23 UNL     1      12.528  11.384   2.386  1.00  0.00     0.142 A 
HETATM   55  N5  UNL     1      11.318  13.742   2.743  1.00  0.00    -0.341 N 
HETATM   56  C22 UNL     1      12.617  13.602   2.412  1.00  0.00     0.183 A 
HETATM   57  H5  UNL     1      10.909  14.667   2.878  1.00  0.00     0.167 HD
HETATM   58  N6  UNL     1      13.312  12.463   2.212  1.00  0.00    -0.336 N 
HETATM   59  H6  UNL     1      14.300  12.425   1.961  1.00  0.00     0.168 HD
BRANCH  53  60
HETATM   60  N7  UNL     1       9.230  12.773   3.218  1.00  0.00    -0.287 NA
HETATM   61  H33 UNL     1       8.768  11.911   3.500  1.00  0.00     0.125 HD
HETATM   62  H34 UNL     1       8.730  13.366   2.569  1.00  0.00     0.125 HD
ENDBRANCH  53  60
ENDBRANCH  37  48
ENDBRANCH  33  34
ENDBRANCH  32  33
ENDBRANCH  28  32
ENDBRANCH  27  28
ENDBRANCH  23  27
ENDBRANCH  22  23
ENDBRANCH  21  22
ENDBRANCH  18  21
ENDBRANCH  17  18
BRANCH  17  63
HETATM   63  O17 UNL     1      13.260  11.366  -2.711  1.00  0.00    -0.385 OA
HETATM   64  H38 UNL     1      12.770  10.596  -2.376  1.00  0.00     0.210 HD
ENDBRANCH  17  63
ENDBRANCH  14  17
ENDBRANCH  12  13
ENDBRANCH  11  12
ENDBRANCH   8  11
ENDBRANCH   6   7
ENDBRANCH   5   6
ENDBRANCH   4   5
ENDBRANCH   2   4
TORSDOF 27
ENDMDL
MODEL 19
REMARK VINA RESULT:      -5.6      3.322      5.285
REMARK  27 active torsions:
REMARK  status: ('A' for Active; 'I' for Inactive)
REMARK    1  A    between atoms: C2_2  and  S1_4 
REMARK    2  A    between atoms: S1_4  and  C3_5 
REMARK    3  A    between atoms: C3_5  and  C4_6 
REMARK    4  A    between atoms: C4_6  and  N1_7 
REMARK       I    between atoms: N1_7  and  C5_8 
REMARK    5  A    between atoms: C5_8  and  C6_10 
REMARK    6  A    between atoms: C6_10  and  C7_11 
REMARK    7  A    between atoms: C7_11  and  N2_12 
REMARK       I    between atoms: N2_12  and  C8_13 
REMARK    8  A    between atoms: C8_13  and  C9_15 
REMARK    9  A    between atoms: C9_15  and  C10_16 
REMARK   10  A    between atoms: C9_15  and  O17_54 
REMARK   11  A    between atoms: C10_16  and  C13_19 
REMARK   12  A    between atoms: C13_19  and  O4_20 
REMARK   13  A    between atoms: O4_20  and  P1_21 
REMARK   14  A    between atoms: P1_21  and  O6_23 
REMARK   15  A    between atoms: P1_21  and  O7_24 
REMARK   16  A    between atoms: O7_24  and  P2_25 
REMARK   17  A    between atoms: P2_25  and  O9_27 
REMARK   18  A    between atoms: P2_25  and  O10_28 
REMARK   19  A    between atoms: O10_28  and  C14_29 
REMARK   20  A    between atoms: C14_29  and  C15_30 
REMARK   21  A    between atoms: C16_31  and  O13_49 
REMARK   22  A    between atoms: C17_32  and  O12_48 
REMARK   23  A    between atoms: C18_33  and  N3_35 
REMARK   24  A    between atoms: C21_40  and  N7_47 
REMARK   25  A    between atoms: O13_49  and  P3_50 
REMARK   26  A    between atoms: P3_50  and  O15_52 
REMARK   27  A    between atoms: P3_50  and  O16_53 
ROOT
HETATM    1  C1  UNL     1       6.569   9.884  -5.734  1.00  0.00     0.104 C 
HETATM    2  C2  UNL     1       5.340  10.629  -6.156  1.00  0.00     0.182 C 
HETATM    3  O1  UNL     1       4.322  10.695  -5.472  1.00  0.00    -0.286 OA
ENDROOT
BRANCH   2   4
HETATM    4  S1  UNL     1       5.456  11.379  -7.743  1.00  0.00    -0.091 SA
BRANCH   4   5
HETATM    5  C3  UNL     1       5.872  13.087  -7.264  1.00  0.00     0.102 C 
BRANCH   5   6
HETATM    6  C4  UNL     1       7.367  13.375  -7.422  1.00  0.00     0.133 C 
BRANCH   6   7
HETATM    7  N1  UNL     1       8.140  12.969  -6.267  1.00  0.00    -0.360 N 
HETATM    8  C5  UNL     1       9.109  13.780  -5.723  1.00  0.00     0.219 C 
HETATM    9  O2  UNL     1       9.431  14.851  -6.225  1.00  0.00    -0.274 OA
HETATM   10  H8  UNL     1       7.953  12.068  -5.848  1.00  0.00     0.162 HD
BRANCH   8  11
HETATM   11  C6  UNL     1       9.758  13.193  -4.488  1.00  0.00     0.122 C 
BRANCH  11  12
HETATM   12  C7  UNL     1      11.284  13.217  -4.580  1.00  0.00     0.132 C 
BRANCH  12  13
HETATM   13  N2  UNL     1      11.932  12.734  -3.379  1.00  0.00    -0.358 N 
HETATM   14  C8  UNL     1      13.301  12.546  -3.354  1.00  0.00     0.247 C 
HETATM   15  O3  UNL     1      13.994  12.662  -4.357  1.00  0.00    -0.271 OA
HETATM   16  H13 UNL     1      11.481  12.994  -2.503  1.00  0.00     0.162 HD
BRANCH  14  17
HETATM   17  C9  UNL     1      13.880  12.203  -1.973  1.00  0.00     0.219 C 
BRANCH  17  18
HETATM   18  C10 UNL     1      14.112  13.429  -1.051  1.00  0.00     0.009 C 
HETATM   19  C11 UNL     1      14.324  14.723  -1.851  1.00  0.00     0.020 C 
HETATM   20  C12 UNL     1      12.923  13.651  -0.095  1.00  0.00     0.020 C 
BRANCH  18  21
HETATM   21  C13 UNL     1      15.393  13.108  -0.229  1.00  0.00     0.192 C 
BRANCH  21  22
HETATM   22  O4  UNL     1      15.813  11.768  -0.388  1.00  0.00    -0.296 OA
BRANCH  22  23
HETATM   23  P1  UNL     1      16.219  10.830   0.848  1.00  0.00     0.401 P 
HETATM   24  O5  UNL     1      15.399  11.052   2.080  1.00  0.00    -0.631 OA
BRANCH  23  25
HETATM   25  O6  UNL     1      17.801  11.022   1.077  1.00  0.00    -0.307 OA
HETATM   26  H23 UNL     1      17.990  11.613   1.818  1.00  0.00     0.222 HD
ENDBRANCH  23  25
BRANCH  23  27
HETATM   27  O7  UNL     1      16.168   9.348   0.273  1.00  0.00    -0.195 OA
BRANCH  27  28
HETATM   28  P2  UNL     1      17.521   8.511   0.179  1.00  0.00     0.401 P 
HETATM   29  O8  UNL     1      18.323   8.379   1.432  1.00  0.00    -0.631 OA
BRANCH  28  30
HETATM   30  O9  UNL     1      17.048   7.118  -0.442  1.00  0.00    -0.307 OA
HETATM   31  H24 UNL     1      17.504   6.877  -1.285  1.00  0.00     0.222 HD
ENDBRANCH  28  30
BRANCH  28  32
HETATM   32  O10 UNL     1      18.282   9.147  -1.073  1.00  0.00    -0.294 OA
BRANCH  32  33
HETATM   33  C14 UNL     1      19.113   8.346  -1.871  1.00  0.00     0.215 C 
BRANCH  33  34
HETATM   34  C15 UNL     1      18.794   8.710  -3.320  1.00  0.00     0.180 C 
HETATM   35  C16 UNL     1      17.797   9.861  -3.354  1.00  0.00     0.197 C 
HETATM   36  C17 UNL     1      16.573   9.288  -4.044  1.00  0.00     0.199 C 
HETATM   37  C18 UNL     1      17.175   8.161  -4.887  1.00  0.00     0.262 C 
HETATM   38  O11 UNL     1      18.229   7.621  -4.059  1.00  0.00    -0.353 OA
BRANCH  35  39
HETATM   39  O13 UNL     1      18.380  10.928  -4.094  1.00  0.00    -0.286 OA
BRANCH  39  40
HETATM   40  P3  UNL     1      18.402  12.346  -3.357  1.00  0.00     0.391 P 
HETATM   41  O14 UNL     1      19.522  13.235  -3.794  1.00  0.00    -0.632 OA
BRANCH  40  42
HETATM   42  O15 UNL     1      18.375  11.887  -1.825  1.00  0.00    -0.307 OA
HETATM   43  H36 UNL     1      18.508  10.913  -1.750  1.00  0.00     0.222 HD
ENDBRANCH  40  42
BRANCH  40  44
HETATM   44  O16 UNL     1      16.917  12.856  -3.608  1.00  0.00    -0.307 OA
HETATM   45  H37 UNL     1      16.629  13.513  -2.955  1.00  0.00     0.222 HD
ENDBRANCH  40  44
ENDBRANCH  39  40
ENDBRANCH  35  39
BRANCH  36  46
HETATM   46  O12 UNL     1      15.866  10.320  -4.737  1.00  0.00    -0.388 OA
HETATM   47  H35 UNL     1      15.811  10.034  -5.680  1.00  0.00     0.210 HD
ENDBRANCH  36  46
BRANCH  37  48
HETATM   48  N3  UNL     1      16.221   7.108  -5.171  1.00  0.00    -0.297 N 
HETATM   49  C19 UNL     1      15.752   6.153  -4.300  1.00  0.00     0.188 A 
HETATM   50  N4  UNL     1      14.798   5.420  -4.830  1.00  0.00    -0.346 N 
HETATM   51  C20 UNL     1      14.636   5.927  -6.107  1.00  0.00     0.116 A 
HETATM   52  H4  UNL     1      14.290   4.648  -4.397  1.00  0.00     0.167 HD
HETATM   53  C21 UNL     1      13.754   5.610  -7.154  1.00  0.00     0.109 A 
HETATM   54  C23 UNL     1      15.538   6.948  -6.345  1.00  0.00     0.142 A 
HETATM   55  N5  UNL     1      13.852   6.298  -8.317  1.00  0.00    -0.341 N 
HETATM   56  C22 UNL     1      14.798   7.254  -8.415  1.00  0.00     0.183 A 
HETATM   57  H5  UNL     1      13.227   6.099  -9.098  1.00  0.00     0.167 HD
HETATM   58  N6  UNL     1      15.688   7.650  -7.482  1.00  0.00    -0.336 N 
HETATM   59  H6  UNL     1      16.383   8.384  -7.621  1.00  0.00     0.168 HD
BRANCH  53  60
HETATM   60  N7  UNL     1      12.789   4.619  -7.064  1.00  0.00    -0.287 NA
HETATM   61  H33 UNL     1      13.152   3.704  -6.804  1.00  0.00     0.125 HD
HETATM   62  H34 UNL     1      12.123   4.645  -7.824  1.00  0.00     0.125 HD
ENDBRANCH  53  60
ENDBRANCH  37  48
ENDBRANCH  33  34
ENDBRANCH  32  33
ENDBRANCH  28  32
ENDBRANCH  27  28
ENDBRANCH  23  27
ENDBRANCH  22  23
ENDBRANCH  21  22
ENDBRANCH  18  21
ENDBRANCH  17  18
BRANCH  17  63
HETATM   63  O17 UNL     1      13.020  11.281  -1.294  1.00  0.00    -0.385 OA
HETATM   64  H38 UNL     1      13.315  10.380  -1.508  1.00  0.00     0.210 HD
ENDBRANCH  17  63
ENDBRANCH  14  17
ENDBRANCH  12  13
ENDBRANCH  11  12
ENDBRANCH   8  11
ENDBRANCH   6   7
ENDBRANCH   5   6
ENDBRANCH   4   5
ENDBRANCH   2   4
TORSDOF 27
ENDMDL
MODEL 20
REMARK VINA RESULT:      -5.1      5.537     10.371
REMARK  27 active torsions:
REMARK  status: ('A' for Active; 'I' for Inactive)
REMARK    1  A    between atoms: C2_2  and  S1_4 
REMARK    2  A    between atoms: S1_4  and  C3_5 
REMARK    3  A    between atoms: C3_5  and  C4_6 
REMARK    4  A    between atoms: C4_6  and  N1_7 
REMARK       I    between atoms: N1_7  and  C5_8 
REMARK    5  A    between atoms: C5_8  and  C6_10 
REMARK    6  A    between atoms: C6_10  and  C7_11 
REMARK    7  A    between atoms: C7_11  and  N2_12 
REMARK       I    between atoms: N2_12  and  C8_13 
REMARK    8  A    between atoms: C8_13  and  C9_15 
REMARK    9  A    between atoms: C9_15  and  C10_16 
REMARK   10  A    between atoms: C9_15  and  O17_54 
REMARK   11  A    between atoms: C10_16  and  C13_19 
REMARK   12  A    between atoms: C13_19  and  O4_20 
REMARK   13  A    between atoms: O4_20  and  P1_21 
REMARK   14  A    between atoms: P1_21  and  O6_23 
REMARK   15  A    between atoms: P1_21  and  O7_24 
REMARK   16  A    between atoms: O7_24  and  P2_25 
REMARK   17  A    between atoms: P2_25  and  O9_27 
REMARK   18  A    between atoms: P2_25  and  O10_28 
REMARK   19  A    between atoms: O10_28  and  C14_29 
REMARK   20  A    between atoms: C14_29  and  C15_30 
REMARK   21  A    between atoms: C16_31  and  O13_49 
REMARK   22  A    between atoms: C17_32  and  O12_48 
REMARK   23  A    between atoms: C18_33  and  N3_35 
REMARK   24  A    between atoms: C21_40  and  N7_47 
REMARK   25  A    between atoms: O13_49  and  P3_50 
REMARK   26  A    between atoms: P3_50  and  O15_52 
REMARK   27  A    between atoms: P3_50  and  O16_53 
ROOT
HETATM    1  C1  UNL     1      13.017   5.826  -7.665  1.00  0.00     0.104 C 
HETATM    2  C2  UNL     1      14.392   6.309  -8.011  1.00  0.00     0.182 C 
HETATM    3  O1  UNL     1      15.187   5.657  -8.683  1.00  0.00    -0.286 OA
ENDROOT
BRANCH   2   4
HETATM    4  S1  UNL     1      14.798   7.883  -7.340  1.00  0.00    -0.091 SA
BRANCH   4   5
HETATM    5  C3  UNL     1      14.636   7.528  -5.561  1.00  0.00     0.102 C 
BRANCH   5   6
HETATM    6  C4  UNL     1      15.561   6.392  -5.120  1.00  0.00     0.133 C 
BRANCH   6   7
HETATM    7  N1  UNL     1      16.301   6.709  -3.915  1.00  0.00    -0.360 N 
HETATM    8  C5  UNL     1      17.414   5.994  -3.540  1.00  0.00     0.219 C 
HETATM    9  O2  UNL     1      17.800   5.004  -4.151  1.00  0.00    -0.274 OA
HETATM   10  H8  UNL     1      15.989   7.482  -3.342  1.00  0.00     0.162 HD
BRANCH   8  11
HETATM   11  C6  UNL     1      18.070   6.522  -2.282  1.00  0.00     0.122 C 
BRANCH  11  12
HETATM   12  C7  UNL     1      19.471   7.069  -2.555  1.00  0.00     0.132 C 
BRANCH  12  13
HETATM   13  N2  UNL     1      19.619   7.610  -3.890  1.00  0.00    -0.358 N 
HETATM   14  C8  UNL     1      19.855   8.960  -4.072  1.00  0.00     0.247 C 
HETATM   15  O3  UNL     1      19.831   9.757  -3.142  1.00  0.00    -0.271 OA
HETATM   16  H13 UNL     1      20.008   6.972  -4.581  1.00  0.00     0.162 HD
BRANCH  14  17
HETATM   17  C9  UNL     1      20.168   9.370  -5.519  1.00  0.00     0.219 C 
BRANCH  17  18
HETATM   18  C10 UNL     1      18.919   9.531  -6.425  1.00  0.00     0.009 C 
HETATM   19  C11 UNL     1      19.141  10.568  -7.536  1.00  0.00     0.020 C 
HETATM   20  C12 UNL     1      18.530   8.196  -7.092  1.00  0.00     0.020 C 
BRANCH  18  21
HETATM   21  C13 UNL     1      17.771  10.005  -5.490  1.00  0.00     0.192 C 
BRANCH  21  22
HETATM   22  O4  UNL     1      17.423  11.357  -5.707  1.00  0.00    -0.296 OA
BRANCH  22  23
HETATM   23  P1  UNL     1      17.547  12.482  -4.570  1.00  0.00     0.401 P 
HETATM   24  O5  UNL     1      17.229  13.866  -5.042  1.00  0.00    -0.631 OA
BRANCH  23  25
HETATM   25  O6  UNL     1      19.016  12.335  -3.929  1.00  0.00    -0.307 OA
HETATM   26  H23 UNL     1      19.454  13.190  -3.829  1.00  0.00     0.222 HD
ENDBRANCH  23  25
BRANCH  23  27
HETATM   27  O7  UNL     1      16.634  11.960  -3.376  1.00  0.00    -0.195 OA
BRANCH  27  28
HETATM   28  P2  UNL     1      15.351  12.809  -2.960  1.00  0.00     0.401 P 
HETATM   29  O8  UNL     1      15.592  14.185  -2.431  1.00  0.00    -0.631 OA
BRANCH  28  30
HETATM   30  O9  UNL     1      14.442  12.765  -4.272  1.00  0.00    -0.307 OA
HETATM   31  H24 UNL     1      14.910  12.431  -5.076  1.00  0.00     0.222 HD
ENDBRANCH  28  30
BRANCH  28  32
HETATM   32  O10 UNL     1      14.533  11.827  -2.003  1.00  0.00    -0.294 OA
BRANCH  32  33
HETATM   33  C14 UNL     1      13.419  12.304  -1.295  1.00  0.00     0.215 C 
BRANCH  33  34
HETATM   34  C15 UNL     1      13.324  11.457  -0.027  1.00  0.00     0.180 C 
HETATM   35  C16 UNL     1      13.371  12.358   1.200  1.00  0.00     0.197 C 
HETATM   36  C17 UNL     1      14.624  11.933   1.941  1.00  0.00     0.199 C 
HETATM   37  C18 UNL     1      14.801  10.486   1.475  1.00  0.00     0.262 C 
HETATM   38  O11 UNL     1      14.388  10.505   0.090  1.00  0.00    -0.353 OA
BRANCH  35  39
HETATM   39  O13 UNL     1      12.191  12.126   1.963  1.00  0.00    -0.286 OA
BRANCH  39  40
HETATM   40  P3  UNL     1      11.423  13.436   2.460  1.00  0.00     0.391 P 
HETATM   41  O14 UNL     1      10.016  13.182   2.896  1.00  0.00    -0.632 OA
BRANCH  40  42
HETATM   42  O15 UNL     1      11.647  14.408   1.209  1.00  0.00    -0.307 OA
HETATM   43  H36 UNL     1      10.886  15.028   1.109  1.00  0.00     0.222 HD
ENDBRANCH  40  42
BRANCH  40  44
HETATM   44  O16 UNL     1      12.439  14.004   3.545  1.00  0.00    -0.307 OA
HETATM   45  H37 UNL     1      12.967  13.308   3.967  1.00  0.00     0.222 HD
ENDBRANCH  40  44
ENDBRANCH  39  40
ENDBRANCH  35  39
BRANCH  36  46
HETATM   46  O12 UNL     1      14.469  12.156   3.345  1.00  0.00    -0.388 OA
HETATM   47  H35 UNL     1      13.506  12.059   3.537  1.00  0.00     0.210 HD
ENDBRANCH  36  46
BRANCH  37  48
HETATM   48  N3  UNL     1      16.179  10.043   1.544  1.00  0.00    -0.297 N 
HETATM   49  C19 UNL     1      16.679   8.995   2.281  1.00  0.00     0.188 A 
HETATM   50  N4  UNL     1      17.950   8.771   2.030  1.00  0.00    -0.346 N 
HETATM   51  C20 UNL     1      18.290   9.717   1.079  1.00  0.00     0.116 A 
HETATM   52  H4  UNL     1      18.551   8.058   2.443  1.00  0.00     0.167 HD
HETATM   53  C21 UNL     1      19.479   9.976   0.376  1.00  0.00     0.109 A 
HETATM   54  C23 UNL     1      17.213  10.537   0.799  1.00  0.00     0.142 A 
HETATM   55  N5  UNL     1      19.501  11.007  -0.504  1.00  0.00    -0.341 N 
HETATM   56  C22 UNL     1      18.379  11.738  -0.659  1.00  0.00     0.183 A 
HETATM   57  H5  UNL     1      20.344  11.223  -1.036  1.00  0.00     0.167 HD
HETATM   58  N6  UNL     1      17.186  11.579  -0.051  1.00  0.00    -0.336 N 
HETATM   59  H6  UNL     1      16.371  12.171  -0.213  1.00  0.00     0.168 HD
BRANCH  53  60
HETATM   60  N7  UNL     1      20.640   9.237   0.542  1.00  0.00    -0.287 NA
HETATM   61  H33 UNL     1      21.224   9.543   1.317  1.00  0.00     0.125 HD
HETATM   62  H34 UNL     1      21.109   9.038  -0.331  1.00  0.00     0.125 HD
ENDBRANCH  53  60
ENDBRANCH  37  48
ENDBRANCH  33  34
ENDBRANCH  32  33
ENDBRANCH  28  32
ENDBRANCH  27  28
ENDBRANCH  23  27
ENDBRANCH  22  23
ENDBRANCH  21  22
ENDBRANCH  18  21
ENDBRANCH  17  18
BRANCH  17  63
HETATM   63  O17 UNL     1      20.902  10.599  -5.535  1.00  0.00    -0.385 OA
HETATM   64  H38 UNL     1      20.330  11.298  -5.175  1.00  0.00     0.210 HD
ENDBRANCH  17  63
ENDBRANCH  14  17
ENDBRANCH  12  13
ENDBRANCH  11  12
ENDBRANCH   8  11
ENDBRANCH   6   7
ENDBRANCH   5   6
ENDBRANCH   4   5
ENDBRANCH   2   4
TORSDOF 27
ENDMDL
