MODEL 1
REMARK VINA RESULT:      -4.0      0.000      0.000
REMARK  2 active torsions:
REMARK  status: ('A' for Active; 'I' for Inactive)
REMARK    1  A    between atoms: C3_3  and  O1_8 
REMARK    2  A    between atoms: C6_6  and  N1_7 
ROOT
HETATM    1  C1  UNL     1      10.399   9.924  -3.179  1.00  0.00     0.026 A 
HETATM    2  C2  UNL     1      10.126   9.959  -4.549  1.00  0.00     0.038 A 
HETATM    3  C3  UNL     1      10.616  11.003  -5.321  1.00  0.00     0.065 A 
HETATM    4  C4  UNL     1      11.391  12.005  -4.747  1.00  0.00     0.038 A 
HETATM    5  C5  UNL     1      11.659  11.963  -3.376  1.00  0.00     0.026 A 
HETATM    6  C6  UNL     1      11.125  10.952  -2.571  1.00  0.00     0.005 A 
ENDROOT
BRANCH   6   7
HETATM    7  N1  UNL     1      11.496  10.853  -1.225  1.00  0.00    -0.303 NA
HETATM    8  H5  UNL     1      12.088  11.614  -0.908  1.00  0.00     0.124 HD
HETATM    9  H6  UNL     1      11.865   9.944  -0.967  1.00  0.00     0.124 HD
ENDBRANCH   6   7
BRANCH   3  10
HETATM   10  O1  UNL     1      10.330  11.000  -6.653  1.00  0.00    -0.361 OA
HETATM   11  H7  UNL     1       9.407  10.726  -6.771  1.00  0.00     0.217 HD
ENDBRANCH   3  10
TORSDOF 2
ENDMDL
MODEL 2
REMARK VINA RESULT:      -3.9      2.780      3.265
REMARK  2 active torsions:
REMARK  status: ('A' for Active; 'I' for Inactive)
REMARK    1  A    between atoms: C3_3  and  O1_8 
REMARK    2  A    between atoms: C6_6  and  N1_7 
ROOT
HETATM    1  C1  UNL     1      10.221   9.927  -4.428  1.00  0.00     0.026 A 
HETATM    2  C2  UNL     1      10.455   9.913  -3.052  1.00  0.00     0.038 A 
HETATM    3  C3  UNL     1      11.181  10.942  -2.467  1.00  0.00     0.065 A 
HETATM    4  C4  UNL     1      11.663  11.994  -3.237  1.00  0.00     0.038 A 
HETATM    5  C5  UNL     1      11.426  12.000  -4.615  1.00  0.00     0.026 A 
HETATM    6  C6  UNL     1      10.747  10.944  -5.231  1.00  0.00     0.005 A 
ENDROOT
BRANCH   6   7
HETATM    7  N1  UNL     1      10.412  11.017  -6.587  1.00  0.00    -0.303 NA
HETATM    8  H5  UNL     1       9.897  10.210  -6.924  1.00  0.00     0.124 HD
HETATM    9  H6  UNL     1      11.191  11.257  -7.191  1.00  0.00     0.124 HD
ENDBRANCH   6   7
BRANCH   3  10
HETATM   10  O1  UNL     1      11.386  10.893  -1.121  1.00  0.00    -0.361 OA
HETATM   11  H7  UNL     1      10.675  11.387  -0.682  1.00  0.00     0.217 HD
ENDBRANCH   3  10
TORSDOF 2
ENDMDL
MODEL 3
REMARK VINA RESULT:      -3.9      2.780      3.682
REMARK  2 active torsions:
REMARK  status: ('A' for Active; 'I' for Inactive)
REMARK    1  A    between atoms: C3_3  and  O1_8 
REMARK    2  A    between atoms: C6_6  and  N1_7 
ROOT
HETATM    1  C1  UNL     1      11.536  11.977  -4.587  1.00  0.00     0.026 A 
HETATM    2  C2  UNL     1      11.764  11.921  -3.210  1.00  0.00     0.038 A 
HETATM    3  C3  UNL     1      11.180  10.913  -2.457  1.00  0.00     0.065 A 
HETATM    4  C4  UNL     1      10.382   9.949  -3.062  1.00  0.00     0.038 A 
HETATM    5  C5  UNL     1      10.156  10.012  -4.440  1.00  0.00     0.026 A 
HETATM    6  C6  UNL     1      10.689  11.054  -5.207  1.00  0.00     0.005 A 
ENDROOT
BRANCH   6   7
HETATM    7  N1  UNL     1      10.557  11.043  -6.600  1.00  0.00    -0.303 NA
HETATM    8  H5  UNL     1      11.285  11.559  -7.083  1.00  0.00     0.124 HD
HETATM    9  H6  UNL     1       9.628  11.288  -6.927  1.00  0.00     0.124 HD
ENDBRANCH   6   7
BRANCH   3  10
HETATM   10  O1  UNL     1      11.430  10.891  -1.117  1.00  0.00    -0.361 OA
HETATM   11  H7  UNL     1      11.571   9.970  -0.844  1.00  0.00     0.217 HD
ENDBRANCH   3  10
TORSDOF 2
ENDMDL
MODEL 4
REMARK VINA RESULT:      -3.8      0.345      1.725
REMARK  2 active torsions:
REMARK  status: ('A' for Active; 'I' for Inactive)
REMARK    1  A    between atoms: C3_3  and  O1_8 
REMARK    2  A    between atoms: C6_6  and  N1_7 
ROOT
HETATM    1  C1  UNL     1      11.455  12.299  -3.562  1.00  0.00     0.026 A 
HETATM    2  C2  UNL     1      11.156  12.138  -4.917  1.00  0.00     0.038 A 
HETATM    3  C3  UNL     1      10.536  10.975  -5.351  1.00  0.00     0.065 A 
HETATM    4  C4  UNL     1      10.196   9.974  -4.447  1.00  0.00     0.038 A 
HETATM    5  C5  UNL     1      10.500  10.141  -3.093  1.00  0.00     0.026 A 
HETATM    6  C6  UNL     1      11.177  11.281  -2.645  1.00  0.00     0.005 A 
ENDROOT
BRANCH   6   7
HETATM    7  N1  UNL     1      11.369  11.493  -1.275  1.00  0.00    -0.303 NA
HETATM    8  H5  UNL     1      11.585  12.456  -1.038  1.00  0.00     0.124 HD
HETATM    9  H6  UNL     1      12.011  10.836  -0.845  1.00  0.00     0.124 HD
ENDBRANCH   6   7
BRANCH   3  10
HETATM   10  O1  UNL     1      10.258  10.857  -6.680  1.00  0.00    -0.361 OA
HETATM   11  H7  UNL     1      10.175  11.746  -7.059  1.00  0.00     0.217 HD
ENDBRANCH   3  10
TORSDOF 2
ENDMDL
MODEL 5
REMARK VINA RESULT:      -3.8      1.786      2.270
REMARK  2 active torsions:
REMARK  status: ('A' for Active; 'I' for Inactive)
REMARK    1  A    between atoms: C3_3  and  O1_8 
REMARK    2  A    between atoms: C6_6  and  N1_7 
ROOT
HETATM    1  C1  UNL     1      11.168  10.776  -1.978  1.00  0.00     0.026 A 
HETATM    2  C2  UNL     1      11.119  11.336  -3.256  1.00  0.00     0.038 A 
HETATM    3  C3  UNL     1      12.191  12.085  -3.720  1.00  0.00     0.065 A 
HETATM    4  C4  UNL     1      13.320  12.269  -2.931  1.00  0.00     0.038 A 
HETATM    5  C5  UNL     1      13.361  11.707  -1.651  1.00  0.00     0.026 A 
HETATM    6  C6  UNL     1      12.267  10.999  -1.144  1.00  0.00     0.005 A 
ENDROOT
BRANCH   6   7
HETATM    7  N1  UNL     1      12.364  10.340   0.087  1.00  0.00    -0.303 NA
HETATM    8  H5  UNL     1      13.023  10.770   0.729  1.00  0.00     0.124 HD
HETATM    9  H6  UNL     1      12.501   9.338   0.007  1.00  0.00     0.124 HD
ENDBRANCH   6   7
BRANCH   3  10
HETATM   10  O1  UNL     1      12.106  12.612  -4.974  1.00  0.00    -0.361 OA
HETATM   11  H7  UNL     1      12.703  12.118  -5.559  1.00  0.00     0.217 HD
ENDBRANCH   3  10
TORSDOF 2
ENDMDL
MODEL 6
REMARK VINA RESULT:      -3.7      3.225      4.162
REMARK  2 active torsions:
REMARK  status: ('A' for Active; 'I' for Inactive)
REMARK    1  A    between atoms: C3_3  and  O1_8 
REMARK    2  A    between atoms: C6_6  and  N1_7 
ROOT
HETATM    1  C1  UNL     1      13.378  12.213  -2.869  1.00  0.00     0.026 A 
HETATM    2  C2  UNL     1      13.415  11.621  -1.605  1.00  0.00     0.038 A 
HETATM    3  C3  UNL     1      12.312  10.917  -1.142  1.00  0.00     0.065 A 
HETATM    4  C4  UNL     1      11.175  10.784  -1.932  1.00  0.00     0.038 A 
HETATM    5  C5  UNL     1      11.145  11.381  -3.196  1.00  0.00     0.026 A 
HETATM    6  C6  UNL     1      12.224  12.143  -3.655  1.00  0.00     0.005 A 
ENDROOT
BRANCH   6   7
HETATM    7  N1  UNL     1      12.232  12.635  -4.965  1.00  0.00    -0.303 NA
HETATM    8  H5  UNL     1      11.348  12.519  -5.450  1.00  0.00     0.124 HD
HETATM    9  H6  UNL     1      13.021  12.317  -5.518  1.00  0.00     0.124 HD
ENDBRANCH   6   7
BRANCH   3  10
HETATM   10  O1  UNL     1      12.388  10.351   0.095  1.00  0.00    -0.361 OA
HETATM   11  H7  UNL     1      12.089   9.430   0.033  1.00  0.00     0.217 HD
ENDBRANCH   3  10
TORSDOF 2
ENDMDL
MODEL 7
REMARK VINA RESULT:      -3.6      2.932      3.642
REMARK  2 active torsions:
REMARK  status: ('A' for Active; 'I' for Inactive)
REMARK    1  A    between atoms: C3_3  and  O1_8 
REMARK    2  A    between atoms: C6_6  and  N1_7 
ROOT
HETATM    1  C1  UNL     1       9.858  12.344  -4.681  1.00  0.00     0.026 A 
HETATM    2  C2  UNL     1      10.154  12.884  -3.427  1.00  0.00     0.038 A 
HETATM    3  C3  UNL     1      10.629  12.059  -2.418  1.00  0.00     0.065 A 
HETATM    4  C4  UNL     1      10.829  10.702  -2.648  1.00  0.00     0.038 A 
HETATM    5  C5  UNL     1      10.529  10.168  -3.905  1.00  0.00     0.026 A 
HETATM    6  C6  UNL     1       9.994  10.973  -4.916  1.00  0.00     0.005 A 
ENDROOT
BRANCH   6   7
HETATM    7  N1  UNL     1       9.810  10.456  -6.204  1.00  0.00    -0.303 NA
HETATM    8  H5  UNL     1      10.067  11.103  -6.943  1.00  0.00     0.124 HD
HETATM    9  H6  UNL     1       8.897  10.041  -6.353  1.00  0.00     0.124 HD
ENDBRANCH   6   7
BRANCH   3  10
HETATM   10  O1  UNL     1      10.909  12.623  -1.209  1.00  0.00    -0.361 OA
HETATM   11  H7  UNL     1      11.777  12.308  -0.914  1.00  0.00     0.217 HD
ENDBRANCH   3  10
TORSDOF 2
ENDMDL
MODEL 8
REMARK VINA RESULT:      -3.5      3.038      3.344
REMARK  2 active torsions:
REMARK  status: ('A' for Active; 'I' for Inactive)
REMARK    1  A    between atoms: C3_3  and  O1_8 
REMARK    2  A    between atoms: C6_6  and  N1_7 
ROOT
HETATM    1  C1  UNL     1       9.973  10.646  -5.281  1.00  0.00     0.026 A 
HETATM    2  C2  UNL     1       8.897  11.235  -4.615  1.00  0.00     0.038 A 
HETATM    3  C3  UNL     1       8.740  12.614  -4.645  1.00  0.00     0.065 A 
HETATM    4  C4  UNL     1       9.637  13.412  -5.347  1.00  0.00     0.038 A 
HETATM    5  C5  UNL     1      10.713  12.815  -6.010  1.00  0.00     0.026 A 
HETATM    6  C6  UNL     1      10.920  11.434  -5.942  1.00  0.00     0.005 A 
ENDROOT
BRANCH   6   7
HETATM    7  N1  UNL     1      11.928  10.834  -6.705  1.00  0.00    -0.303 NA
HETATM    8  H5  UNL     1      12.785  11.378  -6.749  1.00  0.00     0.124 HD
HETATM    9  H6  UNL     1      11.620  10.524  -7.621  1.00  0.00     0.124 HD
ENDBRANCH   6   7
BRANCH   3  10
HETATM   10  O1  UNL     1       7.676  13.150  -3.985  1.00  0.00    -0.361 OA
HETATM   11  H7  UNL     1       6.859  12.819  -4.392  1.00  0.00     0.217 HD
ENDBRANCH   3  10
TORSDOF 2
ENDMDL
MODEL 9
REMARK VINA RESULT:      -3.5      1.516      1.625
REMARK  2 active torsions:
REMARK  status: ('A' for Active; 'I' for Inactive)
REMARK    1  A    between atoms: C3_3  and  O1_8 
REMARK    2  A    between atoms: C6_6  and  N1_7 
ROOT
HETATM    1  C1  UNL     1      10.473  10.545  -4.220  1.00  0.00     0.026 A 
HETATM    2  C2  UNL     1      10.002  11.245  -5.333  1.00  0.00     0.038 A 
HETATM    3  C3  UNL     1       9.713  12.598  -5.223  1.00  0.00     0.065 A 
HETATM    4  C4  UNL     1       9.904  13.267  -4.019  1.00  0.00     0.038 A 
HETATM    5  C5  UNL     1      10.375  12.559  -2.909  1.00  0.00     0.026 A 
HETATM    6  C6  UNL     1      10.615  11.183  -2.984  1.00  0.00     0.005 A 
ENDROOT
BRANCH   6   7
HETATM    7  N1  UNL     1      11.197  10.509  -1.905  1.00  0.00    -0.303 NA
HETATM    8  H5  UNL     1      11.433  11.115  -1.125  1.00  0.00     0.124 HD
HETATM    9  H6  UNL     1      11.966   9.901  -2.167  1.00  0.00     0.124 HD
ENDBRANCH   6   7
BRANCH   3  10
HETATM   10  O1  UNL     1       9.259  13.246  -6.332  1.00  0.00    -0.361 OA
HETATM   11  H7  UNL     1       9.903  13.125  -7.047  1.00  0.00     0.217 HD
ENDBRANCH   3  10
TORSDOF 2
ENDMDL
MODEL 10
REMARK VINA RESULT:      -3.4      1.453      1.811
REMARK  2 active torsions:
REMARK  status: ('A' for Active; 'I' for Inactive)
REMARK    1  A    between atoms: C3_3  and  O1_8 
REMARK    2  A    between atoms: C6_6  and  N1_7 
ROOT
HETATM    1  C1  UNL     1      11.398  11.480  -3.348  1.00  0.00     0.026 A 
HETATM    2  C2  UNL     1      10.554  10.885  -4.289  1.00  0.00     0.038 A 
HETATM    3  C3  UNL     1      10.750  11.130  -5.641  1.00  0.00     0.065 A 
HETATM    4  C4  UNL     1      11.789  11.949  -6.068  1.00  0.00     0.038 A 
HETATM    5  C5  UNL     1      12.629  12.542  -5.121  1.00  0.00     0.026 A 
HETATM    6  C6  UNL     1      12.411  12.354  -3.752  1.00  0.00     0.005 A 
ENDROOT
BRANCH   6   7
HETATM    7  N1  UNL     1      13.325  12.854  -2.818  1.00  0.00    -0.303 NA
HETATM    8  H5  UNL     1      12.906  13.093  -1.924  1.00  0.00     0.124 HD
HETATM    9  H6  UNL     1      13.917  13.595  -3.178  1.00  0.00     0.124 HD
ENDBRANCH   6   7
BRANCH   3  10
HETATM   10  O1  UNL     1       9.908  10.529  -6.527  1.00  0.00    -0.361 OA
HETATM   11  H7  UNL     1       9.223  10.053  -6.031  1.00  0.00     0.217 HD
ENDBRANCH   3  10
TORSDOF 2
ENDMDL
MODEL 11
REMARK VINA RESULT:      -3.4      2.650      3.241
REMARK  2 active torsions:
REMARK  status: ('A' for Active; 'I' for Inactive)
REMARK    1  A    between atoms: C3_3  and  O1_8 
REMARK    2  A    between atoms: C6_6  and  N1_7 
ROOT
HETATM    1  C1  UNL     1       9.820  13.315  -5.448  1.00  0.00     0.026 A 
HETATM    2  C2  UNL     1      10.914  12.751  -6.108  1.00  0.00     0.038 A 
HETATM    3  C3  UNL     1      11.108  11.377  -6.067  1.00  0.00     0.065 A 
HETATM    4  C4  UNL     1      10.215  10.556  -5.387  1.00  0.00     0.038 A 
HETATM    5  C5  UNL     1       9.124  11.129  -4.727  1.00  0.00     0.026 A 
HETATM    6  C6  UNL     1       8.944  12.516  -4.708  1.00  0.00     0.005 A 
ENDROOT
BRANCH   6   7
HETATM    7  N1  UNL     1       7.787  13.069  -4.148  1.00  0.00    -0.303 NA
HETATM    8  H5  UNL     1       7.854  14.067  -3.977  1.00  0.00     0.124 HD
HETATM    9  H6  UNL     1       7.439  12.561  -3.341  1.00  0.00     0.124 HD
ENDBRANCH   6   7
BRANCH   3  10
HETATM   10  O1  UNL     1      12.185  10.864  -6.726  1.00  0.00    -0.361 OA
HETATM   11  H7  UNL     1      12.292   9.935  -6.468  1.00  0.00     0.217 HD
ENDBRANCH   3  10
TORSDOF 2
ENDMDL
MODEL 12
REMARK VINA RESULT:      -3.4      2.672      3.192
REMARK  2 active torsions:
REMARK  status: ('A' for Active; 'I' for Inactive)
REMARK    1  A    between atoms: C3_3  and  O1_8 
REMARK    2  A    between atoms: C6_6  and  N1_7 
ROOT
HETATM    1  C1  UNL     1      10.629  11.136  -5.958  1.00  0.00     0.026 A 
HETATM    2  C2  UNL     1      10.347  10.225  -4.938  1.00  0.00     0.038 A 
HETATM    3  C3  UNL     1      10.646  10.552  -3.623  1.00  0.00     0.065 A 
HETATM    4  C4  UNL     1      11.208  11.784  -3.309  1.00  0.00     0.038 A 
HETATM    5  C5  UNL     1      11.489  12.691  -4.336  1.00  0.00     0.026 A 
HETATM    6  C6  UNL     1      11.249  12.356  -5.673  1.00  0.00     0.005 A 
ENDROOT
BRANCH   6   7
HETATM    7  N1  UNL     1      11.421  13.313  -6.680  1.00  0.00    -0.303 NA
HETATM    8  H5  UNL     1      10.680  13.311  -7.375  1.00  0.00     0.124 HD
HETATM    9  H6  UNL     1      12.344  13.305  -7.100  1.00  0.00     0.124 HD
ENDBRANCH   6   7
BRANCH   3  10
HETATM   10  O1  UNL     1      10.354   9.637  -2.655  1.00  0.00    -0.361 OA
HETATM   11  H7  UNL     1       9.977  10.103  -1.892  1.00  0.00     0.217 HD
ENDBRANCH   3  10
TORSDOF 2
ENDMDL
MODEL 13
REMARK VINA RESULT:      -3.4      2.927      3.539
REMARK  2 active torsions:
REMARK  status: ('A' for Active; 'I' for Inactive)
REMARK    1  A    between atoms: C3_3  and  O1_8 
REMARK    2  A    between atoms: C6_6  and  N1_7 
ROOT
HETATM    1  C1  UNL     1      10.879  11.218  -4.294  1.00  0.00     0.026 A 
HETATM    2  C2  UNL     1      11.808  11.827  -3.447  1.00  0.00     0.038 A 
HETATM    3  C3  UNL     1      12.856  12.558  -3.987  1.00  0.00     0.065 A 
HETATM    4  C4  UNL     1      12.983  12.703  -5.364  1.00  0.00     0.038 A 
HETATM    5  C5  UNL     1      12.051  12.089  -6.206  1.00  0.00     0.026 A 
HETATM    6  C6  UNL     1      11.021  11.301  -5.683  1.00  0.00     0.005 A 
ENDROOT
BRANCH   6   7
HETATM    7  N1  UNL     1      10.027  10.790  -6.525  1.00  0.00    -0.303 NA
HETATM    8  H5  UNL     1       9.897  11.329  -7.376  1.00  0.00     0.124 HD
HETATM    9  H6  UNL     1       9.150  10.596  -6.053  1.00  0.00     0.124 HD
ENDBRANCH   6   7
BRANCH   3  10
HETATM   10  O1  UNL     1      13.739  13.139  -3.127  1.00  0.00    -0.361 OA
HETATM   11  H7  UNL     1      13.428  12.995  -2.219  1.00  0.00     0.217 HD
ENDBRANCH   3  10
TORSDOF 2
ENDMDL
MODEL 14
REMARK VINA RESULT:      -3.3      2.918      3.766
REMARK  2 active torsions:
REMARK  status: ('A' for Active; 'I' for Inactive)
REMARK    1  A    between atoms: C3_3  and  O1_8 
REMARK    2  A    between atoms: C6_6  and  N1_7 
ROOT
HETATM    1  C1  UNL     1      11.969  11.969  -6.434  1.00  0.00     0.026 A 
HETATM    2  C2  UNL     1      12.982  12.661  -5.766  1.00  0.00     0.038 A 
HETATM    3  C3  UNL     1      12.976  12.720  -4.379  1.00  0.00     0.065 A 
HETATM    4  C4  UNL     1      11.979  12.083  -3.648  1.00  0.00     0.038 A 
HETATM    5  C5  UNL     1      10.967  11.394  -4.324  1.00  0.00     0.026 A 
HETATM    6  C6  UNL     1      10.924  11.373  -5.721  1.00  0.00     0.005 A 
ENDROOT
BRANCH   6   7
HETATM    7  N1  UNL     1       9.978  10.583  -6.385  1.00  0.00    -0.303 NA
HETATM    8  H5  UNL     1       9.595   9.837  -5.812  1.00  0.00     0.124 HD
HETATM    9  H6  UNL     1      10.284  10.253  -7.294  1.00  0.00     0.124 HD
ENDBRANCH   6   7
BRANCH   3  10
HETATM   10  O1  UNL     1      13.983  13.401  -3.765  1.00  0.00    -0.361 OA
HETATM   11  H7  UNL     1      14.087  13.055  -2.864  1.00  0.00     0.217 HD
ENDBRANCH   3  10
TORSDOF 2
ENDMDL
MODEL 15
REMARK VINA RESULT:      -3.0      1.983      2.146
REMARK  2 active torsions:
REMARK  status: ('A' for Active; 'I' for Inactive)
REMARK    1  A    between atoms: C3_3  and  O1_8 
REMARK    2  A    between atoms: C6_6  and  N1_7 
ROOT
HETATM    1  C1  UNL     1       8.916  11.268  -3.817  1.00  0.00     0.026 A 
HETATM    2  C2  UNL     1       8.570  12.280  -4.715  1.00  0.00     0.038 A 
HETATM    3  C3  UNL     1       9.524  12.778  -5.591  1.00  0.00     0.065 A 
HETATM    4  C4  UNL     1      10.817  12.267  -5.595  1.00  0.00     0.038 A 
HETATM    5  C5  UNL     1      11.157  11.255  -4.692  1.00  0.00     0.026 A 
HETATM    6  C6  UNL     1      10.226  10.782  -3.762  1.00  0.00     0.005 A 
ENDROOT
BRANCH   6   7
HETATM    7  N1  UNL     1      10.539   9.689  -2.945  1.00  0.00    -0.303 NA
HETATM    8  H5  UNL     1      10.524   9.904  -1.953  1.00  0.00     0.124 HD
HETATM    9  H6  UNL     1      11.383   9.198  -3.221  1.00  0.00     0.124 HD
ENDBRANCH   6   7
BRANCH   3  10
HETATM   10  O1  UNL     1       9.147  13.763  -6.454  1.00  0.00    -0.361 OA
HETATM   11  H7  UNL     1       8.440  14.283  -6.039  1.00  0.00     0.217 HD
ENDBRANCH   3  10
TORSDOF 2
ENDMDL
MODEL 16
REMARK VINA RESULT:      -2.4      3.436      3.890
REMARK  2 active torsions:
REMARK  status: ('A' for Active; 'I' for Inactive)
REMARK    1  A    between atoms: C3_3  and  O1_8 
REMARK    2  A    between atoms: C6_6  and  N1_7 
ROOT
HETATM    1  C1  UNL     1      13.302  12.351  -3.254  1.00  0.00     0.026 A 
HETATM    2  C2  UNL     1      12.459  12.525  -2.154  1.00  0.00     0.038 A 
HETATM    3  C3  UNL     1      11.152  12.949  -2.349  1.00  0.00     0.065 A 
HETATM    4  C4  UNL     1      10.669  13.188  -3.631  1.00  0.00     0.038 A 
HETATM    5  C5  UNL     1      11.519  13.013  -4.727  1.00  0.00     0.026 A 
HETATM    6  C6  UNL     1      12.856  12.643  -4.547  1.00  0.00     0.005 A 
ENDROOT
BRANCH   6   7
HETATM    7  N1  UNL     1      13.663  12.355  -5.653  1.00  0.00    -0.303 NA
HETATM    8  H5  UNL     1      13.631  11.382  -5.939  1.00  0.00     0.124 HD
HETATM    9  H6  UNL     1      14.612  12.703  -5.570  1.00  0.00     0.124 HD
ENDBRANCH   6   7
BRANCH   3  10
HETATM   10  O1  UNL     1      10.361  13.104  -1.251  1.00  0.00    -0.361 OA
HETATM   11  H7  UNL     1       9.523  12.639  -1.404  1.00  0.00     0.217 HD
ENDBRANCH   3  10
TORSDOF 2
ENDMDL
MODEL 17
REMARK VINA RESULT:      -0.3     12.437     13.303
REMARK  2 active torsions:
REMARK  status: ('A' for Active; 'I' for Inactive)
REMARK    1  A    between atoms: C3_3  and  O1_8 
REMARK    2  A    between atoms: C6_6  and  N1_7 
ROOT
HETATM    1  C1  UNL     1      -1.017   3.638  -2.926  1.00  0.00     0.026 A 
HETATM    2  C2  UNL     1      -0.559   2.919  -1.819  1.00  0.00     0.038 A 
HETATM    3  C3  UNL     1       0.791   2.933  -1.500  1.00  0.00     0.065 A 
HETATM    4  C4  UNL     1       1.691   3.670  -2.263  1.00  0.00     0.038 A 
HETATM    5  C5  UNL     1       1.226   4.386  -3.370  1.00  0.00     0.026 A 
HETATM    6  C6  UNL     1      -0.122   4.337  -3.741  1.00  0.00     0.005 A 
ENDROOT
BRANCH   6   7
HETATM    7  N1  UNL     1      -0.597   5.149  -4.777  1.00  0.00    -0.303 NA
HETATM    8  H5  UNL     1      -0.298   6.117  -4.706  1.00  0.00     0.124 HD
HETATM    9  H6  UNL     1      -1.595   5.064  -4.940  1.00  0.00     0.124 HD
ENDBRANCH   6   7
BRANCH   3  10
HETATM   10  O1  UNL     1       1.197   2.222  -0.411  1.00  0.00    -0.361 OA
HETATM   11  H7  UNL     1       0.431   2.073   0.165  1.00  0.00     0.217 HD
ENDBRANCH   3  10
TORSDOF 2
ENDMDL
MODEL 18
REMARK VINA RESULT:      -0.0     12.046     12.837
REMARK  2 active torsions:
REMARK  status: ('A' for Active; 'I' for Inactive)
REMARK    1  A    between atoms: C3_3  and  O1_8 
REMARK    2  A    between atoms: C6_6  and  N1_7 
ROOT
HETATM    1  C1  UNL     1      -0.296   3.026  -1.853  1.00  0.00     0.026 A 
HETATM    2  C2  UNL     1      -0.995   3.665  -2.880  1.00  0.00     0.038 A 
HETATM    3  C3  UNL     1      -0.300   4.393  -3.834  1.00  0.00     0.065 A 
HETATM    4  C4  UNL     1       1.087   4.480  -3.787  1.00  0.00     0.038 A 
HETATM    5  C5  UNL     1       1.779   3.839  -2.755  1.00  0.00     0.026 A 
HETATM    6  C6  UNL     1       1.093   3.149  -1.751  1.00  0.00     0.005 A 
ENDROOT
BRANCH   6   7
HETATM    7  N1  UNL     1       1.798   2.413  -0.793  1.00  0.00    -0.303 NA
HETATM    8  H5  UNL     1       1.655   1.410  -0.862  1.00  0.00     0.124 HD
HETATM    9  H6  UNL     1       1.683   2.756   0.155  1.00  0.00     0.124 HD
ENDBRANCH   6   7
BRANCH   3  10
HETATM   10  O1  UNL     1      -1.017   5.000  -4.822  1.00  0.00    -0.361 OA
HETATM   11  H7  UNL     1      -0.817   4.561  -5.664  1.00  0.00     0.217 HD
ENDBRANCH   3  10
TORSDOF 2
ENDMDL
