MODEL 1
REMARK VINA RESULT:      -4.3      0.000      0.000
REMARK  2 active torsions:
REMARK  status: ('A' for Active; 'I' for Inactive)
REMARK    1  A    between atoms: C3_3  and  O1_8 
REMARK    2  A    between atoms: C6_6  and  N1_7 
ROOT
HETATM    1  C1  UNL     1       6.408   8.679  -4.031  1.00  0.00     0.026 A 
HETATM    2  C2  UNL     1       5.865   8.103  -2.880  1.00  0.00     0.038 A 
HETATM    3  C3  UNL     1       6.440   6.958  -2.347  1.00  0.00     0.065 A 
HETATM    4  C4  UNL     1       7.562   6.388  -2.939  1.00  0.00     0.038 A 
HETATM    5  C5  UNL     1       8.099   6.969  -4.091  1.00  0.00     0.026 A 
HETATM    6  C6  UNL     1       7.499   8.089  -4.676  1.00  0.00     0.005 A 
ENDROOT
BRANCH   6   7
HETATM    7  N1  UNL     1       8.111   8.732  -5.758  1.00  0.00    -0.303 NA
HETATM    8  H5  UNL     1       8.863   8.196  -6.180  1.00  0.00     0.124 HD
HETATM    9  H6  UNL     1       8.382   9.691  -5.565  1.00  0.00     0.124 HD
ENDBRANCH   6   7
BRANCH   3  10
HETATM   10  O1  UNL     1       5.883   6.427  -1.222  1.00  0.00    -0.361 OA
HETATM   11  H7  UNL     1       6.354   5.609  -1.000  1.00  0.00     0.217 HD
ENDBRANCH   3  10
TORSDOF 2
ENDMDL
MODEL 2
REMARK VINA RESULT:      -4.3      2.779      3.262
REMARK  2 active torsions:
REMARK  status: ('A' for Active; 'I' for Inactive)
REMARK    1  A    between atoms: C3_3  and  O1_8 
REMARK    2  A    between atoms: C6_6  and  N1_7 
ROOT
HETATM    1  C1  UNL     1       5.802   8.083  -2.769  1.00  0.00     0.026 A 
HETATM    2  C2  UNL     1       6.240   8.729  -3.927  1.00  0.00     0.038 A 
HETATM    3  C3  UNL     1       7.311   8.211  -4.641  1.00  0.00     0.065 A 
HETATM    4  C4  UNL     1       7.943   7.045  -4.222  1.00  0.00     0.038 A 
HETATM    5  C5  UNL     1       7.500   6.405  -3.061  1.00  0.00     0.026 A 
HETATM    6  C6  UNL     1       6.460   6.943  -2.297  1.00  0.00     0.005 A 
ENDROOT
BRANCH   6   7
HETATM    7  N1  UNL     1       5.946   6.234  -1.205  1.00  0.00    -0.303 NA
HETATM    8  H5  UNL     1       5.306   6.774  -0.632  1.00  0.00     0.124 HD
HETATM    9  H6  UNL     1       6.654   5.761  -0.653  1.00  0.00     0.124 HD
ENDBRANCH   6   7
BRANCH   3  10
HETATM   10  O1  UNL     1       7.707   8.869  -5.767  1.00  0.00    -0.361 OA
HETATM   11  H7  UNL     1       7.857   8.217  -6.470  1.00  0.00     0.217 HD
ENDBRANCH   3  10
TORSDOF 2
ENDMDL
MODEL 3
REMARK VINA RESULT:      -4.2      2.817      3.155
REMARK  2 active torsions:
REMARK  status: ('A' for Active; 'I' for Inactive)
REMARK    1  A    between atoms: C3_3  and  O1_8 
REMARK    2  A    between atoms: C6_6  and  N1_7 
ROOT
HETATM    1  C1  UNL     1       5.927   7.753  -4.600  1.00  0.00     0.026 A 
HETATM    2  C2  UNL     1       6.341   9.084  -4.688  1.00  0.00     0.038 A 
HETATM    3  C3  UNL     1       7.694   9.388  -4.639  1.00  0.00     0.065 A 
HETATM    4  C4  UNL     1       8.643   8.378  -4.518  1.00  0.00     0.038 A 
HETATM    5  C5  UNL     1       8.220   7.048  -4.429  1.00  0.00     0.026 A 
HETATM    6  C6  UNL     1       6.859   6.727  -4.418  1.00  0.00     0.005 A 
ENDROOT
BRANCH   6   7
HETATM    7  N1  UNL     1       6.451   5.389  -4.449  1.00  0.00    -0.303 NA
HETATM    8  H5  UNL     1       5.987   5.085  -3.599  1.00  0.00     0.124 HD
HETATM    9  H6  UNL     1       7.177   4.745  -4.745  1.00  0.00     0.124 HD
ENDBRANCH   6   7
BRANCH   3  10
HETATM   10  O1  UNL     1       8.058  10.698  -4.731  1.00  0.00    -0.361 OA
HETATM   11  H7  UNL     1       7.705  11.060  -5.559  1.00  0.00     0.217 HD
ENDBRANCH   3  10
TORSDOF 2
ENDMDL
MODEL 4
REMARK VINA RESULT:      -4.2      1.955      2.582
REMARK  2 active torsions:
REMARK  status: ('A' for Active; 'I' for Inactive)
REMARK    1  A    between atoms: C3_3  and  O1_8 
REMARK    2  A    between atoms: C6_6  and  N1_7 
ROOT
HETATM    1  C1  UNL     1       8.650   8.280  -4.505  1.00  0.00     0.026 A 
HETATM    2  C2  UNL     1       8.215   6.954  -4.463  1.00  0.00     0.038 A 
HETATM    3  C3  UNL     1       6.859   6.672  -4.540  1.00  0.00     0.065 A 
HETATM    4  C4  UNL     1       5.929   7.697  -4.675  1.00  0.00     0.038 A 
HETATM    5  C5  UNL     1       6.372   9.023  -4.715  1.00  0.00     0.026 A 
HETATM    6  C6  UNL     1       7.730   9.330  -4.580  1.00  0.00     0.005 A 
ENDROOT
BRANCH   6   7
HETATM    7  N1  UNL     1       8.173  10.648  -4.741  1.00  0.00    -0.303 NA
HETATM    8  H5  UNL     1       7.433  11.339  -4.670  1.00  0.00     0.124 HD
HETATM    9  H6  UNL     1       8.755  10.788  -5.560  1.00  0.00     0.124 HD
ENDBRANCH   6   7
BRANCH   3  10
HETATM   10  O1  UNL     1       6.475   5.365  -4.498  1.00  0.00    -0.361 OA
HETATM   11  H7  UNL     1       5.586   5.291  -4.881  1.00  0.00     0.217 HD
ENDBRANCH   3  10
TORSDOF 2
ENDMDL
MODEL 5
REMARK VINA RESULT:      -4.2      1.942      2.011
REMARK  2 active torsions:
REMARK  status: ('A' for Active; 'I' for Inactive)
REMARK    1  A    between atoms: C3_3  and  O1_8 
REMARK    2  A    between atoms: C6_6  and  N1_7 
ROOT
HETATM    1  C1  UNL     1       6.351   8.966  -4.752  1.00  0.00     0.026 A 
HETATM    2  C2  UNL     1       5.944   7.632  -4.672  1.00  0.00     0.038 A 
HETATM    3  C3  UNL     1       6.893   6.632  -4.513  1.00  0.00     0.065 A 
HETATM    4  C4  UNL     1       8.243   6.947  -4.415  1.00  0.00     0.038 A 
HETATM    5  C5  UNL     1       8.643   8.284  -4.497  1.00  0.00     0.026 A 
HETATM    6  C6  UNL     1       7.708   9.300  -4.716  1.00  0.00     0.005 A 
ENDROOT
BRANCH   6   7
HETATM    7  N1  UNL     1       8.103  10.642  -4.677  1.00  0.00    -0.303 NA
HETATM    8  H5  UNL     1       8.652  10.929  -5.481  1.00  0.00     0.124 HD
HETATM    9  H6  UNL     1       8.529  10.919  -3.799  1.00  0.00     0.124 HD
ENDBRANCH   6   7
BRANCH   3  10
HETATM   10  O1  UNL     1       6.456   5.343  -4.437  1.00  0.00    -0.361 OA
HETATM   11  H7  UNL     1       6.967   4.883  -3.752  1.00  0.00     0.217 HD
ENDBRANCH   3  10
TORSDOF 2
ENDMDL
MODEL 6
REMARK VINA RESULT:      -4.1      1.804      2.313
REMARK  2 active torsions:
REMARK  status: ('A' for Active; 'I' for Inactive)
REMARK    1  A    between atoms: C3_3  and  O1_8 
REMARK    2  A    between atoms: C6_6  and  N1_7 
ROOT
HETATM    1  C1  UNL     1       5.620   8.399  -2.831  1.00  0.00     0.026 A 
HETATM    2  C2  UNL     1       6.456   7.326  -2.515  1.00  0.00     0.038 A 
HETATM    3  C3  UNL     1       7.401   6.896  -3.436  1.00  0.00     0.065 A 
HETATM    4  C4  UNL     1       7.534   7.535  -4.664  1.00  0.00     0.038 A 
HETATM    5  C5  UNL     1       6.693   8.607  -4.974  1.00  0.00     0.026 A 
HETATM    6  C6  UNL     1       5.695   9.017  -4.083  1.00  0.00     0.005 A 
ENDROOT
BRANCH   6   7
HETATM    7  N1  UNL     1       4.939  10.164  -4.350  1.00  0.00    -0.303 NA
HETATM    8  H5  UNL     1       3.941  10.033  -4.222  1.00  0.00     0.124 HD
HETATM    9  H6  UNL     1       5.160  10.603  -5.238  1.00  0.00     0.124 HD
ENDBRANCH   6   7
BRANCH   3  10
HETATM   10  O1  UNL     1       8.200   5.848  -3.089  1.00  0.00    -0.361 OA
HETATM   11  H7  UNL     1       8.202   5.206  -3.817  1.00  0.00     0.217 HD
ENDBRANCH   3  10
TORSDOF 2
ENDMDL
MODEL 7
REMARK VINA RESULT:      -4.1      1.822      2.493
REMARK  2 active torsions:
REMARK  status: ('A' for Active; 'I' for Inactive)
REMARK    1  A    between atoms: C3_3  and  O1_8 
REMARK    2  A    between atoms: C6_6  and  N1_7 
ROOT
HETATM    1  C1  UNL     1       6.677   8.588  -4.978  1.00  0.00     0.026 A 
HETATM    2  C2  UNL     1       7.523   7.528  -4.646  1.00  0.00     0.038 A 
HETATM    3  C3  UNL     1       7.406   6.917  -3.405  1.00  0.00     0.065 A 
HETATM    4  C4  UNL     1       6.443   7.340  -2.496  1.00  0.00     0.038 A 
HETATM    5  C5  UNL     1       5.601   8.404  -2.834  1.00  0.00     0.026 A 
HETATM    6  C6  UNL     1       5.742   9.070  -4.056  1.00  0.00     0.005 A 
ENDROOT
BRANCH   6   7
HETATM    7  N1  UNL     1       4.820  10.052  -4.434  1.00  0.00    -0.303 NA
HETATM    8  H5  UNL     1       4.008  10.104  -3.827  1.00  0.00     0.124 HD
HETATM    9  H6  UNL     1       4.567  10.021  -5.416  1.00  0.00     0.124 HD
ENDBRANCH   6   7
BRANCH   3  10
HETATM   10  O1  UNL     1       8.247   5.884  -3.120  1.00  0.00    -0.361 OA
HETATM   11  H7  UNL     1       8.571   5.508  -3.955  1.00  0.00     0.217 HD
ENDBRANCH   3  10
TORSDOF 2
ENDMDL
MODEL 8
REMARK VINA RESULT:      -4.1      1.742      2.244
REMARK  2 active torsions:
REMARK  status: ('A' for Active; 'I' for Inactive)
REMARK    1  A    between atoms: C3_3  and  O1_8 
REMARK    2  A    between atoms: C6_6  and  N1_7 
ROOT
HETATM    1  C1  UNL     1       7.809   8.372  -4.994  1.00  0.00     0.026 A 
HETATM    2  C2  UNL     1       6.664   9.092  -4.644  1.00  0.00     0.038 A 
HETATM    3  C3  UNL     1       5.948   8.735  -3.510  1.00  0.00     0.065 A 
HETATM    4  C4  UNL     1       6.368   7.677  -2.711  1.00  0.00     0.038 A 
HETATM    5  C5  UNL     1       7.513   6.960  -3.069  1.00  0.00     0.026 A 
HETATM    6  C6  UNL     1       8.215   7.268  -4.239  1.00  0.00     0.005 A 
ENDROOT
BRANCH   6   7
HETATM    7  N1  UNL     1       9.425   6.624  -4.525  1.00  0.00    -0.303 NA
HETATM    8  H5  UNL     1       9.315   5.772  -5.067  1.00  0.00     0.124 HD
HETATM    9  H6  UNL     1      10.021   6.493  -3.715  1.00  0.00     0.124 HD
ENDBRANCH   6   7
BRANCH   3  10
HETATM   10  O1  UNL     1       4.839   9.463  -3.201  1.00  0.00    -0.361 OA
HETATM   11  H7  UNL     1       4.358   9.009  -2.490  1.00  0.00     0.217 HD
ENDBRANCH   3  10
TORSDOF 2
ENDMDL
MODEL 9
REMARK VINA RESULT:      -4.1      1.740      2.439
REMARK  2 active torsions:
REMARK  status: ('A' for Active; 'I' for Inactive)
REMARK    1  A    between atoms: C3_3  and  O1_8 
REMARK    2  A    between atoms: C6_6  and  N1_7 
ROOT
HETATM    1  C1  UNL     1       7.521   7.012  -3.044  1.00  0.00     0.026 A 
HETATM    2  C2  UNL     1       6.358   7.716  -2.723  1.00  0.00     0.038 A 
HETATM    3  C3  UNL     1       5.946   8.768  -3.529  1.00  0.00     0.065 A 
HETATM    4  C4  UNL     1       6.672   9.117  -4.663  1.00  0.00     0.038 A 
HETATM    5  C5  UNL     1       7.835   8.408  -4.978  1.00  0.00     0.026 A 
HETATM    6  C6  UNL     1       8.298   7.384  -4.145  1.00  0.00     0.005 A 
ENDROOT
BRANCH   6   7
HETATM    7  N1  UNL     1       9.394   6.604  -4.531  1.00  0.00    -0.303 NA
HETATM    8  H5  UNL     1      10.180   6.659  -3.890  1.00  0.00     0.124 HD
HETATM    9  H6  UNL     1       9.674   6.738  -5.497  1.00  0.00     0.124 HD
ENDBRANCH   6   7
BRANCH   3  10
HETATM   10  O1  UNL     1       4.806   9.428  -3.184  1.00  0.00    -0.361 OA
HETATM   11  H7  UNL     1       4.991   9.983  -2.410  1.00  0.00     0.217 HD
ENDBRANCH   3  10
TORSDOF 2
ENDMDL
MODEL 10
REMARK VINA RESULT:      -4.1      2.533      3.036
REMARK  2 active torsions:
REMARK  status: ('A' for Active; 'I' for Inactive)
REMARK    1  A    between atoms: C3_3  and  O1_8 
REMARK    2  A    between atoms: C6_6  and  N1_7 
ROOT
HETATM    1  C1  UNL     1       6.118   7.559  -4.591  1.00  0.00     0.026 A 
HETATM    2  C2  UNL     1       7.264   6.760  -4.587  1.00  0.00     0.038 A 
HETATM    3  C3  UNL     1       8.517   7.355  -4.590  1.00  0.00     0.065 A 
HETATM    4  C4  UNL     1       8.643   8.740  -4.581  1.00  0.00     0.038 A 
HETATM    5  C5  UNL     1       7.492   9.533  -4.586  1.00  0.00     0.026 A 
HETATM    6  C6  UNL     1       6.221   8.952  -4.642  1.00  0.00     0.005 A 
ENDROOT
BRANCH   6   7
HETATM    7  N1  UNL     1       5.076   9.749  -4.526  1.00  0.00    -0.303 NA
HETATM    8  H5  UNL     1       4.626   9.686  -3.618  1.00  0.00     0.124 HD
HETATM    9  H6  UNL     1       4.420   9.638  -5.292  1.00  0.00     0.124 HD
ENDBRANCH   6   7
BRANCH   3  10
HETATM   10  O1  UNL     1       9.610   6.541  -4.584  1.00  0.00    -0.361 OA
HETATM   11  H7  UNL     1      10.234   6.865  -3.914  1.00  0.00     0.217 HD
ENDBRANCH   3  10
TORSDOF 2
ENDMDL
MODEL 11
REMARK VINA RESULT:      -4.0      7.137      7.796
REMARK  2 active torsions:
REMARK  status: ('A' for Active; 'I' for Inactive)
REMARK    1  A    between atoms: C3_3  and  O1_8 
REMARK    2  A    between atoms: C6_6  and  N1_7 
ROOT
HETATM    1  C1  UNL     1      -0.268   8.668  -7.534  1.00  0.00     0.026 A 
HETATM    2  C2  UNL     1       0.614   9.552  -8.160  1.00  0.00     0.038 A 
HETATM    3  C3  UNL     1       1.982   9.398  -7.985  1.00  0.00     0.065 A 
HETATM    4  C4  UNL     1       2.483   8.361  -7.205  1.00  0.00     0.038 A 
HETATM    5  C5  UNL     1       1.594   7.481  -6.581  1.00  0.00     0.026 A 
HETATM    6  C6  UNL     1       0.212   7.655  -6.698  1.00  0.00     0.005 A 
ENDROOT
BRANCH   6   7
HETATM    7  N1  UNL     1      -0.666   6.702  -6.169  1.00  0.00    -0.303 NA
HETATM    8  H5  UNL     1      -1.562   7.086  -5.883  1.00  0.00     0.124 HD
HETATM    9  H6  UNL     1      -0.252   6.115  -5.453  1.00  0.00     0.124 HD
ENDBRANCH   6   7
BRANCH   3  10
HETATM   10  O1  UNL     1       2.810  10.278  -8.614  1.00  0.00    -0.361 OA
HETATM   11  H7  UNL     1       3.221   9.831  -9.370  1.00  0.00     0.217 HD
ENDBRANCH   3  10
TORSDOF 2
ENDMDL
MODEL 12
REMARK VINA RESULT:      -3.9      6.669      7.184
REMARK  2 active torsions:
REMARK  status: ('A' for Active; 'I' for Inactive)
REMARK    1  A    between atoms: C3_3  and  O1_8 
REMARK    2  A    between atoms: C6_6  and  N1_7 
ROOT
HETATM    1  C1  UNL     1       0.501   9.478  -8.069  1.00  0.00     0.026 A 
HETATM    2  C2  UNL     1      -0.344   8.572  -7.425  1.00  0.00     0.038 A 
HETATM    3  C3  UNL     1       0.199   7.530  -6.686  1.00  0.00     0.065 A 
HETATM    4  C4  UNL     1       1.578   7.390  -6.568  1.00  0.00     0.038 A 
HETATM    5  C5  UNL     1       2.417   8.300  -7.218  1.00  0.00     0.026 A 
HETATM    6  C6  UNL     1       1.889   9.320  -8.014  1.00  0.00     0.005 A 
ENDROOT
BRANCH   6   7
HETATM    7  N1  UNL     1       2.732  10.295  -8.561  1.00  0.00    -0.303 NA
HETATM    8  H5  UNL     1       2.263  10.926  -9.204  1.00  0.00     0.124 HD
HETATM    9  H6  UNL     1       3.594   9.923  -8.946  1.00  0.00     0.124 HD
ENDBRANCH   6   7
BRANCH   3  10
HETATM   10  O1  UNL     1      -0.658   6.669  -6.070  1.00  0.00    -0.361 OA
HETATM   11  H7  UNL     1      -0.339   6.507  -5.168  1.00  0.00     0.217 HD
ENDBRANCH   3  10
TORSDOF 2
ENDMDL
MODEL 13
REMARK VINA RESULT:      -3.8      2.917      3.661
REMARK  2 active torsions:
REMARK  status: ('A' for Active; 'I' for Inactive)
REMARK    1  A    between atoms: C3_3  and  O1_8 
REMARK    2  A    between atoms: C6_6  and  N1_7 
ROOT
HETATM    1  C1  UNL     1       8.723   7.168  -4.516  1.00  0.00     0.026 A 
HETATM    2  C2  UNL     1       9.411   8.363  -4.298  1.00  0.00     0.038 A 
HETATM    3  C3  UNL     1       8.730   9.570  -4.359  1.00  0.00     0.065 A 
HETATM    4  C4  UNL     1       7.364   9.600  -4.619  1.00  0.00     0.038 A 
HETATM    5  C5  UNL     1       6.682   8.399  -4.837  1.00  0.00     0.026 A 
HETATM    6  C6  UNL     1       7.363   7.177  -4.838  1.00  0.00     0.005 A 
ENDROOT
BRANCH   6   7
HETATM    7  N1  UNL     1       6.653   5.975  -4.938  1.00  0.00    -0.303 NA
HETATM    8  H5  UNL     1       5.704   6.031  -4.583  1.00  0.00     0.124 HD
HETATM    9  H6  UNL     1       7.154   5.171  -4.576  1.00  0.00     0.124 HD
ENDBRANCH   6   7
BRANCH   3  10
HETATM   10  O1  UNL     1       9.436  10.715  -4.138  1.00  0.00    -0.361 OA
HETATM   11  H7  UNL     1       9.563  10.820  -3.181  1.00  0.00     0.217 HD
ENDBRANCH   3  10
TORSDOF 2
ENDMDL
MODEL 14
REMARK VINA RESULT:      -3.8      5.247      5.947
REMARK  2 active torsions:
REMARK  status: ('A' for Active; 'I' for Inactive)
REMARK    1  A    between atoms: C3_3  and  O1_8 
REMARK    2  A    between atoms: C6_6  and  N1_7 
ROOT
HETATM    1  C1  UNL     1      10.363   9.644  -3.130  1.00  0.00     0.026 A 
HETATM    2  C2  UNL     1      10.030   9.654  -4.486  1.00  0.00     0.038 A 
HETATM    3  C3  UNL     1      10.429  10.716  -5.285  1.00  0.00     0.065 A 
HETATM    4  C4  UNL     1      11.173  11.763  -4.750  1.00  0.00     0.038 A 
HETATM    5  C5  UNL     1      11.502  11.747  -3.392  1.00  0.00     0.026 A 
HETATM    6  C6  UNL     1      11.058  10.715  -2.559  1.00  0.00     0.005 A 
ENDROOT
BRANCH   6   7
HETATM    7  N1  UNL     1      11.492  10.646  -1.230  1.00  0.00    -0.303 NA
HETATM    8  H5  UNL     1      11.119   9.851  -0.720  1.00  0.00     0.124 HD
HETATM    9  H6  UNL     1      11.388  11.516  -0.719  1.00  0.00     0.124 HD
ENDBRANCH   6   7
BRANCH   3  10
HETATM   10  O1  UNL     1      10.087  10.688  -6.603  1.00  0.00    -0.361 OA
HETATM   11  H7  UNL     1       9.124  10.788  -6.675  1.00  0.00     0.217 HD
ENDBRANCH   3  10
TORSDOF 2
ENDMDL
MODEL 15
REMARK VINA RESULT:      -3.8      7.057      7.777
REMARK  2 active torsions:
REMARK  status: ('A' for Active; 'I' for Inactive)
REMARK    1  A    between atoms: C3_3  and  O1_8 
REMARK    2  A    between atoms: C6_6  and  N1_7 
ROOT
HETATM    1  C1  UNL     1       1.561   9.624  -9.169  1.00  0.00     0.026 A 
HETATM    2  C2  UNL     1       2.597   9.148  -8.363  1.00  0.00     0.038 A 
HETATM    3  C3  UNL     1       2.300   8.415  -7.223  1.00  0.00     0.065 A 
HETATM    4  C4  UNL     1       0.981   8.135  -6.884  1.00  0.00     0.038 A 
HETATM    5  C5  UNL     1      -0.051   8.617  -7.695  1.00  0.00     0.026 A 
HETATM    6  C6  UNL     1       0.226   9.407  -8.815  1.00  0.00     0.005 A 
ENDROOT
BRANCH   6   7
HETATM    7  N1  UNL     1      -0.805   9.782  -9.685  1.00  0.00    -0.303 NA
HETATM    8  H5  UNL     1      -0.493   9.954 -10.636  1.00  0.00     0.124 HD
HETATM    9  H6  UNL     1      -1.390  10.531  -9.329  1.00  0.00     0.124 HD
ENDBRANCH   6   7
BRANCH   3  10
HETATM   10  O1  UNL     1       3.339   7.965  -6.464  1.00  0.00    -0.361 OA
HETATM   11  H7  UNL     1       2.988   7.636  -5.621  1.00  0.00     0.217 HD
ENDBRANCH   3  10
TORSDOF 2
ENDMDL
MODEL 16
REMARK VINA RESULT:      -3.8      7.254      7.996
REMARK  2 active torsions:
REMARK  status: ('A' for Active; 'I' for Inactive)
REMARK    1  A    between atoms: C3_3  and  O1_8 
REMARK    2  A    between atoms: C6_6  and  N1_7 
ROOT
HETATM    1  C1  UNL     1       0.981   8.229  -6.901  1.00  0.00     0.026 A 
HETATM    2  C2  UNL     1      -0.080   8.629  -7.717  1.00  0.00     0.038 A 
HETATM    3  C3  UNL     1       0.175   9.367  -8.864  1.00  0.00     0.065 A 
HETATM    4  C4  UNL     1       1.478   9.698  -9.218  1.00  0.00     0.038 A 
HETATM    5  C5  UNL     1       2.535   9.295  -8.396  1.00  0.00     0.026 A 
HETATM    6  C6  UNL     1       2.293   8.601  -7.206  1.00  0.00     0.005 A 
ENDROOT
BRANCH   6   7
HETATM    7  N1  UNL     1       3.362   8.100  -6.453  1.00  0.00    -0.303 NA
HETATM    8  H5  UNL     1       3.080   7.691  -5.568  1.00  0.00     0.124 HD
HETATM    9  H6  UNL     1       4.133   8.751  -6.350  1.00  0.00     0.124 HD
ENDBRANCH   6   7
BRANCH   3  10
HETATM   10  O1  UNL     1      -0.886   9.737  -9.635  1.00  0.00    -0.361 OA
HETATM   11  H7  UNL     1      -1.565  10.126  -9.061  1.00  0.00     0.217 HD
ENDBRANCH   3  10
TORSDOF 2
ENDMDL
MODEL 17
REMARK VINA RESULT:      -3.7      2.484      3.229
REMARK  2 active torsions:
REMARK  status: ('A' for Active; 'I' for Inactive)
REMARK    1  A    between atoms: C3_3  and  O1_8 
REMARK    2  A    between atoms: C6_6  and  N1_7 
ROOT
HETATM    1  C1  UNL     1       9.698   8.252  -4.248  1.00  0.00     0.026 A 
HETATM    2  C2  UNL     1       8.834   7.214  -4.605  1.00  0.00     0.038 A 
HETATM    3  C3  UNL     1       7.511   7.495  -4.911  1.00  0.00     0.065 A 
HETATM    4  C4  UNL     1       7.040   8.803  -4.882  1.00  0.00     0.038 A 
HETATM    5  C5  UNL     1       7.910   9.837  -4.523  1.00  0.00     0.026 A 
HETATM    6  C6  UNL     1       9.231   9.566  -4.154  1.00  0.00     0.005 A 
ENDROOT
BRANCH   6   7
HETATM    7  N1  UNL     1      10.125  10.616  -3.912  1.00  0.00    -0.303 NA
HETATM    8  H5  UNL     1      10.613  10.540  -3.025  1.00  0.00     0.124 HD
HETATM    9  H6  UNL     1       9.724  11.537  -4.054  1.00  0.00     0.124 HD
ENDBRANCH   6   7
BRANCH   3  10
HETATM   10  O1  UNL     1       6.700   6.456  -5.258  1.00  0.00    -0.361 OA
HETATM   11  H7  UNL     1       6.949   6.151  -6.145  1.00  0.00     0.217 HD
ENDBRANCH   3  10
TORSDOF 2
ENDMDL
MODEL 18
REMARK VINA RESULT:      -3.6      1.795      2.169
REMARK  2 active torsions:
REMARK  status: ('A' for Active; 'I' for Inactive)
REMARK    1  A    between atoms: C3_3  and  O1_8 
REMARK    2  A    between atoms: C6_6  and  N1_7 
ROOT
HETATM    1  C1  UNL     1       7.891   7.312  -4.634  1.00  0.00     0.026 A 
HETATM    2  C2  UNL     1       6.768   6.488  -4.734  1.00  0.00     0.038 A 
HETATM    3  C3  UNL     1       6.031   6.188  -3.597  1.00  0.00     0.065 A 
HETATM    4  C4  UNL     1       6.391   6.714  -2.361  1.00  0.00     0.038 A 
HETATM    5  C5  UNL     1       7.517   7.537  -2.268  1.00  0.00     0.026 A 
HETATM    6  C6  UNL     1       8.306   7.803  -3.392  1.00  0.00     0.005 A 
ENDROOT
BRANCH   6   7
HETATM    7  N1  UNL     1       9.359   8.722  -3.313  1.00  0.00    -0.303 NA
HETATM    8  H5  UNL     1      10.160   8.380  -2.791  1.00  0.00     0.124 HD
HETATM    9  H6  UNL     1       9.073   9.649  -3.018  1.00  0.00     0.124 HD
ENDBRANCH   6   7
BRANCH   3  10
HETATM   10  O1  UNL     1       4.941   5.383  -3.736  1.00  0.00    -0.361 OA
HETATM   11  H7  UNL     1       5.187   4.481  -3.476  1.00  0.00     0.217 HD
ENDBRANCH   3  10
TORSDOF 2
ENDMDL
MODEL 19
REMARK VINA RESULT:      -3.5      6.291      6.972
REMARK  2 active torsions:
REMARK  status: ('A' for Active; 'I' for Inactive)
REMARK    1  A    between atoms: C3_3  and  O1_8 
REMARK    2  A    between atoms: C6_6  and  N1_7 
ROOT
HETATM    1  C1  UNL     1       1.811  11.047  -8.419  1.00  0.00     0.026 A 
HETATM    2  C2  UNL     1       1.781  11.407  -7.070  1.00  0.00     0.038 A 
HETATM    3  C3  UNL     1       1.989  10.442  -6.095  1.00  0.00     0.065 A 
HETATM    4  C4  UNL     1       2.243   9.121  -6.450  1.00  0.00     0.038 A 
HETATM    5  C5  UNL     1       2.270   8.768  -7.803  1.00  0.00     0.026 A 
HETATM    6  C6  UNL     1       2.005   9.715  -8.797  1.00  0.00     0.005 A 
ENDROOT
BRANCH   6   7
HETATM    7  N1  UNL     1       2.151   9.379 -10.147  1.00  0.00    -0.303 NA
HETATM    8  H5  UNL     1       3.119   9.304 -10.446  1.00  0.00     0.124 HD
HETATM    9  H6  UNL     1       1.597   9.951 -10.775  1.00  0.00     0.124 HD
ENDBRANCH   6   7
BRANCH   3  10
HETATM   10  O1  UNL     1       1.955  10.833  -4.791  1.00  0.00    -0.361 OA
HETATM   11  H7  UNL     1       2.430  10.176  -4.257  1.00  0.00     0.217 HD
ENDBRANCH   3  10
TORSDOF 2
ENDMDL
MODEL 20
REMARK VINA RESULT:      -3.5      5.002      5.515
REMARK  2 active torsions:
REMARK  status: ('A' for Active; 'I' for Inactive)
REMARK    1  A    between atoms: C3_3  and  O1_8 
REMARK    2  A    between atoms: C6_6  and  N1_7 
ROOT
HETATM    1  C1  UNL     1      11.812  11.763  -4.551  1.00  0.00     0.026 A 
HETATM    2  C2  UNL     1      11.994  11.677  -3.169  1.00  0.00     0.038 A 
HETATM    3  C3  UNL     1      11.177  10.844  -2.418  1.00  0.00     0.065 A 
HETATM    4  C4  UNL     1      10.189  10.081  -3.031  1.00  0.00     0.038 A 
HETATM    5  C5  UNL     1      10.012  10.173  -4.415  1.00  0.00     0.026 A 
HETATM    6  C6  UNL     1      10.786  11.051  -5.180  1.00  0.00     0.005 A 
ENDROOT
BRANCH   6   7
HETATM    7  N1  UNL     1      10.683  11.048  -6.576  1.00  0.00    -0.303 NA
HETATM    8  H5  UNL     1       9.769  10.766  -6.916  1.00  0.00     0.124 HD
HETATM    9  H6  UNL     1      11.438  10.556  -7.042  1.00  0.00     0.124 HD
ENDBRANCH   6   7
BRANCH   3  10
HETATM   10  O1  UNL     1      11.388  10.786  -1.073  1.00  0.00    -0.361 OA
HETATM   11  H7  UNL     1      10.820  10.092  -0.700  1.00  0.00     0.217 HD
ENDBRANCH   3  10
TORSDOF 2
ENDMDL
