MODEL 1
REMARK VINA RESULT:      -7.1      0.000      0.000
REMARK  27 active torsions:
REMARK  status: ('A' for Active; 'I' for Inactive)
REMARK    1  A    between atoms: C2_2  and  S1_4 
REMARK    2  A    between atoms: S1_4  and  C3_5 
REMARK    3  A    between atoms: C3_5  and  C4_6 
REMARK    4  A    between atoms: C4_6  and  N1_7 
REMARK       I    between atoms: N1_7  and  C5_8 
REMARK    5  A    between atoms: C5_8  and  C6_10 
REMARK    6  A    between atoms: C6_10  and  C7_11 
REMARK    7  A    between atoms: C7_11  and  N2_12 
REMARK       I    between atoms: N2_12  and  C8_13 
REMARK    8  A    between atoms: C8_13  and  C9_15 
REMARK    9  A    between atoms: C9_15  and  C10_16 
REMARK   10  A    between atoms: C9_15  and  O17_54 
REMARK   11  A    between atoms: C10_16  and  C13_19 
REMARK   12  A    between atoms: C13_19  and  O4_20 
REMARK   13  A    between atoms: O4_20  and  P1_21 
REMARK   14  A    between atoms: P1_21  and  O6_23 
REMARK   15  A    between atoms: P1_21  and  O7_24 
REMARK   16  A    between atoms: O7_24  and  P2_25 
REMARK   17  A    between atoms: P2_25  and  O9_27 
REMARK   18  A    between atoms: P2_25  and  O10_28 
REMARK   19  A    between atoms: O10_28  and  C14_29 
REMARK   20  A    between atoms: C14_29  and  C15_30 
REMARK   21  A    between atoms: C16_31  and  O13_49 
REMARK   22  A    between atoms: C17_32  and  O12_48 
REMARK   23  A    between atoms: C18_33  and  N3_35 
REMARK   24  A    between atoms: C21_40  and  N7_47 
REMARK   25  A    between atoms: O13_49  and  P3_50 
REMARK   26  A    between atoms: P3_50  and  O15_52 
REMARK   27  A    between atoms: P3_50  and  O16_53 
ROOT
HETATM    1  C1  UNL     1      12.711  15.748   0.319  1.00  0.00     0.104 C 
HETATM    2  C2  UNL     1      13.184  14.395  -0.116  1.00  0.00     0.182 C 
HETATM    3  O1  UNL     1      14.342  14.008   0.024  1.00  0.00    -0.286 OA
ENDROOT
BRANCH   2   4
HETATM    4  S1  UNL     1      11.949  13.408  -0.886  1.00  0.00    -0.091 SA
BRANCH   4   5
HETATM    5  C3  UNL     1      11.084  14.678  -1.865  1.00  0.00     0.102 C 
BRANCH   5   6
HETATM    6  C4  UNL     1       9.589  14.724  -1.544  1.00  0.00     0.133 C 
BRANCH   6   7
HETATM    7  N1  UNL     1       9.304  14.420  -0.157  1.00  0.00    -0.360 N 
HETATM    8  C5  UNL     1       8.964  15.402   0.744  1.00  0.00     0.219 C 
HETATM    9  O2  UNL     1       8.959  16.593   0.452  1.00  0.00    -0.274 OA
HETATM   10  H8  UNL     1       9.352  13.458   0.150  1.00  0.00     0.162 HD
BRANCH   8  11
HETATM   11  C6  UNL     1       8.653  14.867   2.125  1.00  0.00     0.122 C 
BRANCH  11  12
HETATM   12  C7  UNL     1       7.832  15.858   2.950  1.00  0.00     0.132 C 
BRANCH  12  13
HETATM   13  N2  UNL     1       6.509  16.089   2.407  1.00  0.00    -0.358 N 
HETATM   14  C8  UNL     1       5.387  15.720   3.126  1.00  0.00     0.247 C 
HETATM   15  O3  UNL     1       5.462  15.089   4.173  1.00  0.00    -0.271 OA
HETATM   16  H13 UNL     1       6.424  16.894   1.791  1.00  0.00     0.162 HD
BRANCH  14  17
HETATM   17  C9  UNL     1       4.053  16.181   2.520  1.00  0.00     0.219 C 
BRANCH  17  18
HETATM   18  C10 UNL     1       3.493  15.248   1.414  1.00  0.00     0.009 C 
HETATM   19  C11 UNL     1       4.054  13.822   1.522  1.00  0.00     0.020 C 
HETATM   20  C12 UNL     1       1.955  15.160   1.475  1.00  0.00     0.020 C 
BRANCH  18  21
HETATM   21  C13 UNL     1       3.929  15.880   0.061  1.00  0.00     0.192 C 
BRANCH  21  22
HETATM   22  O4  UNL     1       5.141  15.335  -0.421  1.00  0.00    -0.296 OA
BRANCH  22  23
HETATM   23  P1  UNL     1       5.653  15.549  -1.926  1.00  0.00     0.401 P 
HETATM   24  O5  UNL     1       6.772  16.534  -2.057  1.00  0.00    -0.631 OA
BRANCH  23  25
HETATM   25  O6  UNL     1       4.359  15.914  -2.811  1.00  0.00    -0.307 OA
HETATM   26  H23 UNL     1       4.423  15.561  -3.707  1.00  0.00     0.222 HD
ENDBRANCH  23  25
BRANCH  23  27
HETATM   27  O7  UNL     1       5.989  14.087  -2.457  1.00  0.00    -0.195 OA
BRANCH  27  28
HETATM   28  P2  UNL     1       5.877  13.791  -4.018  1.00  0.00     0.401 P 
HETATM   29  O8  UNL     1       4.562  13.289  -4.519  1.00  0.00    -0.631 OA
BRANCH  28  30
HETATM   30  O9  UNL     1       6.347  15.163  -4.686  1.00  0.00    -0.307 OA
HETATM   31  H24 UNL     1       7.280  15.154  -5.012  1.00  0.00     0.222 HD
ENDBRANCH  28  30
BRANCH  28  32
HETATM   32  O10 UNL     1       7.141  12.866  -4.328  1.00  0.00    -0.294 OA
BRANCH  32  33
HETATM   33  C14 UNL     1       8.264  13.404  -4.974  1.00  0.00     0.215 C 
BRANCH  33  34
HETATM   34  C15 UNL     1       9.462  12.577  -4.509  1.00  0.00     0.180 C 
HETATM   35  C16 UNL     1      10.446  12.404  -5.659  1.00  0.00     0.197 C 
HETATM   36  C17 UNL     1      10.492  10.907  -5.903  1.00  0.00     0.199 C 
HETATM   37  C18 UNL     1      10.089  10.345  -4.538  1.00  0.00     0.262 C 
HETATM   38  O11 UNL     1       9.094  11.271  -4.050  1.00  0.00    -0.353 OA
BRANCH  35  39
HETATM   39  O13 UNL     1      11.706  12.919  -5.242  1.00  0.00    -0.286 OA
BRANCH  39  40
HETATM   40  P3  UNL     1      12.321  14.067  -6.169  1.00  0.00     0.391 P 
HETATM   41  O14 UNL     1      12.910  15.208  -5.404  1.00  0.00    -0.632 OA
BRANCH  40  42
HETATM   42  O15 UNL     1      11.077  14.380  -7.124  1.00  0.00    -0.307 OA
HETATM   43  H36 UNL     1      11.336  15.008  -7.840  1.00  0.00     0.222 HD
ENDBRANCH  40  42
BRANCH  40  44
HETATM   44  O16 UNL     1      13.295  13.228  -7.105  1.00  0.00    -0.307 OA
HETATM   45  H37 UNL     1      14.118  12.971  -6.659  1.00  0.00     0.222 HD
ENDBRANCH  40  44
ENDBRANCH  39  40
ENDBRANCH  35  39
BRANCH  36  46
HETATM   46  O12 UNL     1      11.771  10.528  -6.418  1.00  0.00    -0.388 OA
HETATM   47  H35 UNL     1      12.423  10.703  -5.698  1.00  0.00     0.210 HD
ENDBRANCH  36  46
BRANCH  37  48
HETATM   48  N3  UNL     1       9.494   9.027  -4.633  1.00  0.00    -0.297 N 
HETATM   49  C19 UNL     1      10.145   7.816  -4.606  1.00  0.00     0.188 A 
HETATM   50  N4  UNL     1       9.310   6.801  -4.585  1.00  0.00    -0.346 N 
HETATM   51  C20 UNL     1       8.054   7.382  -4.594  1.00  0.00     0.116 A 
HETATM   52  H4  UNL     1       9.537   5.806  -4.567  1.00  0.00     0.167 HD
HETATM   53  C21 UNL     1       6.756   6.846  -4.539  1.00  0.00     0.109 A 
HETATM   54  C23 UNL     1       8.153   8.759  -4.663  1.00  0.00     0.142 A 
HETATM   55  N5  UNL     1       5.701   7.696  -4.576  1.00  0.00    -0.341 N 
HETATM   56  C22 UNL     1       5.949   9.017  -4.668  1.00  0.00     0.183 A 
HETATM   57  H5  UNL     1       4.744   7.344  -4.535  1.00  0.00     0.167 HD
HETATM   58  N6  UNL     1       7.142   9.644  -4.718  1.00  0.00    -0.336 N 
HETATM   59  H6  UNL     1       7.262  10.655  -4.788  1.00  0.00     0.168 HD
BRANCH  53  60
HETATM   60  N7  UNL     1       6.495   5.487  -4.459  1.00  0.00    -0.287 NA
HETATM   61  H33 UNL     1       7.055   4.993  -3.769  1.00  0.00     0.125 HD
HETATM   62  H34 UNL     1       6.399   5.050  -5.366  1.00  0.00     0.125 HD
ENDBRANCH  53  60
ENDBRANCH  37  48
ENDBRANCH  33  34
ENDBRANCH  32  33
ENDBRANCH  28  32
ENDBRANCH  27  28
ENDBRANCH  23  27
ENDBRANCH  22  23
ENDBRANCH  21  22
ENDBRANCH  18  21
ENDBRANCH  17  18
BRANCH  17  63
HETATM   63  O17 UNL     1       3.065  16.314   3.547  1.00  0.00    -0.385 OA
HETATM   64  H38 UNL     1       2.257  16.675   3.143  1.00  0.00     0.210 HD
ENDBRANCH  17  63
ENDBRANCH  14  17
ENDBRANCH  12  13
ENDBRANCH  11  12
ENDBRANCH   8  11
ENDBRANCH   6   7
ENDBRANCH   5   6
ENDBRANCH   4   5
ENDBRANCH   2   4
TORSDOF 27
ENDMDL
MODEL 2
REMARK VINA RESULT:      -6.5      2.367      7.188
REMARK  27 active torsions:
REMARK  status: ('A' for Active; 'I' for Inactive)
REMARK    1  A    between atoms: C2_2  and  S1_4 
REMARK    2  A    between atoms: S1_4  and  C3_5 
REMARK    3  A    between atoms: C3_5  and  C4_6 
REMARK    4  A    between atoms: C4_6  and  N1_7 
REMARK       I    between atoms: N1_7  and  C5_8 
REMARK    5  A    between atoms: C5_8  and  C6_10 
REMARK    6  A    between atoms: C6_10  and  C7_11 
REMARK    7  A    between atoms: C7_11  and  N2_12 
REMARK       I    between atoms: N2_12  and  C8_13 
REMARK    8  A    between atoms: C8_13  and  C9_15 
REMARK    9  A    between atoms: C9_15  and  C10_16 
REMARK   10  A    between atoms: C9_15  and  O17_54 
REMARK   11  A    between atoms: C10_16  and  C13_19 
REMARK   12  A    between atoms: C13_19  and  O4_20 
REMARK   13  A    between atoms: O4_20  and  P1_21 
REMARK   14  A    between atoms: P1_21  and  O6_23 
REMARK   15  A    between atoms: P1_21  and  O7_24 
REMARK   16  A    between atoms: O7_24  and  P2_25 
REMARK   17  A    between atoms: P2_25  and  O9_27 
REMARK   18  A    between atoms: P2_25  and  O10_28 
REMARK   19  A    between atoms: O10_28  and  C14_29 
REMARK   20  A    between atoms: C14_29  and  C15_30 
REMARK   21  A    between atoms: C16_31  and  O13_49 
REMARK   22  A    between atoms: C17_32  and  O12_48 
REMARK   23  A    between atoms: C18_33  and  N3_35 
REMARK   24  A    between atoms: C21_40  and  N7_47 
REMARK   25  A    between atoms: O13_49  and  P3_50 
REMARK   26  A    between atoms: P3_50  and  O15_52 
REMARK   27  A    between atoms: P3_50  and  O16_53 
ROOT
HETATM    1  C1  UNL     1       2.651  15.887   2.552  1.00  0.00     0.104 C 
HETATM    2  C2  UNL     1       4.127  15.645   2.644  1.00  0.00     0.182 C 
HETATM    3  O1  UNL     1       4.848  16.187   3.478  1.00  0.00    -0.286 OA
ENDROOT
BRANCH   2   4
HETATM    4  S1  UNL     1       4.759  14.544   1.428  1.00  0.00    -0.091 SA
BRANCH   4   5
HETATM    5  C3  UNL     1       6.548  14.785   1.671  1.00  0.00     0.102 C 
BRANCH   5   6
HETATM    6  C4  UNL     1       7.224  15.338   0.414  1.00  0.00     0.133 C 
BRANCH   6   7
HETATM    7  N1  UNL     1       8.352  14.535  -0.013  1.00  0.00    -0.360 N 
HETATM    8  C5  UNL     1       8.971  14.743  -1.224  1.00  0.00     0.219 C 
HETATM    9  O2  UNL     1       8.561  15.556  -2.043  1.00  0.00    -0.274 OA
HETATM   10  H8  UNL     1       8.693  13.809   0.603  1.00  0.00     0.162 HD
BRANCH   8  11
HETATM   11  C6  UNL     1      10.160  13.835  -1.452  1.00  0.00     0.122 C 
BRANCH  11  12
HETATM   12  C7  UNL     1      11.484  14.592  -1.348  1.00  0.00     0.132 C 
BRANCH  12  13
HETATM   13  N2  UNL     1      12.501  14.083  -2.244  1.00  0.00    -0.358 N 
HETATM   14  C8  UNL     1      13.595  13.403  -1.741  1.00  0.00     0.247 C 
HETATM   15  O3  UNL     1      13.808  13.309  -0.539  1.00  0.00    -0.271 OA
HETATM   16  H13 UNL     1      12.175  13.820  -3.172  1.00  0.00     0.162 HD
BRANCH  14  17
HETATM   17  C9  UNL     1      14.501  12.765  -2.805  1.00  0.00     0.219 C 
BRANCH  17  18
HETATM   18  C10 UNL     1      15.892  13.438  -2.952  1.00  0.00     0.009 C 
HETATM   19  C11 UNL     1      16.764  13.240  -1.703  1.00  0.00     0.020 C 
HETATM   20  C12 UNL     1      16.664  12.879  -4.164  1.00  0.00     0.020 C 
BRANCH  18  21
HETATM   21  C13 UNL     1      15.613  14.954  -3.160  1.00  0.00     0.192 C 
BRANCH  21  22
HETATM   22  O4  UNL     1      15.431  15.285  -4.522  1.00  0.00    -0.296 OA
BRANCH  22  23
HETATM   23  P1  UNL     1      14.065  15.901  -5.093  1.00  0.00     0.401 P 
HETATM   24  O5  UNL     1      14.242  16.772  -6.297  1.00  0.00    -0.631 OA
BRANCH  23  25
HETATM   25  O6  UNL     1      13.335  16.637  -3.861  1.00  0.00    -0.307 OA
HETATM   26  H23 UNL     1      13.678  16.339  -3.008  1.00  0.00     0.222 HD
ENDBRANCH  23  25
BRANCH  23  27
HETATM   27  O7  UNL     1      13.110  14.648  -5.314  1.00  0.00    -0.195 OA
BRANCH  27  28
HETATM   28  P2  UNL     1      13.263  13.789  -6.647  1.00  0.00     0.401 P 
HETATM   29  O8  UNL     1      12.365  14.143  -7.787  1.00  0.00    -0.631 OA
BRANCH  28  30
HETATM   30  O9  UNL     1      14.820  13.908  -6.983  1.00  0.00    -0.307 OA
HETATM   31  H24 UNL     1      15.337  14.429  -6.321  1.00  0.00     0.222 HD
ENDBRANCH  28  30
BRANCH  28  32
HETATM   32  O10 UNL     1      13.187  12.276  -6.143  1.00  0.00    -0.294 OA
BRANCH  32  33
HETATM   33  C14 UNL     1      12.271  11.915  -5.142  1.00  0.00     0.215 C 
BRANCH  33  34
HETATM   34  C15 UNL     1      10.949  11.635  -5.854  1.00  0.00     0.180 C 
HETATM   35  C16 UNL     1       9.815  12.359  -5.139  1.00  0.00     0.197 C 
HETATM   36  C17 UNL     1       8.897  11.252  -4.657  1.00  0.00     0.199 C 
HETATM   37  C18 UNL     1       9.201  10.125  -5.647  1.00  0.00     0.262 C 
HETATM   38  O11 UNL     1      10.620  10.242  -5.895  1.00  0.00    -0.353 OA
BRANCH  35  39
HETATM   39  O13 UNL     1       9.176  13.215  -6.079  1.00  0.00    -0.286 OA
BRANCH  39  40
HETATM   40  P3  UNL     1       9.106  14.759  -5.669  1.00  0.00     0.391 P 
HETATM   41  O14 UNL     1       9.160  15.695  -6.833  1.00  0.00    -0.632 OA
BRANCH  40  42
HETATM   42  O15 UNL     1      10.293  14.838  -4.599  1.00  0.00    -0.307 OA
HETATM   43  H36 UNL     1      10.126  15.558  -3.946  1.00  0.00     0.222 HD
ENDBRANCH  40  42
BRANCH  40  44
HETATM   44  O16 UNL     1       7.800  14.785  -4.763  1.00  0.00    -0.307 OA
HETATM   45  H37 UNL     1       7.977  15.083  -3.856  1.00  0.00     0.222 HD
ENDBRANCH  40  44
ENDBRANCH  39  40
ENDBRANCH  35  39
BRANCH  36  46
HETATM   46  O12 UNL     1       7.548  11.721  -4.590  1.00  0.00    -0.388 OA
HETATM   47  H35 UNL     1       7.085  11.146  -3.935  1.00  0.00     0.210 HD
ENDBRANCH  36  46
BRANCH  37  48
HETATM   48  N3  UNL     1       8.930   8.812  -5.097  1.00  0.00    -0.297 N 
HETATM   49  C19 UNL     1       9.841   7.932  -4.559  1.00  0.00     0.188 A 
HETATM   50  N4  UNL     1       9.262   6.877  -4.030  1.00  0.00    -0.346 N 
HETATM   51  C20 UNL     1       7.908   7.085  -4.229  1.00  0.00     0.116 A 
HETATM   52  H4  UNL     1       9.710   6.083  -3.573  1.00  0.00     0.167 HD
HETATM   53  C21 UNL     1       6.767   6.351  -3.862  1.00  0.00     0.109 A 
HETATM   54  C23 UNL     1       7.692   8.261  -4.924  1.00  0.00     0.142 A 
HETATM   55  N5  UNL     1       5.548   6.823  -4.221  1.00  0.00    -0.341 N 
HETATM   56  C22 UNL     1       5.491   7.975  -4.919  1.00  0.00     0.183 A 
HETATM   57  H5  UNL     1       4.697   6.320  -3.969  1.00  0.00     0.167 HD
HETATM   58  N6  UNL     1       6.508   8.765  -5.318  1.00  0.00    -0.336 N 
HETATM   59  H6  UNL     1       6.396   9.629  -5.848  1.00  0.00     0.168 HD
BRANCH  53  60
HETATM   60  N7  UNL     1       6.822   5.159  -3.157  1.00  0.00    -0.287 NA
HETATM   61  H33 UNL     1       7.722   4.971  -2.722  1.00  0.00     0.125 HD
HETATM   62  H34 UNL     1       6.382   4.391  -3.646  1.00  0.00     0.125 HD
ENDBRANCH  53  60
ENDBRANCH  37  48
ENDBRANCH  33  34
ENDBRANCH  32  33
ENDBRANCH  28  32
ENDBRANCH  27  28
ENDBRANCH  23  27
ENDBRANCH  22  23
ENDBRANCH  21  22
ENDBRANCH  18  21
ENDBRANCH  17  18
BRANCH  17  63
HETATM   63  O17 UNL     1      14.696  11.376  -2.518  1.00  0.00    -0.385 OA
HETATM   64  H38 UNL     1      15.437  11.057  -3.060  1.00  0.00     0.210 HD
ENDBRANCH  17  63
ENDBRANCH  14  17
ENDBRANCH  12  13
ENDBRANCH  11  12
ENDBRANCH   8  11
ENDBRANCH   6   7
ENDBRANCH   5   6
ENDBRANCH   4   5
ENDBRANCH   2   4
TORSDOF 27
ENDMDL
MODEL 3
REMARK VINA RESULT:      -6.2      9.233     12.919
REMARK  27 active torsions:
REMARK  status: ('A' for Active; 'I' for Inactive)
REMARK    1  A    between atoms: C2_2  and  S1_4 
REMARK    2  A    between atoms: S1_4  and  C3_5 
REMARK    3  A    between atoms: C3_5  and  C4_6 
REMARK    4  A    between atoms: C4_6  and  N1_7 
REMARK       I    between atoms: N1_7  and  C5_8 
REMARK    5  A    between atoms: C5_8  and  C6_10 
REMARK    6  A    between atoms: C6_10  and  C7_11 
REMARK    7  A    between atoms: C7_11  and  N2_12 
REMARK       I    between atoms: N2_12  and  C8_13 
REMARK    8  A    between atoms: C8_13  and  C9_15 
REMARK    9  A    between atoms: C9_15  and  C10_16 
REMARK   10  A    between atoms: C9_15  and  O17_54 
REMARK   11  A    between atoms: C10_16  and  C13_19 
REMARK   12  A    between atoms: C13_19  and  O4_20 
REMARK   13  A    between atoms: O4_20  and  P1_21 
REMARK   14  A    between atoms: P1_21  and  O6_23 
REMARK   15  A    between atoms: P1_21  and  O7_24 
REMARK   16  A    between atoms: O7_24  and  P2_25 
REMARK   17  A    between atoms: P2_25  and  O9_27 
REMARK   18  A    between atoms: P2_25  and  O10_28 
REMARK   19  A    between atoms: O10_28  and  C14_29 
REMARK   20  A    between atoms: C14_29  and  C15_30 
REMARK   21  A    between atoms: C16_31  and  O13_49 
REMARK   22  A    between atoms: C17_32  and  O12_48 
REMARK   23  A    between atoms: C18_33  and  N3_35 
REMARK   24  A    between atoms: C21_40  and  N7_47 
REMARK   25  A    between atoms: O13_49  and  P3_50 
REMARK   26  A    between atoms: P3_50  and  O15_52 
REMARK   27  A    between atoms: P3_50  and  O16_53 
ROOT
HETATM    1  C1  UNL     1       5.948   6.155  -1.940  1.00  0.00     0.104 C 
HETATM    2  C2  UNL     1       6.483   6.263  -3.335  1.00  0.00     0.182 C 
HETATM    3  O1  UNL     1       6.248   5.436  -4.213  1.00  0.00    -0.286 OA
ENDROOT
BRANCH   2   4
HETATM    4  S1  UNL     1       7.518   7.658  -3.610  1.00  0.00    -0.091 SA
BRANCH   4   5
HETATM    5  C3  UNL     1       6.683   8.401  -5.049  1.00  0.00     0.102 C 
BRANCH   5   6
HETATM    6  C4  UNL     1       5.233   8.776  -4.735  1.00  0.00     0.133 C 
BRANCH   6   7
HETATM    7  N1  UNL     1       4.297   8.251  -5.708  1.00  0.00    -0.360 N 
HETATM    8  C5  UNL     1       3.221   8.986  -6.148  1.00  0.00     0.219 C 
HETATM    9  O2  UNL     1       2.944  10.089  -5.690  1.00  0.00    -0.274 OA
HETATM   10  H8  UNL     1       4.448   7.321  -6.075  1.00  0.00     0.162 HD
BRANCH   8  11
HETATM   11  C6  UNL     1       2.401   8.276  -7.203  1.00  0.00     0.122 C 
BRANCH  11  12
HETATM   12  C7  UNL     1       2.191   9.144  -8.443  1.00  0.00     0.132 C 
BRANCH  12  13
HETATM   13  N2  UNL     1       1.453  10.359  -8.167  1.00  0.00    -0.358 N 
HETATM   14  C8  UNL     1       1.526  11.431  -9.038  1.00  0.00     0.247 C 
HETATM   15  O3  UNL     1       2.291  11.444  -9.993  1.00  0.00    -0.271 OA
HETATM   16  H13 UNL     1       0.585  10.236  -7.651  1.00  0.00     0.162 HD
BRANCH  14  17
HETATM   17  C9  UNL     1       0.561  12.584  -8.722  1.00  0.00     0.219 C 
BRANCH  17  18
HETATM   18  C10 UNL     1       1.254  13.897  -8.272  1.00  0.00     0.009 C 
HETATM   19  C11 UNL     1       0.239  14.979  -7.876  1.00  0.00     0.020 C 
HETATM   20  C12 UNL     1       2.188  13.659  -7.069  1.00  0.00     0.020 C 
BRANCH  18  21
HETATM   21  C13 UNL     1       2.085  14.381  -9.494  1.00  0.00     0.192 C 
BRANCH  21  22
HETATM   22  O4  UNL     1       1.284  15.010 -10.475  1.00  0.00    -0.296 OA
BRANCH  22  23
HETATM   23  P1  UNL     1       1.875  15.560 -11.860  1.00  0.00     0.401 P 
HETATM   24  O5  UNL     1       3.172  14.932 -12.264  1.00  0.00    -0.631 OA
BRANCH  23  25
HETATM   25  O6  UNL     1       1.942  17.164 -11.733  1.00  0.00    -0.307 OA
HETATM   26  H23 UNL     1       1.206  17.516 -11.216  1.00  0.00     0.222 HD
ENDBRANCH  23  25
BRANCH  23  27
HETATM   27  O7  UNL     1       0.694  15.382 -12.910  1.00  0.00    -0.195 OA
BRANCH  27  28
HETATM   28  P2  UNL     1       0.257  13.910 -13.335  1.00  0.00     0.401 P 
HETATM   29  O8  UNL     1       0.333  13.575 -14.789  1.00  0.00    -0.631 OA
BRANCH  28  30
HETATM   30  O9  UNL     1       1.159  12.977 -12.405  1.00  0.00    -0.307 OA
HETATM   31  H24 UNL     1       1.838  13.466 -11.879  1.00  0.00     0.222 HD
ENDBRANCH  28  30
BRANCH  28  32
HETATM   32  O10 UNL     1      -1.171  13.718 -12.649  1.00  0.00    -0.294 OA
BRANCH  32  33
HETATM   33  C14 UNL     1      -1.949  14.839 -12.320  1.00  0.00     0.215 C 
BRANCH  33  34
HETATM   34  C15 UNL     1      -3.354  14.313 -12.028  1.00  0.00     0.180 C 
HETATM   35  C16 UNL     1      -3.599  14.307 -10.525  1.00  0.00     0.197 C 
HETATM   36  C17 UNL     1      -3.822  12.847 -10.178  1.00  0.00     0.199 C 
HETATM   37  C18 UNL     1      -4.322  12.272 -11.505  1.00  0.00     0.262 C 
HETATM   38  O11 UNL     1      -3.563  12.981 -12.510  1.00  0.00    -0.353 OA
BRANCH  35  39
HETATM   39  O13 UNL     1      -4.751  15.102 -10.263  1.00  0.00    -0.286 OA
BRANCH  39  40
HETATM   40  P3  UNL     1      -4.572  16.223  -9.137  1.00  0.00     0.391 P 
HETATM   41  O14 UNL     1      -5.294  17.497  -9.436  1.00  0.00    -0.632 OA
BRANCH  40  42
HETATM   42  O15 UNL     1      -2.978  16.284  -9.025  1.00  0.00    -0.307 OA
HETATM   43  H36 UNL     1      -2.639  15.546  -8.464  1.00  0.00     0.222 HD
ENDBRANCH  40  42
BRANCH  40  44
HETATM   44  O16 UNL     1      -4.997  15.425  -7.828  1.00  0.00    -0.307 OA
HETATM   45  H37 UNL     1      -5.694  15.873  -7.324  1.00  0.00     0.222 HD
ENDBRANCH  40  44
ENDBRANCH  39  40
ENDBRANCH  35  39
BRANCH  36  46
HETATM   46  O12 UNL     1      -4.686  12.733  -9.045  1.00  0.00    -0.388 OA
HETATM   47  H35 UNL     1      -5.314  13.493  -9.097  1.00  0.00     0.210 HD
ENDBRANCH  36  46
BRANCH  37  48
HETATM   48  N3  UNL     1      -4.055  10.854 -11.633  1.00  0.00    -0.297 N 
HETATM   49  C19 UNL     1      -4.979   9.839 -11.725  1.00  0.00     0.188 A 
HETATM   50  N4  UNL     1      -4.417   8.673 -11.960  1.00  0.00    -0.346 N 
HETATM   51  C20 UNL     1      -3.062   8.946 -12.029  1.00  0.00     0.116 A 
HETATM   52  H4  UNL     1      -4.877   7.769 -12.068  1.00  0.00     0.167 HD
HETATM   53  C21 UNL     1      -1.940   8.142 -12.294  1.00  0.00     0.109 A 
HETATM   54  C23 UNL     1      -2.821  10.287 -11.789  1.00  0.00     0.142 A 
HETATM   55  N5  UNL     1      -0.713   8.716 -12.280  1.00  0.00    -0.341 N 
HETATM   56  C22 UNL     1      -0.627  10.033 -12.007  1.00  0.00     0.183 A 
HETATM   57  H5  UNL     1       0.124   8.165 -12.471  1.00  0.00     0.167 HD
HETATM   58  N6  UNL     1      -1.626  10.901 -11.748  1.00  0.00    -0.336 N 
HETATM   59  H6  UNL     1      -1.492  11.893 -11.547  1.00  0.00     0.168 HD
BRANCH  53  60
HETATM   60  N7  UNL     1      -2.022   6.784 -12.561  1.00  0.00    -0.287 NA
HETATM   61  H33 UNL     1      -1.137   6.355 -12.822  1.00  0.00     0.125 HD
HETATM   62  H34 UNL     1      -2.829   6.539 -13.118  1.00  0.00     0.125 HD
ENDBRANCH  53  60
ENDBRANCH  37  48
ENDBRANCH  33  34
ENDBRANCH  32  33
ENDBRANCH  28  32
ENDBRANCH  27  28
ENDBRANCH  23  27
ENDBRANCH  22  23
ENDBRANCH  21  22
ENDBRANCH  18  21
ENDBRANCH  17  18
BRANCH  17  63
HETATM   63  O17 UNL     1      -0.257  12.869  -9.863  1.00  0.00    -0.385 OA
HETATM   64  H38 UNL     1       0.326  13.148 -10.589  1.00  0.00     0.210 HD
ENDBRANCH  17  63
ENDBRANCH  14  17
ENDBRANCH  12  13
ENDBRANCH  11  12
ENDBRANCH   8  11
ENDBRANCH   6   7
ENDBRANCH   5   6
ENDBRANCH   4   5
ENDBRANCH   2   4
TORSDOF 27
ENDMDL
MODEL 4
REMARK VINA RESULT:      -6.0      5.458      9.588
REMARK  27 active torsions:
REMARK  status: ('A' for Active; 'I' for Inactive)
REMARK    1  A    between atoms: C2_2  and  S1_4 
REMARK    2  A    between atoms: S1_4  and  C3_5 
REMARK    3  A    between atoms: C3_5  and  C4_6 
REMARK    4  A    between atoms: C4_6  and  N1_7 
REMARK       I    between atoms: N1_7  and  C5_8 
REMARK    5  A    between atoms: C5_8  and  C6_10 
REMARK    6  A    between atoms: C6_10  and  C7_11 
REMARK    7  A    between atoms: C7_11  and  N2_12 
REMARK       I    between atoms: N2_12  and  C8_13 
REMARK    8  A    between atoms: C8_13  and  C9_15 
REMARK    9  A    between atoms: C9_15  and  C10_16 
REMARK   10  A    between atoms: C9_15  and  O17_54 
REMARK   11  A    between atoms: C10_16  and  C13_19 
REMARK   12  A    between atoms: C13_19  and  O4_20 
REMARK   13  A    between atoms: O4_20  and  P1_21 
REMARK   14  A    between atoms: P1_21  and  O6_23 
REMARK   15  A    between atoms: P1_21  and  O7_24 
REMARK   16  A    between atoms: O7_24  and  P2_25 
REMARK   17  A    between atoms: P2_25  and  O9_27 
REMARK   18  A    between atoms: P2_25  and  O10_28 
REMARK   19  A    between atoms: O10_28  and  C14_29 
REMARK   20  A    between atoms: C14_29  and  C15_30 
REMARK   21  A    between atoms: C16_31  and  O13_49 
REMARK   22  A    between atoms: C17_32  and  O12_48 
REMARK   23  A    between atoms: C18_33  and  N3_35 
REMARK   24  A    between atoms: C21_40  and  N7_47 
REMARK   25  A    between atoms: O13_49  and  P3_50 
REMARK   26  A    between atoms: P3_50  and  O15_52 
REMARK   27  A    between atoms: P3_50  and  O16_53 
ROOT
HETATM    1  C1  UNL     1       3.641  13.743   2.333  1.00  0.00     0.104 C 
HETATM    2  C2  UNL     1       3.449  14.955   1.473  1.00  0.00     0.182 C 
HETATM    3  O1  UNL     1       2.355  15.481   1.284  1.00  0.00    -0.286 OA
ENDROOT
BRANCH   2   4
HETATM    4  S1  UNL     1       4.922  15.547   0.716  1.00  0.00    -0.091 SA
BRANCH   4   5
HETATM    5  C3  UNL     1       4.232  16.281  -0.803  1.00  0.00     0.102 C 
BRANCH   5   6
HETATM    6  C4  UNL     1       4.854  15.675  -2.062  1.00  0.00     0.133 C 
BRANCH   6   7
HETATM    7  N1  UNL     1       6.204  15.197  -1.845  1.00  0.00    -0.360 N 
HETATM    8  C5  UNL     1       7.090  15.034  -2.884  1.00  0.00     0.219 C 
HETATM    9  O2  UNL     1       6.772  15.202  -4.055  1.00  0.00    -0.274 OA
HETATM   10  H8  UNL     1       6.500  14.987  -0.901  1.00  0.00     0.162 HD
BRANCH   8  11
HETATM   11  C6  UNL     1       8.462  14.579  -2.436  1.00  0.00     0.122 C 
BRANCH  11  12
HETATM   12  C7  UNL     1       9.448  14.503  -3.601  1.00  0.00     0.132 C 
BRANCH  12  13
HETATM   13  N2  UNL     1       9.958  13.168  -3.827  1.00  0.00    -0.358 N 
HETATM   14  C8  UNL     1       9.535  12.436  -4.922  1.00  0.00     0.247 C 
HETATM   15  O3  UNL     1       8.642  12.829  -5.663  1.00  0.00    -0.271 OA
HETATM   16  H13 UNL     1      10.903  12.997  -3.491  1.00  0.00     0.162 HD
BRANCH  14  17
HETATM   17  C9  UNL     1      10.283  11.113  -5.141  1.00  0.00     0.219 C 
BRANCH  17  18
HETATM   18  C10 UNL     1       9.929   9.998  -4.121  1.00  0.00     0.009 C 
HETATM   19  C11 UNL     1      10.507   8.635  -4.531  1.00  0.00     0.020 C 
HETATM   20  C12 UNL     1      10.457  10.333  -2.712  1.00  0.00     0.020 C 
BRANCH  18  21
HETATM   21  C13 UNL     1       8.376   9.921  -4.095  1.00  0.00     0.192 C 
BRANCH  21  22
HETATM   22  O4  UNL     1       7.907   8.688  -3.587  1.00  0.00    -0.296 OA
BRANCH  22  23
HETATM   23  P1  UNL     1       6.797   7.804  -4.335  1.00  0.00     0.401 P 
HETATM   24  O5  UNL     1       6.116   6.804  -3.454  1.00  0.00    -0.631 OA
BRANCH  23  25
HETATM   25  O6  UNL     1       7.510   7.155  -5.624  1.00  0.00    -0.307 OA
HETATM   26  H23 UNL     1       8.253   7.689  -5.933  1.00  0.00     0.222 HD
ENDBRANCH  23  25
BRANCH  23  27
HETATM   27  O7  UNL     1       5.823   8.860  -5.019  1.00  0.00    -0.195 OA
BRANCH  27  28
HETATM   28  P2  UNL     1       4.695   9.553  -4.133  1.00  0.00     0.401 P 
HETATM   29  O8  UNL     1       4.715   9.267  -2.667  1.00  0.00    -0.631 OA
BRANCH  28  30
HETATM   30  O9  UNL     1       4.843  11.101  -4.497  1.00  0.00    -0.307 OA
HETATM   31  H24 UNL     1       5.753  11.364  -4.777  1.00  0.00     0.222 HD
ENDBRANCH  28  30
BRANCH  28  32
HETATM   32  O10 UNL     1       3.336   9.201  -4.894  1.00  0.00    -0.294 OA
BRANCH  32  33
HETATM   33  C14 UNL     1       3.270   9.294  -6.293  1.00  0.00     0.215 C 
BRANCH  33  34
HETATM   34  C15 UNL     1       1.948   9.990  -6.613  1.00  0.00     0.180 C 
HETATM   35  C16 UNL     1       1.172   9.177  -7.640  1.00  0.00     0.197 C 
HETATM   36  C17 UNL     1       1.052  10.093  -8.844  1.00  0.00     0.199 C 
HETATM   37  C18 UNL     1       1.162  11.480  -8.206  1.00  0.00     0.262 C 
HETATM   38  O11 UNL     1       2.125  11.309  -7.143  1.00  0.00    -0.353 OA
BRANCH  35  39
HETATM   39  O13 UNL     1      -0.097   8.856  -7.082  1.00  0.00    -0.286 OA
BRANCH  39  40
HETATM   40  P3  UNL     1      -0.106   7.636  -6.049  1.00  0.00     0.391 P 
HETATM   41  O14 UNL     1       1.022   6.675  -6.241  1.00  0.00    -0.632 OA
BRANCH  40  42
HETATM   42  O15 UNL     1      -1.593   7.082  -6.253  1.00  0.00    -0.307 OA
HETATM   43  H36 UNL     1      -1.784   6.352  -5.617  1.00  0.00     0.222 HD
ENDBRANCH  40  42
BRANCH  40  44
HETATM   44  O16 UNL     1      -0.193   8.401  -4.658  1.00  0.00    -0.307 OA
HETATM   45  H37 UNL     1       0.288   9.244  -4.661  1.00  0.00     0.222 HD
ENDBRANCH  40  44
ENDBRANCH  39  40
ENDBRANCH  35  39
BRANCH  36  46
HETATM   46  O12 UNL     1      -0.141   9.799  -9.574  1.00  0.00    -0.388 OA
HETATM   47  H35 UNL     1      -0.245   8.818  -9.554  1.00  0.00     0.210 HD
ENDBRANCH  36  46
BRANCH  37  48
HETATM   48  N3  UNL     1       1.660  12.480  -9.130  1.00  0.00    -0.297 N 
HETATM   49  C19 UNL     1       1.853  12.337 -10.484  1.00  0.00     0.188 A 
HETATM   50  N4  UNL     1       2.195  13.468 -11.061  1.00  0.00    -0.346 N 
HETATM   51  C20 UNL     1       2.220  14.392 -10.030  1.00  0.00     0.116 A 
HETATM   52  H4  UNL     1       2.397  13.630 -12.047  1.00  0.00     0.167 HD
HETATM   53  C21 UNL     1       2.470  15.775  -9.996  1.00  0.00     0.109 A 
HETATM   54  C23 UNL     1       1.929  13.784  -8.822  1.00  0.00     0.142 A 
HETATM   55  N5  UNL     1       2.429  16.412  -8.800  1.00  0.00    -0.341 N 
HETATM   56  C22 UNL     1       2.154  15.685  -7.699  1.00  0.00     0.183 A 
HETATM   57  H5  UNL     1       2.601  17.415  -8.736  1.00  0.00     0.167 HD
HETATM   58  N6  UNL     1       1.891  14.365  -7.610  1.00  0.00    -0.336 N 
HETATM   59  H6  UNL     1       1.690  13.873  -6.740  1.00  0.00     0.168 HD
BRANCH  53  60
HETATM   60  N7  UNL     1       2.767  16.524 -11.123  1.00  0.00    -0.287 NA
HETATM   61  H33 UNL     1       3.762  16.605 -11.322  1.00  0.00     0.125 HD
HETATM   62  H34 UNL     1       2.218  17.370 -11.190  1.00  0.00     0.125 HD
ENDBRANCH  53  60
ENDBRANCH  37  48
ENDBRANCH  33  34
ENDBRANCH  32  33
ENDBRANCH  28  32
ENDBRANCH  27  28
ENDBRANCH  23  27
ENDBRANCH  22  23
ENDBRANCH  21  22
ENDBRANCH  18  21
ENDBRANCH  17  18
BRANCH  17  63
HETATM   63  O17 UNL     1      10.032  10.617  -6.461  1.00  0.00    -0.385 OA
HETATM   64  H38 UNL     1       9.969  11.379  -7.062  1.00  0.00     0.210 HD
ENDBRANCH  17  63
ENDBRANCH  14  17
ENDBRANCH  12  13
ENDBRANCH  11  12
ENDBRANCH   8  11
ENDBRANCH   6   7
ENDBRANCH   5   6
ENDBRANCH   4   5
ENDBRANCH   2   4
TORSDOF 27
ENDMDL
MODEL 5
REMARK VINA RESULT:      -5.9      3.842      7.637
REMARK  27 active torsions:
REMARK  status: ('A' for Active; 'I' for Inactive)
REMARK    1  A    between atoms: C2_2  and  S1_4 
REMARK    2  A    between atoms: S1_4  and  C3_5 
REMARK    3  A    between atoms: C3_5  and  C4_6 
REMARK    4  A    between atoms: C4_6  and  N1_7 
REMARK       I    between atoms: N1_7  and  C5_8 
REMARK    5  A    between atoms: C5_8  and  C6_10 
REMARK    6  A    between atoms: C6_10  and  C7_11 
REMARK    7  A    between atoms: C7_11  and  N2_12 
REMARK       I    between atoms: N2_12  and  C8_13 
REMARK    8  A    between atoms: C8_13  and  C9_15 
REMARK    9  A    between atoms: C9_15  and  C10_16 
REMARK   10  A    between atoms: C9_15  and  O17_54 
REMARK   11  A    between atoms: C10_16  and  C13_19 
REMARK   12  A    between atoms: C13_19  and  O4_20 
REMARK   13  A    between atoms: O4_20  and  P1_21 
REMARK   14  A    between atoms: P1_21  and  O6_23 
REMARK   15  A    between atoms: P1_21  and  O7_24 
REMARK   16  A    between atoms: O7_24  and  P2_25 
REMARK   17  A    between atoms: P2_25  and  O9_27 
REMARK   18  A    between atoms: P2_25  and  O10_28 
REMARK   19  A    between atoms: O10_28  and  C14_29 
REMARK   20  A    between atoms: C14_29  and  C15_30 
REMARK   21  A    between atoms: C16_31  and  O13_49 
REMARK   22  A    between atoms: C17_32  and  O12_48 
REMARK   23  A    between atoms: C18_33  and  N3_35 
REMARK   24  A    between atoms: C21_40  and  N7_47 
REMARK   25  A    between atoms: O13_49  and  P3_50 
REMARK   26  A    between atoms: P3_50  and  O15_52 
REMARK   27  A    between atoms: P3_50  and  O16_53 
ROOT
HETATM    1  C1  UNL     1       6.695  15.129  -1.988  1.00  0.00     0.104 C 
HETATM    2  C2  UNL     1       5.317  15.564  -1.591  1.00  0.00     0.182 C 
HETATM    3  O1  UNL     1       4.451  15.884  -2.403  1.00  0.00    -0.286 OA
ENDROOT
BRANCH   2   4
HETATM    4  S1  UNL     1       5.045  15.620   0.145  1.00  0.00    -0.091 SA
BRANCH   4   5
HETATM    5  C3  UNL     1       6.689  16.164   0.712  1.00  0.00     0.102 C 
BRANCH   5   6
HETATM    6  C4  UNL     1       7.283  15.203   1.744  1.00  0.00     0.133 C 
BRANCH   6   7
HETATM    7  N1  UNL     1       8.603  14.734   1.378  1.00  0.00    -0.360 N 
HETATM    8  C5  UNL     1       9.714  15.036   2.132  1.00  0.00     0.219 C 
HETATM    9  O2  UNL     1       9.668  15.779   3.105  1.00  0.00    -0.274 OA
HETATM   10  H8  UNL     1       8.704  14.165   0.548  1.00  0.00     0.162 HD
BRANCH   8  11
HETATM   11  C6  UNL     1      10.984  14.403   1.606  1.00  0.00     0.122 C 
BRANCH  11  12
HETATM   12  C7  UNL     1      11.603  15.221   0.473  1.00  0.00     0.132 C 
BRANCH  12  13
HETATM   13  N2  UNL     1      11.647  14.505  -0.785  1.00  0.00    -0.358 N 
HETATM   14  C8  UNL     1      12.664  13.604  -1.039  1.00  0.00     0.247 C 
HETATM   15  O3  UNL     1      13.615  13.465  -0.280  1.00  0.00    -0.271 OA
HETATM   16  H13 UNL     1      10.743  14.320  -1.215  1.00  0.00     0.162 HD
BRANCH  14  17
HETATM   17  C9  UNL     1      12.495  12.787  -2.328  1.00  0.00     0.219 C 
BRANCH  17  18
HETATM   18  C10 UNL     1      13.611  13.009  -3.382  1.00  0.00     0.009 C 
HETATM   19  C11 UNL     1      14.033  14.483  -3.475  1.00  0.00     0.020 C 
HETATM   20  C12 UNL     1      14.867  12.175  -3.059  1.00  0.00     0.020 C 
BRANCH  18  21
HETATM   21  C13 UNL     1      13.012  12.550  -4.742  1.00  0.00     0.192 C 
BRANCH  21  22
HETATM   22  O4  UNL     1      11.606  12.415  -4.692  1.00  0.00    -0.296 OA
BRANCH  22  23
HETATM   23  P1  UNL     1      10.836  11.123  -5.249  1.00  0.00     0.401 P 
HETATM   24  O5  UNL     1      10.818   9.965  -4.302  1.00  0.00    -0.631 OA
BRANCH  23  25
HETATM   25  O6  UNL     1      11.481  10.779  -6.684  1.00  0.00    -0.307 OA
HETATM   26  H23 UNL     1      10.855  10.323  -7.261  1.00  0.00     0.222 HD
ENDBRANCH  23  25
BRANCH  23  27
HETATM   27  O7  UNL     1       9.398  11.655  -5.676  1.00  0.00    -0.195 OA
BRANCH  27  28
HETATM   28  P2  UNL     1       8.488  12.375  -4.585  1.00  0.00     0.401 P 
HETATM   29  O8  UNL     1       9.112  12.646  -3.255  1.00  0.00    -0.631 OA
BRANCH  28  30
HETATM   30  O9  UNL     1       7.974  13.683  -5.341  1.00  0.00    -0.307 OA
HETATM   31  H24 UNL     1       7.839  13.561  -6.313  1.00  0.00     0.222 HD
ENDBRANCH  28  30
BRANCH  28  32
HETATM   32  O10 UNL     1       7.150  11.504  -4.562  1.00  0.00    -0.294 OA
BRANCH  32  33
HETATM   33  C14 UNL     1       5.937  12.089  -4.165  1.00  0.00     0.215 C 
BRANCH  33  34
HETATM   34  C15 UNL     1       4.977  10.933  -3.886  1.00  0.00     0.180 C 
HETATM   35  C16 UNL     1       5.538   9.644  -4.472  1.00  0.00     0.197 C 
HETATM   36  C17 UNL     1       4.517   9.219  -5.511  1.00  0.00     0.199 C 
HETATM   37  C18 UNL     1       3.236   9.875  -4.991  1.00  0.00     0.262 C 
HETATM   38  O11 UNL     1       3.677  11.139  -4.449  1.00  0.00    -0.353 OA
BRANCH  35  39
HETATM   39  O13 UNL     1       5.658   8.695  -3.417  1.00  0.00    -0.286 OA
BRANCH  39  40
HETATM   40  P3  UNL     1       7.030   7.875  -3.381  1.00  0.00     0.391 P 
HETATM   41  O14 UNL     1       7.303   7.216  -2.068  1.00  0.00    -0.632 OA
BRANCH  40  42
HETATM   42  O15 UNL     1       8.060   8.994  -3.877  1.00  0.00    -0.307 OA
HETATM   43  H36 UNL     1       8.135   8.987  -4.861  1.00  0.00     0.222 HD
ENDBRANCH  40  42
BRANCH  40  44
HETATM   44  O16 UNL     1       6.871   6.939  -4.656  1.00  0.00    -0.307 OA
HETATM   45  H37 UNL     1       7.698   6.835  -5.153  1.00  0.00     0.222 HD
ENDBRANCH  40  44
ENDBRANCH  39  40
ENDBRANCH  35  39
BRANCH  36  46
HETATM   46  O12 UNL     1       4.516   7.796  -5.651  1.00  0.00    -0.388 OA
HETATM   47  H35 UNL     1       5.144   7.588  -6.384  1.00  0.00     0.210 HD
ENDBRANCH  36  46
BRANCH  37  48
HETATM   48  N3  UNL     1       2.274  10.130  -6.046  1.00  0.00    -0.297 N 
HETATM   49  C19 UNL     1       2.117  11.293  -6.763  1.00  0.00     0.188 A 
HETATM   50  N4  UNL     1       1.243  11.163  -7.737  1.00  0.00    -0.346 N 
HETATM   51  C20 UNL     1       0.816   9.850  -7.650  1.00  0.00     0.116 A 
HETATM   52  H4  UNL     1       0.945  11.872  -8.407  1.00  0.00     0.167 HD
HETATM   53  C21 UNL     1      -0.074   9.084  -8.423  1.00  0.00     0.109 A 
HETATM   54  C23 UNL     1       1.418   9.210  -6.582  1.00  0.00     0.142 A 
HETATM   55  N5  UNL     1      -0.297   7.795  -8.069  1.00  0.00    -0.341 N 
HETATM   56  C22 UNL     1       0.344   7.310  -6.987  1.00  0.00     0.183 A 
HETATM   57  H5  UNL     1      -0.933   7.207  -8.608  1.00  0.00     0.167 HD
HETATM   58  N6  UNL     1       1.220   7.942  -6.180  1.00  0.00    -0.336 N 
HETATM   59  H6  UNL     1       1.673   7.515  -5.371  1.00  0.00     0.168 HD
BRANCH  53  60
HETATM   60  N7  UNL     1      -0.747   9.582  -9.528  1.00  0.00    -0.287 NA
HETATM   61  H33 UNL     1      -0.142   9.978 -10.243  1.00  0.00     0.125 HD
HETATM   62  H34 UNL     1      -1.570  10.115  -9.281  1.00  0.00     0.125 HD
ENDBRANCH  53  60
ENDBRANCH  37  48
ENDBRANCH  33  34
ENDBRANCH  32  33
ENDBRANCH  28  32
ENDBRANCH  27  28
ENDBRANCH  23  27
ENDBRANCH  22  23
ENDBRANCH  21  22
ENDBRANCH  18  21
ENDBRANCH  17  18
BRANCH  17  63
HETATM   63  O17 UNL     1      12.431  11.390  -2.021  1.00  0.00    -0.385 OA
HETATM   64  H38 UNL     1      11.515  11.176  -1.778  1.00  0.00     0.210 HD
ENDBRANCH  17  63
ENDBRANCH  14  17
ENDBRANCH  12  13
ENDBRANCH  11  12
ENDBRANCH   8  11
ENDBRANCH   6   7
ENDBRANCH   5   6
ENDBRANCH   4   5
ENDBRANCH   2   4
TORSDOF 27
ENDMDL
MODEL 6
REMARK VINA RESULT:      -5.9      4.492      7.522
REMARK  27 active torsions:
REMARK  status: ('A' for Active; 'I' for Inactive)
REMARK    1  A    between atoms: C2_2  and  S1_4 
REMARK    2  A    between atoms: S1_4  and  C3_5 
REMARK    3  A    between atoms: C3_5  and  C4_6 
REMARK    4  A    between atoms: C4_6  and  N1_7 
REMARK       I    between atoms: N1_7  and  C5_8 
REMARK    5  A    between atoms: C5_8  and  C6_10 
REMARK    6  A    between atoms: C6_10  and  C7_11 
REMARK    7  A    between atoms: C7_11  and  N2_12 
REMARK       I    between atoms: N2_12  and  C8_13 
REMARK    8  A    between atoms: C8_13  and  C9_15 
REMARK    9  A    between atoms: C9_15  and  C10_16 
REMARK   10  A    between atoms: C9_15  and  O17_54 
REMARK   11  A    between atoms: C10_16  and  C13_19 
REMARK   12  A    between atoms: C13_19  and  O4_20 
REMARK   13  A    between atoms: O4_20  and  P1_21 
REMARK   14  A    between atoms: P1_21  and  O6_23 
REMARK   15  A    between atoms: P1_21  and  O7_24 
REMARK   16  A    between atoms: O7_24  and  P2_25 
REMARK   17  A    between atoms: P2_25  and  O9_27 
REMARK   18  A    between atoms: P2_25  and  O10_28 
REMARK   19  A    between atoms: O10_28  and  C14_29 
REMARK   20  A    between atoms: C14_29  and  C15_30 
REMARK   21  A    between atoms: C16_31  and  O13_49 
REMARK   22  A    between atoms: C17_32  and  O12_48 
REMARK   23  A    between atoms: C18_33  and  N3_35 
REMARK   24  A    between atoms: C21_40  and  N7_47 
REMARK   25  A    between atoms: O13_49  and  P3_50 
REMARK   26  A    between atoms: P3_50  and  O15_52 
REMARK   27  A    between atoms: P3_50  and  O16_53 
ROOT
HETATM    1  C1  UNL     1       8.818  17.442  -4.469  1.00  0.00     0.104 C 
HETATM    2  C2  UNL     1      10.000  17.271  -5.373  1.00  0.00     0.182 C 
HETATM    3  O1  UNL     1      11.088  16.849  -4.988  1.00  0.00    -0.286 OA
ENDROOT
BRANCH   2   4
HETATM    4  S1  UNL     1       9.718  17.763  -7.037  1.00  0.00    -0.091 SA
BRANCH   4   5
HETATM    5  C3  UNL     1      10.895  16.674  -7.902  1.00  0.00     0.102 C 
BRANCH   5   6
HETATM    6  C4  UNL     1      12.188  17.406  -8.265  1.00  0.00     0.133 C 
BRANCH   6   7
HETATM    7  N1  UNL     1      13.134  17.448  -7.168  1.00  0.00    -0.360 N 
HETATM    8  C5  UNL     1      14.405  16.935  -7.288  1.00  0.00     0.219 C 
HETATM    9  O2  UNL     1      14.786  16.343  -8.291  1.00  0.00    -0.274 OA
HETATM   10  H8  UNL     1      12.849  17.874  -6.296  1.00  0.00     0.162 HD
BRANCH   8  11
HETATM   11  C6  UNL     1      15.249  17.130  -6.047  1.00  0.00     0.122 C 
BRANCH  11  12
HETATM   12  C7  UNL     1      16.383  16.109  -5.962  1.00  0.00     0.132 C 
BRANCH  12  13
HETATM   13  N2  UNL     1      16.058  14.966  -5.136  1.00  0.00    -0.358 N 
HETATM   14  C8  UNL     1      16.914  14.573  -4.123  1.00  0.00     0.247 C 
HETATM   15  O3  UNL     1      18.014  15.086  -3.963  1.00  0.00    -0.271 OA
HETATM   16  H13 UNL     1      15.064  14.793  -4.999  1.00  0.00     0.162 HD
BRANCH  14  17
HETATM   17  C9  UNL     1      16.367  13.462  -3.213  1.00  0.00     0.219 C 
BRANCH  17  18
HETATM   18  C10 UNL     1      15.632  13.974  -1.946  1.00  0.00     0.009 C 
HETATM   19  C11 UNL     1      16.477  13.794  -0.676  1.00  0.00     0.020 C 
HETATM   20  C12 UNL     1      15.269  15.467  -2.067  1.00  0.00     0.020 C 
BRANCH  18  21
HETATM   21  C13 UNL     1      14.334  13.125  -1.834  1.00  0.00     0.192 C 
BRANCH  21  22
HETATM   22  O4  UNL     1      13.201  13.912  -1.528  1.00  0.00    -0.296 OA
BRANCH  22  23
HETATM   23  P1  UNL     1      12.479  13.880  -0.096  1.00  0.00     0.401 P 
HETATM   24  O5  UNL     1      13.408  14.069   1.061  1.00  0.00    -0.631 OA
BRANCH  23  25
HETATM   25  O6  UNL     1      11.632  12.513  -0.033  1.00  0.00    -0.307 OA
HETATM   26  H23 UNL     1      10.713  12.668   0.222  1.00  0.00     0.222 HD
ENDBRANCH  23  25
BRANCH  23  27
HETATM   27  O7  UNL     1      11.316  14.960  -0.198  1.00  0.00    -0.195 OA
BRANCH  27  28
HETATM   28  P2  UNL     1      10.356  14.941  -1.470  1.00  0.00     0.401 P 
HETATM   29  O8  UNL     1       9.126  15.785  -1.402  1.00  0.00    -0.631 OA
BRANCH  28  30
HETATM   30  O9  UNL     1      11.336  15.313  -2.674  1.00  0.00    -0.307 OA
HETATM   31  H24 UNL     1      11.553  16.275  -2.736  1.00  0.00     0.222 HD
ENDBRANCH  28  30
BRANCH  28  32
HETATM   32  O10 UNL     1      10.121  13.387  -1.752  1.00  0.00    -0.294 OA
BRANCH  32  33
HETATM   33  C14 UNL     1       9.737  12.956  -3.032  1.00  0.00     0.215 C 
BRANCH  33  34
HETATM   34  C15 UNL     1      10.752  11.893  -3.447  1.00  0.00     0.180 C 
HETATM   35  C16 UNL     1      11.066  12.031  -4.930  1.00  0.00     0.197 C 
HETATM   36  C17 UNL     1      10.608  10.721  -5.544  1.00  0.00     0.199 C 
HETATM   37  C18 UNL     1      10.695   9.760  -4.356  1.00  0.00     0.262 C 
HETATM   38  O11 UNL     1      10.287  10.557  -3.222  1.00  0.00    -0.353 OA
BRANCH  35  39
HETATM   39  O13 UNL     1      12.470  12.226  -5.068  1.00  0.00    -0.286 OA
BRANCH  39  40
HETATM   40  P3  UNL     1      12.907  13.500  -5.929  1.00  0.00     0.391 P 
HETATM   41  O14 UNL     1      11.933  13.866  -7.002  1.00  0.00    -0.632 OA
BRANCH  40  42
HETATM   42  O15 UNL     1      14.379  13.065  -6.381  1.00  0.00    -0.307 OA
HETATM   43  H36 UNL     1      14.986  13.029  -5.604  1.00  0.00     0.222 HD
ENDBRANCH  40  42
BRANCH  40  44
HETATM   44  O16 UNL     1      13.181  14.573  -4.787  1.00  0.00    -0.307 OA
HETATM   45  H37 UNL     1      13.115  14.198  -3.895  1.00  0.00     0.222 HD
ENDBRANCH  40  44
ENDBRANCH  39  40
ENDBRANCH  35  39
BRANCH  36  46
HETATM   46  O12 UNL     1      11.394  10.412  -6.698  1.00  0.00    -0.388 OA
HETATM   47  H35 UNL     1      12.290  10.790  -6.533  1.00  0.00     0.210 HD
ENDBRANCH  36  46
BRANCH  37  48
HETATM   48  N3  UNL     1       9.792   8.634  -4.484  1.00  0.00    -0.297 N 
HETATM   49  C19 UNL     1      10.126   7.300  -4.505  1.00  0.00     0.188 A 
HETATM   50  N4  UNL     1       9.066   6.521  -4.504  1.00  0.00    -0.346 N 
HETATM   51  C20 UNL     1       7.992   7.393  -4.475  1.00  0.00     0.116 A 
HETATM   52  H4  UNL     1       9.041   5.501  -4.520  1.00  0.00     0.167 HD
HETATM   53  C21 UNL     1       6.602   7.192  -4.419  1.00  0.00     0.109 A 
HETATM   54  C23 UNL     1       8.427   8.706  -4.502  1.00  0.00     0.142 A 
HETATM   55  N5  UNL     1       5.789   8.276  -4.413  1.00  0.00    -0.341 N 
HETATM   56  C22 UNL     1       6.355   9.498  -4.467  1.00  0.00     0.183 A 
HETATM   57  H5  UNL     1       4.775   8.170  -4.369  1.00  0.00     0.167 HD
HETATM   58  N6  UNL     1       7.665   9.813  -4.514  1.00  0.00    -0.336 N 
HETATM   59  H6  UNL     1       8.030  10.765  -4.554  1.00  0.00     0.168 HD
BRANCH  53  60
HETATM   60  N7  UNL     1       6.015   5.937  -4.378  1.00  0.00    -0.287 NA
HETATM   61  H33 UNL     1       6.279   5.326  -5.147  1.00  0.00     0.125 HD
HETATM   62  H34 UNL     1       5.033   5.969  -4.138  1.00  0.00     0.125 HD
ENDBRANCH  53  60
ENDBRANCH  37  48
ENDBRANCH  33  34
ENDBRANCH  32  33
ENDBRANCH  28  32
ENDBRANCH  27  28
ENDBRANCH  23  27
ENDBRANCH  22  23
ENDBRANCH  21  22
ENDBRANCH  18  21
ENDBRANCH  17  18
BRANCH  17  63
HETATM   63  O17 UNL     1      15.473  12.619  -3.948  1.00  0.00    -0.385 OA
HETATM   64  H38 UNL     1      16.005  12.048  -4.527  1.00  0.00     0.210 HD
ENDBRANCH  17  63
ENDBRANCH  14  17
ENDBRANCH  12  13
ENDBRANCH  11  12
ENDBRANCH   8  11
ENDBRANCH   6   7
ENDBRANCH   5   6
ENDBRANCH   4   5
ENDBRANCH   2   4
TORSDOF 27
ENDMDL
MODEL 7
REMARK VINA RESULT:      -5.6      3.413      7.894
REMARK  27 active torsions:
REMARK  status: ('A' for Active; 'I' for Inactive)
REMARK    1  A    between atoms: C2_2  and  S1_4 
REMARK    2  A    between atoms: S1_4  and  C3_5 
REMARK    3  A    between atoms: C3_5  and  C4_6 
REMARK    4  A    between atoms: C4_6  and  N1_7 
REMARK       I    between atoms: N1_7  and  C5_8 
REMARK    5  A    between atoms: C5_8  and  C6_10 
REMARK    6  A    between atoms: C6_10  and  C7_11 
REMARK    7  A    between atoms: C7_11  and  N2_12 
REMARK       I    between atoms: N2_12  and  C8_13 
REMARK    8  A    between atoms: C8_13  and  C9_15 
REMARK    9  A    between atoms: C9_15  and  C10_16 
REMARK   10  A    between atoms: C9_15  and  O17_54 
REMARK   11  A    between atoms: C10_16  and  C13_19 
REMARK   12  A    between atoms: C13_19  and  O4_20 
REMARK   13  A    between atoms: O4_20  and  P1_21 
REMARK   14  A    between atoms: P1_21  and  O6_23 
REMARK   15  A    between atoms: P1_21  and  O7_24 
REMARK   16  A    between atoms: O7_24  and  P2_25 
REMARK   17  A    between atoms: P2_25  and  O9_27 
REMARK   18  A    between atoms: P2_25  and  O10_28 
REMARK   19  A    between atoms: O10_28  and  C14_29 
REMARK   20  A    between atoms: C14_29  and  C15_30 
REMARK   21  A    between atoms: C16_31  and  O13_49 
REMARK   22  A    between atoms: C17_32  and  O12_48 
REMARK   23  A    between atoms: C18_33  and  N3_35 
REMARK   24  A    between atoms: C21_40  and  N7_47 
REMARK   25  A    between atoms: O13_49  and  P3_50 
REMARK   26  A    between atoms: P3_50  and  O15_52 
REMARK   27  A    between atoms: P3_50  and  O16_53 
ROOT
HETATM    1  C1  UNL     1       5.502  15.531  -1.306  1.00  0.00     0.104 C 
HETATM    2  C2  UNL     1       4.356  15.889  -0.410  1.00  0.00     0.182 C 
HETATM    3  O1  UNL     1       3.328  16.429  -0.812  1.00  0.00    -0.286 OA
ENDROOT
BRANCH   2   4
HETATM    4  S1  UNL     1       4.615  15.507   1.287  1.00  0.00    -0.091 SA
BRANCH   4   5
HETATM    5  C3  UNL     1       6.388  15.900   1.439  1.00  0.00     0.102 C 
BRANCH   5   6
HETATM    6  C4  UNL     1       7.217  14.664   1.794  1.00  0.00     0.133 C 
BRANCH   6   7
HETATM    7  N1  UNL     1       8.594  14.770   1.359  1.00  0.00    -0.360 N 
HETATM    8  C5  UNL     1       9.600  15.135   2.223  1.00  0.00     0.219 C 
HETATM    9  O2  UNL     1       9.386  15.468   3.383  1.00  0.00    -0.274 OA
HETATM   10  H8  UNL     1       8.817  14.562   0.395  1.00  0.00     0.162 HD
BRANCH   8  11
HETATM   11  C6  UNL     1      10.971  15.131   1.583  1.00  0.00     0.122 C 
BRANCH  11  12
HETATM   12  C7  UNL     1      10.913  14.716   0.113  1.00  0.00     0.132 C 
BRANCH  12  13
HETATM   13  N2  UNL     1      12.036  13.896  -0.290  1.00  0.00    -0.358 N 
HETATM   14  C8  UNL     1      13.190  14.483  -0.775  1.00  0.00     0.247 C 
HETATM   15  O3  UNL     1      13.267  15.686  -0.992  1.00  0.00    -0.271 OA
HETATM   16  H13 UNL     1      12.137  13.015   0.210  1.00  0.00     0.162 HD
BRANCH  14  17
HETATM   17  C9  UNL     1      14.362  13.516  -0.997  1.00  0.00     0.219 C 
BRANCH  17  18
HETATM   18  C10 UNL     1      14.790  13.353  -2.479  1.00  0.00     0.009 C 
HETATM   19  C11 UNL     1      15.346  14.659  -3.066  1.00  0.00     0.020 C 
HETATM   20  C12 UNL     1      15.868  12.263  -2.640  1.00  0.00     0.020 C 
BRANCH  18  21
HETATM   21  C13 UNL     1      13.505  12.939  -3.251  1.00  0.00     0.192 C 
BRANCH  21  22
HETATM   22  O4  UNL     1      12.852  11.835  -2.657  1.00  0.00    -0.296 OA
BRANCH  22  23
HETATM   23  P1  UNL     1      11.321  11.465  -2.956  1.00  0.00     0.401 P 
HETATM   24  O5  UNL     1      10.393  12.638  -2.941  1.00  0.00    -0.631 OA
BRANCH  23  25
HETATM   25  O6  UNL     1      10.913  10.301  -1.921  1.00  0.00    -0.307 OA
HETATM   26  H23 UNL     1      11.631   9.670  -1.784  1.00  0.00     0.222 HD
ENDBRANCH  23  25
BRANCH  23  27
HETATM   27  O7  UNL     1      11.353  10.661  -4.328  1.00  0.00    -0.195 OA
BRANCH  27  28
HETATM   28  P2  UNL     1      10.871  11.390  -5.660  1.00  0.00     0.401 P 
HETATM   29  O8  UNL     1      10.934  12.883  -5.675  1.00  0.00    -0.631 OA
BRANCH  28  30
HETATM   30  O9  UNL     1      11.745  10.690  -6.798  1.00  0.00    -0.307 OA
HETATM   31  H24 UNL     1      12.320   9.955  -6.471  1.00  0.00     0.222 HD
ENDBRANCH  28  30
BRANCH  28  32
HETATM   32  O10 UNL     1       9.438  10.749  -5.954  1.00  0.00    -0.294 OA
BRANCH  32  33
HETATM   33  C14 UNL     1       9.119   9.480  -5.447  1.00  0.00     0.215 C 
BRANCH  33  34
HETATM   34  C15 UNL     1       8.137   9.713  -4.301  1.00  0.00     0.180 C 
HETATM   35  C16 UNL     1       6.851   8.937  -4.558  1.00  0.00     0.197 C 
HETATM   36  C17 UNL     1       5.776  10.001  -4.667  1.00  0.00     0.199 C 
HETATM   37  C18 UNL     1       6.373  11.149  -3.849  1.00  0.00     0.262 C 
HETATM   38  O11 UNL     1       7.788  11.092  -4.135  1.00  0.00    -0.353 OA
BRANCH  35  39
HETATM   39  O13 UNL     1       6.634   8.065  -3.455  1.00  0.00    -0.286 OA
BRANCH  39  40
HETATM   40  P3  UNL     1       6.753   6.503  -3.777  1.00  0.00     0.391 P 
HETATM   41  O14 UNL     1       5.703   5.670  -3.115  1.00  0.00    -0.632 OA
BRANCH  40  42
HETATM   42  O15 UNL     1       8.277   6.230  -3.377  1.00  0.00    -0.307 OA
HETATM   43  H36 UNL     1       8.436   6.460  -2.431  1.00  0.00     0.222 HD
ENDBRANCH  40  42
BRANCH  40  44
HETATM   44  O16 UNL     1       6.792   6.512  -5.367  1.00  0.00    -0.307 OA
HETATM   45  H37 UNL     1       6.860   5.621  -5.746  1.00  0.00     0.222 HD
ENDBRANCH  40  44
ENDBRANCH  39  40
ENDBRANCH  35  39
BRANCH  36  46
HETATM   46  O12 UNL     1       4.515   9.477  -4.240  1.00  0.00    -0.388 OA
HETATM   47  H35 UNL     1       4.415   8.600  -4.680  1.00  0.00     0.210 HD
ENDBRANCH  36  46
BRANCH  37  48
HETATM   48  N3  UNL     1       5.867  12.444  -4.255  1.00  0.00    -0.297 N 
HETATM   49  C19 UNL     1       4.552  12.848  -4.297  1.00  0.00     0.188 A 
HETATM   50  N4  UNL     1       4.431  14.124  -4.588  1.00  0.00    -0.346 N 
HETATM   51  C20 UNL     1       5.732  14.573  -4.738  1.00  0.00     0.116 A 
HETATM   52  H4  UNL     1       3.571  14.664  -4.682  1.00  0.00     0.167 HD
HETATM   53  C21 UNL     1       6.278  15.839  -5.009  1.00  0.00     0.109 A 
HETATM   54  C23 UNL     1       6.629  13.533  -4.573  1.00  0.00     0.142 A 
HETATM   55  N5  UNL     1       7.625  15.958  -5.108  1.00  0.00    -0.341 N 
HETATM   56  C22 UNL     1       8.376  14.851  -4.947  1.00  0.00     0.183 A 
HETATM   57  H5  UNL     1       8.057  16.861  -5.300  1.00  0.00     0.167 HD
HETATM   58  N6  UNL     1       7.969  13.594  -4.677  1.00  0.00    -0.336 N 
HETATM   59  H6  UNL     1       8.593  12.795  -4.566  1.00  0.00     0.168 HD
BRANCH  53  60
HETATM   60  N7  UNL     1       5.509  16.978  -5.190  1.00  0.00    -0.287 NA
HETATM   61  H33 UNL     1       5.896  17.817  -4.765  1.00  0.00     0.125 HD
HETATM   62  H34 UNL     1       4.521  16.812  -5.053  1.00  0.00     0.125 HD
ENDBRANCH  53  60
ENDBRANCH  37  48
ENDBRANCH  33  34
ENDBRANCH  32  33
ENDBRANCH  28  32
ENDBRANCH  27  28
ENDBRANCH  23  27
ENDBRANCH  22  23
ENDBRANCH  21  22
ENDBRANCH  18  21
ENDBRANCH  17  18
BRANCH  17  63
HETATM   63  O17 UNL     1      15.500  13.938  -0.238  1.00  0.00    -0.385 OA
HETATM   64  H38 UNL     1      15.968  13.144   0.071  1.00  0.00     0.210 HD
ENDBRANCH  17  63
ENDBRANCH  14  17
ENDBRANCH  12  13
ENDBRANCH  11  12
ENDBRANCH   8  11
ENDBRANCH   6   7
ENDBRANCH   5   6
ENDBRANCH   4   5
ENDBRANCH   2   4
TORSDOF 27
ENDMDL
MODEL 8
REMARK VINA RESULT:      -5.5      3.662      7.389
REMARK  27 active torsions:
REMARK  status: ('A' for Active; 'I' for Inactive)
REMARK    1  A    between atoms: C2_2  and  S1_4 
REMARK    2  A    between atoms: S1_4  and  C3_5 
REMARK    3  A    between atoms: C3_5  and  C4_6 
REMARK    4  A    between atoms: C4_6  and  N1_7 
REMARK       I    between atoms: N1_7  and  C5_8 
REMARK    5  A    between atoms: C5_8  and  C6_10 
REMARK    6  A    between atoms: C6_10  and  C7_11 
REMARK    7  A    between atoms: C7_11  and  N2_12 
REMARK       I    between atoms: N2_12  and  C8_13 
REMARK    8  A    between atoms: C8_13  and  C9_15 
REMARK    9  A    between atoms: C9_15  and  C10_16 
REMARK   10  A    between atoms: C9_15  and  O17_54 
REMARK   11  A    between atoms: C10_16  and  C13_19 
REMARK   12  A    between atoms: C13_19  and  O4_20 
REMARK   13  A    between atoms: O4_20  and  P1_21 
REMARK   14  A    between atoms: P1_21  and  O6_23 
REMARK   15  A    between atoms: P1_21  and  O7_24 
REMARK   16  A    between atoms: O7_24  and  P2_25 
REMARK   17  A    between atoms: P2_25  and  O9_27 
REMARK   18  A    between atoms: P2_25  and  O10_28 
REMARK   19  A    between atoms: O10_28  and  C14_29 
REMARK   20  A    between atoms: C14_29  and  C15_30 
REMARK   21  A    between atoms: C16_31  and  O13_49 
REMARK   22  A    between atoms: C17_32  and  O12_48 
REMARK   23  A    between atoms: C18_33  and  N3_35 
REMARK   24  A    between atoms: C21_40  and  N7_47 
REMARK   25  A    between atoms: O13_49  and  P3_50 
REMARK   26  A    between atoms: P3_50  and  O15_52 
REMARK   27  A    between atoms: P3_50  and  O16_53 
ROOT
HETATM    1  C1  UNL     1       8.007  15.075   0.395  1.00  0.00     0.104 C 
HETATM    2  C2  UNL     1       7.831  15.180  -1.089  1.00  0.00     0.182 C 
HETATM    3  O1  UNL     1       8.406  14.447  -1.890  1.00  0.00    -0.286 OA
ENDROOT
BRANCH   2   4
HETATM    4  S1  UNL     1       6.755  16.473  -1.601  1.00  0.00    -0.091 SA
BRANCH   4   5
HETATM    5  C3  UNL     1       7.487  16.881  -3.219  1.00  0.00     0.102 C 
BRANCH   5   6
HETATM    6  C4  UNL     1       6.660  16.320  -4.377  1.00  0.00     0.133 C 
BRANCH   6   7
HETATM    7  N1  UNL     1       5.753  15.270  -3.960  1.00  0.00    -0.360 N 
HETATM    8  C5  UNL     1       5.991  13.948  -4.256  1.00  0.00     0.219 C 
HETATM    9  O2  UNL     1       6.932  13.587  -4.953  1.00  0.00    -0.274 OA
HETATM   10  H8  UNL     1       4.929  15.522  -3.431  1.00  0.00     0.162 HD
BRANCH   8  11
HETATM   11  C6  UNL     1       4.953  13.009  -3.681  1.00  0.00     0.122 C 
BRANCH  11  12
HETATM   12  C7  UNL     1       4.774  11.760  -4.542  1.00  0.00     0.132 C 
BRANCH  12  13
HETATM   13  N2  UNL     1       5.076  10.534  -3.833  1.00  0.00    -0.358 N 
HETATM   14  C8  UNL     1       4.912   9.310  -4.456  1.00  0.00     0.247 C 
HETATM   15  O3  UNL     1       4.404   9.207  -5.565  1.00  0.00    -0.271 OA
HETATM   16  H13 UNL     1       5.808  10.604  -3.129  1.00  0.00     0.162 HD
BRANCH  14  17
HETATM   17  C9  UNL     1       5.435   8.106  -3.658  1.00  0.00     0.219 C 
BRANCH  17  18
HETATM   18  C10 UNL     1       6.819   7.580  -4.121  1.00  0.00     0.009 C 
HETATM   19  C11 UNL     1       7.822   7.494  -2.962  1.00  0.00     0.020 C 
HETATM   20  C12 UNL     1       6.707   6.179  -4.757  1.00  0.00     0.020 C 
BRANCH  18  21
HETATM   21  C13 UNL     1       7.330   8.598  -5.181  1.00  0.00     0.192 C 
BRANCH  21  22
HETATM   22  O4  UNL     1       8.729   8.784  -5.117  1.00  0.00    -0.296 OA
BRANCH  22  23
HETATM   23  P1  UNL     1       9.404  10.147  -4.610  1.00  0.00     0.401 P 
HETATM   24  O5  UNL     1      10.192  10.007  -3.346  1.00  0.00    -0.631 OA
BRANCH  23  25
HETATM   25  O6  UNL     1       8.230  11.244  -4.525  1.00  0.00    -0.307 OA
HETATM   26  H23 UNL     1       7.369  10.871  -4.756  1.00  0.00     0.222 HD
ENDBRANCH  23  25
BRANCH  23  27
HETATM   27  O7  UNL     1      10.237  10.681  -5.856  1.00  0.00    -0.195 OA
BRANCH  27  28
HETATM   28  P2  UNL     1      11.260  11.883  -5.641  1.00  0.00     0.401 P 
HETATM   29  O8  UNL     1      12.456  11.609  -4.789  1.00  0.00    -0.631 OA
BRANCH  28  30
HETATM   30  O9  UNL     1      11.611  12.338  -7.130  1.00  0.00    -0.307 OA
HETATM   31  H24 UNL     1      12.578  12.450  -7.301  1.00  0.00     0.222 HD
ENDBRANCH  28  30
BRANCH  28  32
HETATM   32  O10 UNL     1      10.335  13.099  -5.173  1.00  0.00    -0.294 OA
BRANCH  32  33
HETATM   33  C14 UNL     1       9.888  14.042  -6.111  1.00  0.00     0.215 C 
BRANCH  33  34
HETATM   34  C15 UNL     1      10.531  15.371  -5.720  1.00  0.00     0.180 C 
HETATM   35  C16 UNL     1      11.943  15.447  -6.287  1.00  0.00     0.197 C 
HETATM   36  C17 UNL     1      12.842  15.541  -5.069  1.00  0.00     0.199 C 
HETATM   37  C18 UNL     1      11.906  16.152  -4.023  1.00  0.00     0.262 C 
HETATM   38  O11 UNL     1      10.621  15.553  -4.302  1.00  0.00    -0.353 OA
BRANCH  35  39
HETATM   39  O13 UNL     1      12.027  16.608  -7.107  1.00  0.00    -0.286 OA
BRANCH  39  40
HETATM   40  P3  UNL     1      12.601  16.371  -8.580  1.00  0.00     0.391 P 
HETATM   41  O14 UNL     1      11.918  17.185  -9.631  1.00  0.00    -0.632 OA
BRANCH  40  42
HETATM   42  O15 UNL     1      12.493  14.778  -8.691  1.00  0.00    -0.307 OA
HETATM   43  H36 UNL     1      12.308  14.379  -7.807  1.00  0.00     0.222 HD
ENDBRANCH  40  42
BRANCH  40  44
HETATM   44  O16 UNL     1      14.156  16.613  -8.355  1.00  0.00    -0.307 OA
HETATM   45  H37 UNL     1      14.340  17.381  -7.792  1.00  0.00     0.222 HD
ENDBRANCH  40  44
ENDBRANCH  39  40
ENDBRANCH  35  39
BRANCH  36  46
HETATM   46  O12 UNL     1      14.033  16.267  -5.387  1.00  0.00    -0.388 OA
HETATM   47  H35 UNL     1      13.817  17.222  -5.268  1.00  0.00     0.210 HD
ENDBRANCH  36  46
BRANCH  37  48
HETATM   48  N3  UNL     1      12.292  15.816  -2.667  1.00  0.00    -0.297 N 
HETATM   49  C19 UNL     1      12.886  16.644  -1.743  1.00  0.00     0.188 A 
HETATM   50  N4  UNL     1      12.993  16.076  -0.561  1.00  0.00    -0.346 N 
HETATM   51  C20 UNL     1      12.437  14.819  -0.726  1.00  0.00     0.116 A 
HETATM   52  H4  UNL     1      13.396  16.473   0.287  1.00  0.00     0.167 HD
HETATM   53  C21 UNL     1      12.213  13.753   0.161  1.00  0.00     0.109 A 
HETATM   54  C23 UNL     1      12.035  14.631  -2.036  1.00  0.00     0.142 A 
HETATM   55  N5  UNL     1      11.643  12.619  -0.317  1.00  0.00    -0.341 N 
HETATM   56  C22 UNL     1      11.324  12.569  -1.625  1.00  0.00     0.183 A 
HETATM   57  H5  UNL     1      11.462  11.826   0.298  1.00  0.00     0.167 HD
HETATM   58  N6  UNL     1      11.482  13.525  -2.564  1.00  0.00    -0.336 N 
HETATM   59  H6  UNL     1      11.217  13.422  -3.544  1.00  0.00     0.168 HD
BRANCH  53  60
HETATM   60  N7  UNL     1      12.553  13.794   1.504  1.00  0.00    -0.287 NA
HETATM   61  H33 UNL     1      12.970  12.936   1.857  1.00  0.00     0.125 HD
HETATM   62  H34 UNL     1      11.841  14.224   2.078  1.00  0.00     0.125 HD
ENDBRANCH  53  60
ENDBRANCH  37  48
ENDBRANCH  33  34
ENDBRANCH  32  33
ENDBRANCH  28  32
ENDBRANCH  27  28
ENDBRANCH  23  27
ENDBRANCH  22  23
ENDBRANCH  21  22
ENDBRANCH  18  21
ENDBRANCH  17  18
BRANCH  17  63
HETATM   63  O17 UNL     1       5.516   8.434  -2.267  1.00  0.00    -0.385 OA
HETATM   64  H38 UNL     1       6.453   8.544  -2.037  1.00  0.00     0.210 HD
ENDBRANCH  17  63
ENDBRANCH  14  17
ENDBRANCH  12  13
ENDBRANCH  11  12
ENDBRANCH   8  11
ENDBRANCH   6   7
ENDBRANCH   5   6
ENDBRANCH   4   5
ENDBRANCH   2   4
TORSDOF 27
ENDMDL
MODEL 9
REMARK VINA RESULT:      -5.5      4.564      7.829
REMARK  27 active torsions:
REMARK  status: ('A' for Active; 'I' for Inactive)
REMARK    1  A    between atoms: C2_2  and  S1_4 
REMARK    2  A    between atoms: S1_4  and  C3_5 
REMARK    3  A    between atoms: C3_5  and  C4_6 
REMARK    4  A    between atoms: C4_6  and  N1_7 
REMARK       I    between atoms: N1_7  and  C5_8 
REMARK    5  A    between atoms: C5_8  and  C6_10 
REMARK    6  A    between atoms: C6_10  and  C7_11 
REMARK    7  A    between atoms: C7_11  and  N2_12 
REMARK       I    between atoms: N2_12  and  C8_13 
REMARK    8  A    between atoms: C8_13  and  C9_15 
REMARK    9  A    between atoms: C9_15  and  C10_16 
REMARK   10  A    between atoms: C9_15  and  O17_54 
REMARK   11  A    between atoms: C10_16  and  C13_19 
REMARK   12  A    between atoms: C13_19  and  O4_20 
REMARK   13  A    between atoms: O4_20  and  P1_21 
REMARK   14  A    between atoms: P1_21  and  O6_23 
REMARK   15  A    between atoms: P1_21  and  O7_24 
REMARK   16  A    between atoms: O7_24  and  P2_25 
REMARK   17  A    between atoms: P2_25  and  O9_27 
REMARK   18  A    between atoms: P2_25  and  O10_28 
REMARK   19  A    between atoms: O10_28  and  C14_29 
REMARK   20  A    between atoms: C14_29  and  C15_30 
REMARK   21  A    between atoms: C16_31  and  O13_49 
REMARK   22  A    between atoms: C17_32  and  O12_48 
REMARK   23  A    between atoms: C18_33  and  N3_35 
REMARK   24  A    between atoms: C21_40  and  N7_47 
REMARK   25  A    between atoms: O13_49  and  P3_50 
REMARK   26  A    between atoms: P3_50  and  O15_52 
REMARK   27  A    between atoms: P3_50  and  O16_53 
ROOT
HETATM    1  C1  UNL     1      16.837  15.523  -3.358  1.00  0.00     0.104 C 
HETATM    2  C2  UNL     1      16.049  14.286  -3.665  1.00  0.00     0.182 C 
HETATM    3  O1  UNL     1      15.369  13.695  -2.830  1.00  0.00    -0.286 OA
ENDROOT
BRANCH   2   4
HETATM    4  S1  UNL     1      16.208  13.718  -5.321  1.00  0.00    -0.091 SA
BRANCH   4   5
HETATM    5  C3  UNL     1      17.099  15.124  -6.062  1.00  0.00     0.102 C 
BRANCH   5   6
HETATM    6  C4  UNL     1      16.518  15.515  -7.422  1.00  0.00     0.133 C 
BRANCH   6   7
HETATM    7  N1  UNL     1      15.317  14.775  -7.751  1.00  0.00    -0.360 N 
HETATM    8  C5  UNL     1      14.182  15.403  -8.207  1.00  0.00     0.219 C 
HETATM    9  O2  UNL     1      14.089  16.623  -8.285  1.00  0.00    -0.274 OA
HETATM   10  H8  UNL     1      15.322  13.769  -7.647  1.00  0.00     0.162 HD
BRANCH   8  11
HETATM   11  C6  UNL     1      13.061  14.444  -8.545  1.00  0.00     0.122 C 
BRANCH  11  12
HETATM   12  C7  UNL     1      11.957  14.461  -7.488  1.00  0.00     0.132 C 
BRANCH  12  13
HETATM   13  N2  UNL     1      12.291  13.696  -6.306  1.00  0.00    -0.358 N 
HETATM   14  C8  UNL     1      11.859  14.113  -5.060  1.00  0.00     0.247 C 
HETATM   15  O3  UNL     1      11.291  15.185  -4.893  1.00  0.00    -0.271 OA
HETATM   16  H13 UNL     1      12.400  12.694  -6.449  1.00  0.00     0.162 HD
BRANCH  14  17
HETATM   17  C9  UNL     1      12.129  13.122  -3.919  1.00  0.00     0.219 C 
BRANCH  17  18
HETATM   18  C10 UNL     1      10.878  12.340  -3.437  1.00  0.00     0.009 C 
HETATM   19  C11 UNL     1      10.017  11.847  -4.610  1.00  0.00     0.020 C 
HETATM   20  C12 UNL     1      11.271  11.114  -2.588  1.00  0.00     0.020 C 
BRANCH  18  21
HETATM   21  C13 UNL     1      10.059  13.338  -2.571  1.00  0.00     0.192 C 
BRANCH  21  22
HETATM   22  O4  UNL     1       8.811  13.657  -3.152  1.00  0.00    -0.296 OA
BRANCH  22  23
HETATM   23  P1  UNL     1       7.862  14.823  -2.593  1.00  0.00     0.401 P 
HETATM   24  O5  UNL     1       8.140  16.172  -3.177  1.00  0.00    -0.631 OA
BRANCH  23  25
HETATM   25  O6  UNL     1       7.965  14.776  -0.987  1.00  0.00    -0.307 OA
HETATM   26  H23 UNL     1       7.408  15.446  -0.570  1.00  0.00     0.222 HD
ENDBRANCH  23  25
BRANCH  23  27
HETATM   27  O7  UNL     1       6.380  14.292  -2.823  1.00  0.00    -0.195 OA
BRANCH  27  28
HETATM   28  P2  UNL     1       5.723  14.443  -4.267  1.00  0.00     0.401 P 
HETATM   29  O8  UNL     1       4.654  15.475  -4.420  1.00  0.00    -0.631 OA
BRANCH  28  30
HETATM   30  O9  UNL     1       6.984  14.664  -5.222  1.00  0.00    -0.307 OA
HETATM   31  H24 UNL     1       7.591  15.386  -4.926  1.00  0.00     0.222 HD
ENDBRANCH  28  30
BRANCH  28  32
HETATM   32  O10 UNL     1       5.314  12.950  -4.663  1.00  0.00    -0.294 OA
BRANCH  32  33
HETATM   33  C14 UNL     1       6.015  11.862  -4.120  1.00  0.00     0.215 C 
BRANCH  33  34
HETATM   34  C15 UNL     1       4.976  10.773  -3.858  1.00  0.00     0.180 C 
HETATM   35  C16 UNL     1       5.469   9.446  -4.419  1.00  0.00     0.197 C 
HETATM   36  C17 UNL     1       4.451   9.077  -5.482  1.00  0.00     0.199 C 
HETATM   37  C18 UNL     1       3.200   9.817  -5.003  1.00  0.00     0.262 C 
HETATM   38  O11 UNL     1       3.707  11.056  -4.458  1.00  0.00    -0.353 OA
BRANCH  35  39
HETATM   39  O13 UNL     1       5.499   8.501  -3.355  1.00  0.00    -0.286 OA
BRANCH  39  40
HETATM   40  P3  UNL     1       6.837   7.633  -3.242  1.00  0.00     0.391 P 
HETATM   41  O14 UNL     1       7.056   7.036  -1.890  1.00  0.00    -0.632 OA
BRANCH  40  42
HETATM   42  O15 UNL     1       7.921   8.684  -3.771  1.00  0.00    -0.307 OA
HETATM   43  H36 UNL     1       8.606   8.856  -3.082  1.00  0.00     0.222 HD
ENDBRANCH  40  42
BRANCH  40  44
HETATM   44  O16 UNL     1       6.671   6.636  -4.470  1.00  0.00    -0.307 OA
HETATM   45  H37 UNL     1       6.676   5.704  -4.201  1.00  0.00     0.222 HD
ENDBRANCH  40  44
ENDBRANCH  39  40
ENDBRANCH  35  39
BRANCH  36  46
HETATM   46  O12 UNL     1       4.363   7.655  -5.612  1.00  0.00    -0.388 OA
HETATM   47  H35 UNL     1       4.396   7.290  -4.696  1.00  0.00     0.210 HD
ENDBRANCH  36  46
BRANCH  37  48
HETATM   48  N3  UNL     1       2.286  10.124  -6.085  1.00  0.00    -0.297 N 
HETATM   49  C19 UNL     1       2.189  11.305  -6.782  1.00  0.00     0.188 A 
HETATM   50  N4  UNL     1       1.347  11.223  -7.789  1.00  0.00    -0.346 N 
HETATM   51  C20 UNL     1       0.879   9.921  -7.746  1.00  0.00     0.116 A 
HETATM   52  H4  UNL     1       1.096  11.954  -8.454  1.00  0.00     0.167 HD
HETATM   53  C21 UNL     1      -0.004   9.199  -8.567  1.00  0.00     0.109 A 
HETATM   54  C23 UNL     1       1.423   9.241  -6.672  1.00  0.00     0.142 A 
HETATM   55  N5  UNL     1      -0.278   7.910  -8.250  1.00  0.00    -0.341 N 
HETATM   56  C22 UNL     1       0.309   7.384  -7.157  1.00  0.00     0.183 A 
HETATM   57  H5  UNL     1      -0.911   7.353  -8.824  1.00  0.00     0.167 HD
HETATM   58  N6  UNL     1       1.174   7.971  -6.305  1.00  0.00    -0.336 N 
HETATM   59  H6  UNL     1       1.584   7.514  -5.490  1.00  0.00     0.168 HD
BRANCH  53  60
HETATM   60  N7  UNL     1      -0.621   9.740  -9.684  1.00  0.00    -0.287 NA
HETATM   61  H33 UNL     1      -0.958  10.692  -9.557  1.00  0.00     0.125 HD
HETATM   62  H34 UNL     1      -1.249   9.092 -10.141  1.00  0.00     0.125 HD
ENDBRANCH  53  60
ENDBRANCH  37  48
ENDBRANCH  33  34
ENDBRANCH  32  33
ENDBRANCH  28  32
ENDBRANCH  27  28
ENDBRANCH  23  27
ENDBRANCH  22  23
ENDBRANCH  21  22
ENDBRANCH  18  21
ENDBRANCH  17  18
BRANCH  17  63
HETATM   63  O17 UNL     1      13.131  12.178  -4.313  1.00  0.00    -0.385 OA
HETATM   64  H38 UNL     1      13.636  12.563  -5.048  1.00  0.00     0.210 HD
ENDBRANCH  17  63
ENDBRANCH  14  17
ENDBRANCH  12  13
ENDBRANCH  11  12
ENDBRANCH   8  11
ENDBRANCH   6   7
ENDBRANCH   5   6
ENDBRANCH   4   5
ENDBRANCH   2   4
TORSDOF 27
ENDMDL
MODEL 10
REMARK VINA RESULT:      -5.5      5.648      9.468
REMARK  27 active torsions:
REMARK  status: ('A' for Active; 'I' for Inactive)
REMARK    1  A    between atoms: C2_2  and  S1_4 
REMARK    2  A    between atoms: S1_4  and  C3_5 
REMARK    3  A    between atoms: C3_5  and  C4_6 
REMARK    4  A    between atoms: C4_6  and  N1_7 
REMARK       I    between atoms: N1_7  and  C5_8 
REMARK    5  A    between atoms: C5_8  and  C6_10 
REMARK    6  A    between atoms: C6_10  and  C7_11 
REMARK    7  A    between atoms: C7_11  and  N2_12 
REMARK       I    between atoms: N2_12  and  C8_13 
REMARK    8  A    between atoms: C8_13  and  C9_15 
REMARK    9  A    between atoms: C9_15  and  C10_16 
REMARK   10  A    between atoms: C9_15  and  O17_54 
REMARK   11  A    between atoms: C10_16  and  C13_19 
REMARK   12  A    between atoms: C13_19  and  O4_20 
REMARK   13  A    between atoms: O4_20  and  P1_21 
REMARK   14  A    between atoms: P1_21  and  O6_23 
REMARK   15  A    between atoms: P1_21  and  O7_24 
REMARK   16  A    between atoms: O7_24  and  P2_25 
REMARK   17  A    between atoms: P2_25  and  O9_27 
REMARK   18  A    between atoms: P2_25  and  O10_28 
REMARK   19  A    between atoms: O10_28  and  C14_29 
REMARK   20  A    between atoms: C14_29  and  C15_30 
REMARK   21  A    between atoms: C16_31  and  O13_49 
REMARK   22  A    between atoms: C17_32  and  O12_48 
REMARK   23  A    between atoms: C18_33  and  N3_35 
REMARK   24  A    between atoms: C21_40  and  N7_47 
REMARK   25  A    between atoms: O13_49  and  P3_50 
REMARK   26  A    between atoms: P3_50  and  O15_52 
REMARK   27  A    between atoms: P3_50  and  O16_53 
ROOT
HETATM    1  C1  UNL     1      13.194  11.645  -1.608  1.00  0.00     0.104 C 
HETATM    2  C2  UNL     1      14.375  12.559  -1.728  1.00  0.00     0.182 C 
HETATM    3  O1  UNL     1      14.778  13.266  -0.808  1.00  0.00    -0.286 OA
ENDROOT
BRANCH   2   4
HETATM    4  S1  UNL     1      15.125  12.569  -3.319  1.00  0.00    -0.091 SA
BRANCH   4   5
HETATM    5  C3  UNL     1      15.995  14.168  -3.257  1.00  0.00     0.102 C 
BRANCH   5   6
HETATM    6  C4  UNL     1      15.214  15.271  -3.974  1.00  0.00     0.133 C 
BRANCH   6   7
HETATM    7  N1  UNL     1      14.427  14.769  -5.081  1.00  0.00    -0.360 N 
HETATM    8  C5  UNL     1      14.110  15.560  -6.162  1.00  0.00     0.219 C 
HETATM    9  O2  UNL     1      14.402  16.749  -6.217  1.00  0.00    -0.274 OA
HETATM   10  H8  UNL     1      14.110  13.809  -5.058  1.00  0.00     0.162 HD
BRANCH   8  11
HETATM   11  C6  UNL     1      13.330  14.827  -7.232  1.00  0.00     0.122 C 
BRANCH  11  12
HETATM   12  C7  UNL     1      11.875  14.600  -6.823  1.00  0.00     0.132 C 
BRANCH  12  13
HETATM   13  N2  UNL     1      11.534  13.199  -6.696  1.00  0.00    -0.358 N 
HETATM   14  C8  UNL     1      11.476  12.607  -5.447  1.00  0.00     0.247 C 
HETATM   15  O3  UNL     1      11.818  13.196  -4.430  1.00  0.00    -0.271 OA
HETATM   16  H13 UNL     1      10.914  12.831  -7.414  1.00  0.00     0.162 HD
BRANCH  14  17
HETATM   17  C9  UNL     1      10.932  11.170  -5.440  1.00  0.00     0.219 C 
BRANCH  17  18
HETATM   18  C10 UNL     1       9.731  10.942  -4.484  1.00  0.00     0.009 C 
HETATM   19  C11 UNL     1      10.184  10.580  -3.063  1.00  0.00     0.020 C 
HETATM   20  C12 UNL     1       8.836  12.195  -4.393  1.00  0.00     0.020 C 
BRANCH  18  21
HETATM   21  C13 UNL     1       8.921   9.761  -5.091  1.00  0.00     0.192 C 
BRANCH  21  22
HETATM   22  O4  UNL     1       7.657   9.605  -4.479  1.00  0.00    -0.296 OA
BRANCH  22  23
HETATM   23  P1  UNL     1       7.099   8.185  -3.984  1.00  0.00     0.401 P 
HETATM   24  O5  UNL     1       8.021   7.454  -3.060  1.00  0.00    -0.631 OA
BRANCH  23  25
HETATM   25  O6  UNL     1       6.708   7.352  -5.305  1.00  0.00    -0.307 OA
HETATM   26  H23 UNL     1       6.953   6.421  -5.231  1.00  0.00     0.222 HD
ENDBRANCH  23  25
BRANCH  23  27
HETATM   27  O7  UNL     1       5.661   8.497  -3.378  1.00  0.00    -0.195 OA
BRANCH  27  28
HETATM   28  P2  UNL     1       4.749   9.595  -4.086  1.00  0.00     0.401 P 
HETATM   29  O8  UNL     1       3.434   9.898  -3.446  1.00  0.00    -0.631 OA
BRANCH  28  30
HETATM   30  O9  UNL     1       5.721  10.857  -4.206  1.00  0.00    -0.307 OA
HETATM   31  H24 UNL     1       6.255  10.877  -5.038  1.00  0.00     0.222 HD
ENDBRANCH  28  30
BRANCH  28  32
HETATM   32  O10 UNL     1       4.691   9.123  -5.611  1.00  0.00    -0.294 OA
BRANCH  32  33
HETATM   33  C14 UNL     1       3.649   8.291  -6.049  1.00  0.00     0.215 C 
BRANCH  33  34
HETATM   34  C15 UNL     1       2.395   9.163  -6.092  1.00  0.00     0.180 C 
HETATM   35  C16 UNL     1       1.338   8.503  -6.967  1.00  0.00     0.197 C 
HETATM   36  C17 UNL     1       1.116   9.480  -8.106  1.00  0.00     0.199 C 
HETATM   37  C18 UNL     1       1.527  10.812  -7.473  1.00  0.00     0.262 C 
HETATM   38  O11 UNL     1       2.643  10.471  -6.620  1.00  0.00    -0.353 OA
BRANCH  35  39
HETATM   39  O13 UNL     1       0.166   8.320  -6.180  1.00  0.00    -0.286 OA
BRANCH  39  40
HETATM   40  P3  UNL     1      -0.362   6.814  -6.070  1.00  0.00     0.391 P 
HETATM   41  O14 UNL     1       0.264   6.037  -4.958  1.00  0.00    -0.632 OA
BRANCH  40  42
HETATM   42  O15 UNL     1      -0.115   6.300  -7.564  1.00  0.00    -0.307 OA
HETATM   43  H36 UNL     1       0.192   5.362  -7.564  1.00  0.00     0.222 HD
ENDBRANCH  40  42
BRANCH  40  44
HETATM   44  O16 UNL     1      -1.936   7.035  -6.019  1.00  0.00    -0.307 OA
HETATM   45  H37 UNL     1      -2.429   6.208  -5.900  1.00  0.00     0.222 HD
ENDBRANCH  40  44
ENDBRANCH  39  40
ENDBRANCH  35  39
BRANCH  36  46
HETATM   46  O12 UNL     1      -0.223   9.372  -8.597  1.00  0.00    -0.388 OA
HETATM   47  H35 UNL     1      -0.706   8.791  -7.963  1.00  0.00     0.210 HD
ENDBRANCH  36  46
BRANCH  37  48
HETATM   48  N3  UNL     1       1.970  11.781  -8.455  1.00  0.00    -0.297 N 
HETATM   49  C19 UNL     1       2.506  11.522  -9.695  1.00  0.00     0.188 A 
HETATM   50  N4  UNL     1       2.688  12.619 -10.398  1.00  0.00    -0.346 N 
HETATM   51  C20 UNL     1       2.244  13.639  -9.575  1.00  0.00     0.116 A 
HETATM   52  H4  UNL     1       3.071  12.700 -11.340  1.00  0.00     0.167 HD
HETATM   53  C21 UNL     1       2.134  15.028  -9.754  1.00  0.00     0.109 A 
HETATM   54  C23 UNL     1       1.833  13.137  -8.354  1.00  0.00     0.142 A 
HETATM   55  N5  UNL     1       1.659  15.779  -8.731  1.00  0.00    -0.341 N 
HETATM   56  C22 UNL     1       1.318  15.155  -7.586  1.00  0.00     0.183 A 
HETATM   57  H5  UNL     1       1.562  16.790  -8.825  1.00  0.00     0.167 HD
HETATM   58  N6  UNL     1       1.371  13.838  -7.303  1.00  0.00    -0.336 N 
HETATM   59  H6  UNL     1       1.096  13.426  -6.410  1.00  0.00     0.168 HD
BRANCH  53  60
HETATM   60  N7  UNL     1       2.497  15.677 -10.924  1.00  0.00    -0.287 NA
HETATM   61  H33 UNL     1       3.359  16.213 -10.856  1.00  0.00     0.125 HD
HETATM   62  H34 UNL     1       1.717  16.126 -11.385  1.00  0.00     0.125 HD
ENDBRANCH  53  60
ENDBRANCH  37  48
ENDBRANCH  33  34
ENDBRANCH  32  33
ENDBRANCH  28  32
ENDBRANCH  27  28
ENDBRANCH  23  27
ENDBRANCH  22  23
ENDBRANCH  21  22
ENDBRANCH  18  21
ENDBRANCH  17  18
BRANCH  17  63
HETATM   63  O17 UNL     1      10.540  10.785  -6.762  1.00  0.00    -0.385 OA
HETATM   64  H38 UNL     1      10.705  11.536  -7.357  1.00  0.00     0.210 HD
ENDBRANCH  17  63
ENDBRANCH  14  17
ENDBRANCH  12  13
ENDBRANCH  11  12
ENDBRANCH   8  11
ENDBRANCH   6   7
ENDBRANCH   5   6
ENDBRANCH   4   5
ENDBRANCH   2   4
TORSDOF 27
ENDMDL
MODEL 11
REMARK VINA RESULT:      -5.0      2.702      5.969
REMARK  27 active torsions:
REMARK  status: ('A' for Active; 'I' for Inactive)
REMARK    1  A    between atoms: C2_2  and  S1_4 
REMARK    2  A    between atoms: S1_4  and  C3_5 
REMARK    3  A    between atoms: C3_5  and  C4_6 
REMARK    4  A    between atoms: C4_6  and  N1_7 
REMARK       I    between atoms: N1_7  and  C5_8 
REMARK    5  A    between atoms: C5_8  and  C6_10 
REMARK    6  A    between atoms: C6_10  and  C7_11 
REMARK    7  A    between atoms: C7_11  and  N2_12 
REMARK       I    between atoms: N2_12  and  C8_13 
REMARK    8  A    between atoms: C8_13  and  C9_15 
REMARK    9  A    between atoms: C9_15  and  C10_16 
REMARK   10  A    between atoms: C9_15  and  O17_54 
REMARK   11  A    between atoms: C10_16  and  C13_19 
REMARK   12  A    between atoms: C13_19  and  O4_20 
REMARK   13  A    between atoms: O4_20  and  P1_21 
REMARK   14  A    between atoms: P1_21  and  O6_23 
REMARK   15  A    between atoms: P1_21  and  O7_24 
REMARK   16  A    between atoms: O7_24  and  P2_25 
REMARK   17  A    between atoms: P2_25  and  O9_27 
REMARK   18  A    between atoms: P2_25  and  O10_28 
REMARK   19  A    between atoms: O10_28  and  C14_29 
REMARK   20  A    between atoms: C14_29  and  C15_30 
REMARK   21  A    between atoms: C16_31  and  O13_49 
REMARK   22  A    between atoms: C17_32  and  O12_48 
REMARK   23  A    between atoms: C18_33  and  N3_35 
REMARK   24  A    between atoms: C21_40  and  N7_47 
REMARK   25  A    between atoms: O13_49  and  P3_50 
REMARK   26  A    between atoms: P3_50  and  O15_52 
REMARK   27  A    between atoms: P3_50  and  O16_53 
ROOT
HETATM    1  C1  UNL     1       4.439  12.497   3.647  1.00  0.00     0.104 C 
HETATM    2  C2  UNL     1       3.923  13.901   3.553  1.00  0.00     0.182 C 
HETATM    3  O1  UNL     1       2.759  14.174   3.268  1.00  0.00    -0.286 OA
ENDROOT
BRANCH   2   4
HETATM    4  S1  UNL     1       5.135  15.140   3.846  1.00  0.00    -0.091 SA
BRANCH   4   5
HETATM    5  C3  UNL     1       4.941  16.146   2.339  1.00  0.00     0.102 C 
BRANCH   5   6
HETATM    6  C4  UNL     1       5.227  15.336   1.073  1.00  0.00     0.133 C 
BRANCH   6   7
HETATM    7  N1  UNL     1       5.627  16.167  -0.044  1.00  0.00    -0.360 N 
HETATM    8  C5  UNL     1       4.719  16.614  -0.975  1.00  0.00     0.219 C 
HETATM    9  O2  UNL     1       3.541  16.275  -0.964  1.00  0.00    -0.274 OA
HETATM   10  H8  UNL     1       6.600  16.428  -0.133  1.00  0.00     0.162 HD
BRANCH   8  11
HETATM   11  C6  UNL     1       5.332  17.513  -2.027  1.00  0.00     0.122 C 
BRANCH  11  12
HETATM   12  C7  UNL     1       6.122  16.718  -3.067  1.00  0.00     0.132 C 
BRANCH  12  13
HETATM   13  N2  UNL     1       7.522  17.083  -3.116  1.00  0.00    -0.358 N 
HETATM   14  C8  UNL     1       8.496  16.150  -2.810  1.00  0.00     0.247 C 
HETATM   15  O3  UNL     1       8.220  15.038  -2.378  1.00  0.00    -0.271 OA
HETATM   16  H13 UNL     1       7.764  17.803  -3.794  1.00  0.00     0.162 HD
BRANCH  14  17
HETATM   17  C9  UNL     1       9.937  16.613  -3.073  1.00  0.00     0.219 C 
BRANCH  17  18
HETATM   18  C10 UNL     1      10.818  16.726  -1.801  1.00  0.00     0.009 C 
HETATM   19  C11 UNL     1      11.939  17.763  -1.965  1.00  0.00     0.020 C 
HETATM   20  C12 UNL     1       9.982  17.121  -0.568  1.00  0.00     0.020 C 
BRANCH  18  21
HETATM   21  C13 UNL     1      11.438  15.316  -1.585  1.00  0.00     0.192 C 
BRANCH  21  22
HETATM   22  O4  UNL     1      11.258  14.845  -0.265  1.00  0.00    -0.296 OA
BRANCH  22  23
HETATM   23  P1  UNL     1      12.366  13.984   0.511  1.00  0.00     0.401 P 
HETATM   24  O5  UNL     1      11.848  13.262   1.714  1.00  0.00    -0.631 OA
BRANCH  23  25
HETATM   25  O6  UNL     1      13.591  14.979   0.828  1.00  0.00    -0.307 OA
HETATM   26  H23 UNL     1      13.475  15.841   0.408  1.00  0.00     0.222 HD
ENDBRANCH  23  25
BRANCH  23  27
HETATM   27  O7  UNL     1      13.010  13.046  -0.601  1.00  0.00    -0.195 OA
BRANCH  27  28
HETATM   28  P2  UNL     1      12.420  11.581  -0.809  1.00  0.00     0.401 P 
HETATM   29  O8  UNL     1      13.146  10.687  -1.760  1.00  0.00    -0.631 OA
BRANCH  28  30
HETATM   30  O9  UNL     1      12.327  11.009   0.679  1.00  0.00    -0.307 OA
HETATM   31  H24 UNL     1      11.460  10.586   0.896  1.00  0.00     0.222 HD
ENDBRANCH  28  30
BRANCH  28  32
HETATM   32  O10 UNL     1      10.875  11.828  -1.126  1.00  0.00    -0.294 OA
BRANCH  32  33
HETATM   33  C14 UNL     1      10.482  12.290  -2.392  1.00  0.00     0.215 C 
BRANCH  33  34
HETATM   34  C15 UNL     1      11.106  11.334  -3.407  1.00  0.00     0.180 C 
HETATM   35  C16 UNL     1      10.800  11.811  -4.820  1.00  0.00     0.197 C 
HETATM   36  C17 UNL     1       9.980  10.693  -5.434  1.00  0.00     0.199 C 
HETATM   37  C18 UNL     1      10.431   9.477  -4.621  1.00  0.00     0.262 C 
HETATM   38  O11 UNL     1      10.619   9.993  -3.284  1.00  0.00    -0.353 OA
BRANCH  35  39
HETATM   39  O13 UNL     1      12.037  12.004  -5.498  1.00  0.00    -0.286 OA
BRANCH  39  40
HETATM   40  P3  UNL     1      12.363  13.511  -5.922  1.00  0.00     0.391 P 
HETATM   41  O14 UNL     1      12.977  14.325  -4.829  1.00  0.00    -0.632 OA
BRANCH  40  42
HETATM   42  O15 UNL     1      10.940  13.978  -6.484  1.00  0.00    -0.307 OA
HETATM   43  H36 UNL     1      10.642  13.386  -7.214  1.00  0.00     0.222 HD
ENDBRANCH  40  42
BRANCH  40  44
HETATM   44  O16 UNL     1      13.218  13.289  -7.244  1.00  0.00    -0.307 OA
HETATM   45  H37 UNL     1      13.494  12.366  -7.363  1.00  0.00     0.222 HD
ENDBRANCH  40  44
ENDBRANCH  39  40
ENDBRANCH  35  39
BRANCH  36  46
HETATM   46  O12 UNL     1      10.183  10.648  -6.849  1.00  0.00    -0.388 OA
HETATM   47  H35 UNL     1       9.604  11.347  -7.235  1.00  0.00     0.210 HD
ENDBRANCH  36  46
BRANCH  37  48
HETATM   48  N3  UNL     1       9.428   8.431  -4.580  1.00  0.00    -0.297 N 
HETATM   49  C19 UNL     1       9.644   7.073  -4.572  1.00  0.00     0.188 A 
HETATM   50  N4  UNL     1       8.531   6.393  -4.403  1.00  0.00    -0.346 N 
HETATM   51  C20 UNL     1       7.546   7.358  -4.291  1.00  0.00     0.116 A 
HETATM   52  H4  UNL     1       8.419   5.380  -4.363  1.00  0.00     0.167 HD
HETATM   53  C21 UNL     1       6.162   7.283  -4.058  1.00  0.00     0.109 A 
HETATM   54  C23 UNL     1       8.082   8.624  -4.439  1.00  0.00     0.142 A 
HETATM   55  N5  UNL     1       5.449   8.435  -4.011  1.00  0.00    -0.341 N 
HETATM   56  C22 UNL     1       6.103   9.599  -4.196  1.00  0.00     0.183 A 
HETATM   57  H5  UNL     1       4.443   8.421  -3.840  1.00  0.00     0.167 HD
HETATM   58  N6  UNL     1       7.420   9.794  -4.417  1.00  0.00    -0.336 N 
HETATM   59  H6  UNL     1       7.855  10.707  -4.550  1.00  0.00     0.168 HD
BRANCH  53  60
HETATM   60  N7  UNL     1       5.482   6.089  -3.882  1.00  0.00    -0.287 NA
HETATM   61  H33 UNL     1       4.733   6.131  -3.193  1.00  0.00     0.125 HD
HETATM   62  H34 UNL     1       6.096   5.287  -3.838  1.00  0.00     0.125 HD
ENDBRANCH  53  60
ENDBRANCH  37  48
ENDBRANCH  33  34
ENDBRANCH  32  33
ENDBRANCH  28  32
ENDBRANCH  27  28
ENDBRANCH  23  27
ENDBRANCH  22  23
ENDBRANCH  21  22
ENDBRANCH  18  21
ENDBRANCH  17  18
BRANCH  17  63
HETATM   63  O17 UNL     1      10.579  15.725  -3.994  1.00  0.00    -0.385 OA
HETATM   64  H38 UNL     1      10.788  16.226  -4.800  1.00  0.00     0.210 HD
ENDBRANCH  17  63
ENDBRANCH  14  17
ENDBRANCH  12  13
ENDBRANCH  11  12
ENDBRANCH   8  11
ENDBRANCH   6   7
ENDBRANCH   5   6
ENDBRANCH   4   5
ENDBRANCH   2   4
TORSDOF 27
ENDMDL
MODEL 12
REMARK VINA RESULT:      -5.0      7.949     10.935
REMARK  27 active torsions:
REMARK  status: ('A' for Active; 'I' for Inactive)
REMARK    1  A    between atoms: C2_2  and  S1_4 
REMARK    2  A    between atoms: S1_4  and  C3_5 
REMARK    3  A    between atoms: C3_5  and  C4_6 
REMARK    4  A    between atoms: C4_6  and  N1_7 
REMARK       I    between atoms: N1_7  and  C5_8 
REMARK    5  A    between atoms: C5_8  and  C6_10 
REMARK    6  A    between atoms: C6_10  and  C7_11 
REMARK    7  A    between atoms: C7_11  and  N2_12 
REMARK       I    between atoms: N2_12  and  C8_13 
REMARK    8  A    between atoms: C8_13  and  C9_15 
REMARK    9  A    between atoms: C9_15  and  C10_16 
REMARK   10  A    between atoms: C9_15  and  O17_54 
REMARK   11  A    between atoms: C10_16  and  C13_19 
REMARK   12  A    between atoms: C13_19  and  O4_20 
REMARK   13  A    between atoms: O4_20  and  P1_21 
REMARK   14  A    between atoms: P1_21  and  O6_23 
REMARK   15  A    between atoms: P1_21  and  O7_24 
REMARK   16  A    between atoms: O7_24  and  P2_25 
REMARK   17  A    between atoms: P2_25  and  O9_27 
REMARK   18  A    between atoms: P2_25  and  O10_28 
REMARK   19  A    between atoms: O10_28  and  C14_29 
REMARK   20  A    between atoms: C14_29  and  C15_30 
REMARK   21  A    between atoms: C16_31  and  O13_49 
REMARK   22  A    between atoms: C17_32  and  O12_48 
REMARK   23  A    between atoms: C18_33  and  N3_35 
REMARK   24  A    between atoms: C21_40  and  N7_47 
REMARK   25  A    between atoms: O13_49  and  P3_50 
REMARK   26  A    between atoms: P3_50  and  O15_52 
REMARK   27  A    between atoms: P3_50  and  O16_53 
ROOT
HETATM    1  C1  UNL     1       5.954   6.822  -1.947  1.00  0.00     0.104 C 
HETATM    2  C2  UNL     1       7.086   6.831  -2.928  1.00  0.00     0.182 C 
HETATM    3  O1  UNL     1       7.825   5.867  -3.114  1.00  0.00    -0.286 OA
ENDROOT
BRANCH   2   4
HETATM    4  S1  UNL     1       7.300   8.358  -3.774  1.00  0.00    -0.091 SA
BRANCH   4   5
HETATM    5  C3  UNL     1       5.611   8.618  -4.404  1.00  0.00     0.102 C 
BRANCH   5   6
HETATM    6  C4  UNL     1       4.840   9.637  -3.563  1.00  0.00     0.133 C 
BRANCH   6   7
HETATM    7  N1  UNL     1       5.260  11.001  -3.812  1.00  0.00    -0.360 N 
HETATM    8  C5  UNL     1       4.441  11.906  -4.446  1.00  0.00     0.219 C 
HETATM    9  O2  UNL     1       3.349  11.598  -4.908  1.00  0.00    -0.274 OA
HETATM   10  H8  UNL     1       6.177  11.291  -3.502  1.00  0.00     0.162 HD
BRANCH   8  11
HETATM   11  C6  UNL     1       5.048  13.288  -4.557  1.00  0.00     0.122 C 
BRANCH  11  12
HETATM   12  C7  UNL     1       3.981  14.368  -4.734  1.00  0.00     0.132 C 
BRANCH  12  13
HETATM   13  N2  UNL     1       2.985  14.024  -5.727  1.00  0.00    -0.358 N 
HETATM   14  C8  UNL     1       2.605  14.949  -6.682  1.00  0.00     0.247 C 
HETATM   15  O3  UNL     1       2.996  16.109  -6.657  1.00  0.00    -0.271 OA
HETATM   16  H13 UNL     1       2.950  13.042  -5.990  1.00  0.00     0.162 HD
BRANCH  14  17
HETATM   17  C9  UNL     1       1.678  14.401  -7.776  1.00  0.00     0.219 C 
BRANCH  17  18
HETATM   18  C10 UNL     1       0.425  15.273  -8.054  1.00  0.00     0.009 C 
HETATM   19  C11 UNL     1      -0.739  14.449  -8.624  1.00  0.00     0.020 C 
HETATM   20  C12 UNL     1      -0.071  15.974  -6.774  1.00  0.00     0.020 C 
BRANCH  18  21
HETATM   21  C13 UNL     1       0.871  16.339  -9.097  1.00  0.00     0.192 C 
BRANCH  21  22
HETATM   22  O4  UNL     1       0.220  16.179 -10.341  1.00  0.00    -0.296 OA
BRANCH  22  23
HETATM   23  P1  UNL     1       1.000  15.798 -11.689  1.00  0.00     0.401 P 
HETATM   24  O5  UNL     1       2.486  15.720 -11.535  1.00  0.00    -0.631 OA
BRANCH  23  25
HETATM   25  O6  UNL     1       0.519  16.842 -12.816  1.00  0.00    -0.307 OA
HETATM   26  H23 UNL     1      -0.440  16.952 -12.821  1.00  0.00     0.222 HD
ENDBRANCH  23  25
BRANCH  23  27
HETATM   27  O7  UNL     1       0.313  14.457 -12.197  1.00  0.00    -0.195 OA
BRANCH  27  28
HETATM   28  P2  UNL     1       0.632  13.937 -13.669  1.00  0.00     0.401 P 
HETATM   29  O8  UNL     1       0.125  14.766 -14.804  1.00  0.00    -0.631 OA
BRANCH  28  30
HETATM   30  O9  UNL     1       2.218  13.752 -13.656  1.00  0.00    -0.307 OA
HETATM   31  H24 UNL     1       2.562  13.172 -14.380  1.00  0.00     0.222 HD
ENDBRANCH  28  30
BRANCH  28  32
HETATM   32  O10 UNL     1       0.158  12.412 -13.652  1.00  0.00    -0.294 OA
BRANCH  32  33
HETATM   33  C14 UNL     1      -0.581  11.919 -12.565  1.00  0.00     0.215 C 
BRANCH  33  34
HETATM   34  C15 UNL     1       0.024  10.560 -12.220  1.00  0.00     0.180 C 
HETATM   35  C16 UNL     1      -1.085   9.569 -11.893  1.00  0.00     0.197 C 
HETATM   36  C17 UNL     1      -0.838   9.178 -10.448  1.00  0.00     0.199 C 
HETATM   37  C18 UNL     1       0.664   9.431 -10.298  1.00  0.00     0.262 C 
HETATM   38  O11 UNL     1       0.908  10.611 -11.094  1.00  0.00    -0.353 OA
BRANCH  35  39
HETATM   39  O13 UNL     1      -0.962   8.461 -12.778  1.00  0.00    -0.286 OA
BRANCH  39  40
HETATM   40  P3  UNL     1      -2.330   7.930 -13.413  1.00  0.00     0.391 P 
HETATM   41  O14 UNL     1      -2.625   8.493 -14.766  1.00  0.00    -0.632 OA
BRANCH  40  42
HETATM   42  O15 UNL     1      -3.357   8.264 -12.232  1.00  0.00    -0.307 OA
HETATM   43  H36 UNL     1      -3.241   7.635 -11.481  1.00  0.00     0.222 HD
ENDBRANCH  40  42
BRANCH  40  44
HETATM   44  O16 UNL     1      -2.143   6.356 -13.295  1.00  0.00    -0.307 OA
HETATM   45  H37 UNL     1      -2.181   5.907 -14.154  1.00  0.00     0.222 HD
ENDBRANCH  40  44
ENDBRANCH  39  40
ENDBRANCH  35  39
BRANCH  36  46
HETATM   46  O12 UNL     1      -1.308   7.849 -10.207  1.00  0.00    -0.388 OA
HETATM   47  H35 UNL     1      -1.385   7.417 -11.091  1.00  0.00     0.210 HD
ENDBRANCH  36  46
BRANCH  37  48
HETATM   48  N3  UNL     1       1.047   9.705  -8.927  1.00  0.00    -0.297 N 
HETATM   49  C19 UNL     1       1.798  10.763  -8.470  1.00  0.00     0.188 A 
HETATM   50  N4  UNL     1       1.863  10.797  -7.157  1.00  0.00    -0.346 N 
HETATM   51  C20 UNL     1       1.114   9.710  -6.742  1.00  0.00     0.116 A 
HETATM   52  H4  UNL     1       2.356  11.473  -6.574  1.00  0.00     0.167 HD
HETATM   53  C21 UNL     1       0.763   9.224  -5.470  1.00  0.00     0.109 A 
HETATM   54  C23 UNL     1       0.636   9.002  -7.829  1.00  0.00     0.142 A 
HETATM   55  N5  UNL     1       0.007   8.102  -5.390  1.00  0.00    -0.341 N 
HETATM   56  C22 UNL     1      -0.368   7.502  -6.538  1.00  0.00     0.183 A 
HETATM   57  H5  UNL     1      -0.270   7.722  -4.485  1.00  0.00     0.167 HD
HETATM   58  N6  UNL     1      -0.102   7.878  -7.805  1.00  0.00    -0.336 N 
HETATM   59  H6  UNL     1      -0.418   7.376  -8.636  1.00  0.00     0.168 HD
BRANCH  53  60
HETATM   60  N7  UNL     1       1.159   9.828  -4.288  1.00  0.00    -0.287 NA
HETATM   61  H33 UNL     1       0.913   9.308  -3.449  1.00  0.00     0.125 HD
HETATM   62  H34 UNL     1       0.982  10.824  -4.275  1.00  0.00     0.125 HD
ENDBRANCH  53  60
ENDBRANCH  37  48
ENDBRANCH  33  34
ENDBRANCH  32  33
ENDBRANCH  28  32
ENDBRANCH  27  28
ENDBRANCH  23  27
ENDBRANCH  22  23
ENDBRANCH  21  22
ENDBRANCH  18  21
ENDBRANCH  17  18
BRANCH  17  63
HETATM   63  O17 UNL     1       2.402  14.242  -9.001  1.00  0.00    -0.385 OA
HETATM   64  H38 UNL     1       2.248  13.339  -9.327  1.00  0.00     0.210 HD
ENDBRANCH  17  63
ENDBRANCH  14  17
ENDBRANCH  12  13
ENDBRANCH  11  12
ENDBRANCH   8  11
ENDBRANCH   6   7
ENDBRANCH   5   6
ENDBRANCH   4   5
ENDBRANCH   2   4
TORSDOF 27
ENDMDL
MODEL 13
REMARK VINA RESULT:      -4.9      8.220     11.220
REMARK  27 active torsions:
REMARK  status: ('A' for Active; 'I' for Inactive)
REMARK    1  A    between atoms: C2_2  and  S1_4 
REMARK    2  A    between atoms: S1_4  and  C3_5 
REMARK    3  A    between atoms: C3_5  and  C4_6 
REMARK    4  A    between atoms: C4_6  and  N1_7 
REMARK       I    between atoms: N1_7  and  C5_8 
REMARK    5  A    between atoms: C5_8  and  C6_10 
REMARK    6  A    between atoms: C6_10  and  C7_11 
REMARK    7  A    between atoms: C7_11  and  N2_12 
REMARK       I    between atoms: N2_12  and  C8_13 
REMARK    8  A    between atoms: C8_13  and  C9_15 
REMARK    9  A    between atoms: C9_15  and  C10_16 
REMARK   10  A    between atoms: C9_15  and  O17_54 
REMARK   11  A    between atoms: C10_16  and  C13_19 
REMARK   12  A    between atoms: C13_19  and  O4_20 
REMARK   13  A    between atoms: O4_20  and  P1_21 
REMARK   14  A    between atoms: P1_21  and  O6_23 
REMARK   15  A    between atoms: P1_21  and  O7_24 
REMARK   16  A    between atoms: O7_24  and  P2_25 
REMARK   17  A    between atoms: P2_25  and  O9_27 
REMARK   18  A    between atoms: P2_25  and  O10_28 
REMARK   19  A    between atoms: O10_28  and  C14_29 
REMARK   20  A    between atoms: C14_29  and  C15_30 
REMARK   21  A    between atoms: C16_31  and  O13_49 
REMARK   22  A    between atoms: C17_32  and  O12_48 
REMARK   23  A    between atoms: C18_33  and  N3_35 
REMARK   24  A    between atoms: C21_40  and  N7_47 
REMARK   25  A    between atoms: O13_49  and  P3_50 
REMARK   26  A    between atoms: P3_50  and  O15_52 
REMARK   27  A    between atoms: P3_50  and  O16_53 
ROOT
HETATM    1  C1  UNL     1       5.955   6.784  -1.947  1.00  0.00     0.104 C 
HETATM    2  C2  UNL     1       7.093   6.757  -2.921  1.00  0.00     0.182 C 
HETATM    3  O1  UNL     1       7.826   5.783  -3.075  1.00  0.00    -0.286 OA
ENDROOT
BRANCH   2   4
HETATM    4  S1  UNL     1       7.324   8.257  -3.809  1.00  0.00    -0.091 SA
BRANCH   4   5
HETATM    5  C3  UNL     1       5.647   8.499  -4.478  1.00  0.00     0.102 C 
BRANCH   5   6
HETATM    6  C4  UNL     1       4.853   9.526  -3.669  1.00  0.00     0.133 C 
BRANCH   6   7
HETATM    7  N1  UNL     1       5.357  10.875  -3.828  1.00  0.00    -0.360 N 
HETATM    8  C5  UNL     1       4.547  11.907  -4.240  1.00  0.00     0.219 C 
HETATM    9  O2  UNL     1       3.380  11.737  -4.573  1.00  0.00    -0.274 OA
HETATM   10  H8  UNL     1       6.330  11.058  -3.622  1.00  0.00     0.162 HD
BRANCH   8  11
HETATM   11  C6  UNL     1       5.256  13.243  -4.287  1.00  0.00     0.122 C 
BRANCH  11  12
HETATM   12  C7  UNL     1       4.322  14.370  -4.729  1.00  0.00     0.132 C 
BRANCH  12  13
HETATM   13  N2  UNL     1       3.327  13.939  -5.688  1.00  0.00    -0.358 N 
HETATM   14  C8  UNL     1       2.747  14.853  -6.548  1.00  0.00     0.247 C 
HETATM   15  O3  UNL     1       2.956  16.056  -6.458  1.00  0.00    -0.271 OA
HETATM   16  H13 UNL     1       3.426  12.983  -6.022  1.00  0.00     0.162 HD
BRANCH  14  17
HETATM   17  C9  UNL     1       1.843  14.238  -7.627  1.00  0.00     0.219 C 
BRANCH  17  18
HETATM   18  C10 UNL     1       0.478  14.953  -7.807  1.00  0.00     0.009 C 
HETATM   19  C11 UNL     1      -0.489  14.141  -8.681  1.00  0.00     0.020 C 
HETATM   20  C12 UNL     1      -0.208  15.210  -6.450  1.00  0.00     0.020 C 
BRANCH  18  21
HETATM   21  C13 UNL     1       0.795  16.309  -8.500  1.00  0.00     0.192 C 
BRANCH  21  22
HETATM   22  O4  UNL     1       0.308  16.363  -9.826  1.00  0.00    -0.296 OA
BRANCH  22  23
HETATM   23  P1  UNL     1       1.271  16.405 -11.107  1.00  0.00     0.401 P 
HETATM   24  O5  UNL     1       2.730  16.440 -10.774  1.00  0.00    -0.631 OA
BRANCH  23  25
HETATM   25  O6  UNL     1       0.783  17.641 -12.016  1.00  0.00    -0.307 OA
HETATM   26  H23 UNL     1       0.336  17.345 -12.819  1.00  0.00     0.222 HD
ENDBRANCH  23  25
BRANCH  23  27
HETATM   27  O7  UNL     1       0.822  15.168 -12.000  1.00  0.00    -0.195 OA
BRANCH  27  28
HETATM   28  P2  UNL     1       1.556  14.916 -13.391  1.00  0.00     0.401 P 
HETATM   29  O8  UNL     1       1.632  16.071 -14.336  1.00  0.00    -0.631 OA
BRANCH  28  30
HETATM   30  O9  UNL     1       2.979  14.337 -12.955  1.00  0.00    -0.307 OA
HETATM   31  H24 UNL     1       3.663  14.368 -13.668  1.00  0.00     0.222 HD
ENDBRANCH  28  30
BRANCH  28  32
HETATM   32  O10 UNL     1       0.864  13.594 -13.960  1.00  0.00    -0.294 OA
BRANCH  32  33
HETATM   33  C14 UNL     1      -0.536  13.484 -13.970  1.00  0.00     0.215 C 
BRANCH  33  34
HETATM   34  C15 UNL     1      -0.856  12.071 -13.487  1.00  0.00     0.180 C 
HETATM   35  C16 UNL     1      -2.078  12.101 -12.579  1.00  0.00     0.197 C 
HETATM   36  C17 UNL     1      -1.572  11.611 -11.235  1.00  0.00     0.199 C 
HETATM   37  C18 UNL     1      -0.363  10.762 -11.637  1.00  0.00     0.262 C 
HETATM   38  O11 UNL     1       0.219  11.475 -12.751  1.00  0.00    -0.353 OA
BRANCH  35  39
HETATM   39  O13 UNL     1      -3.061  11.232 -13.132  1.00  0.00    -0.286 OA
BRANCH  39  40
HETATM   40  P3  UNL     1      -4.463  11.914 -13.486  1.00  0.00     0.391 P 
HETATM   41  O14 UNL     1      -4.358  13.029 -14.475  1.00  0.00    -0.632 OA
BRANCH  40  42
HETATM   42  O15 UNL     1      -5.001  12.270 -12.023  1.00  0.00    -0.307 OA
HETATM   43  H36 UNL     1      -5.155  11.448 -11.498  1.00  0.00     0.222 HD
ENDBRANCH  40  42
BRANCH  40  44
HETATM   44  O16 UNL     1      -5.335  10.648 -13.894  1.00  0.00    -0.307 OA
HETATM   45  H37 UNL     1      -5.499  10.048 -13.149  1.00  0.00     0.222 HD
ENDBRANCH  40  44
ENDBRANCH  39  40
ENDBRANCH  35  39
BRANCH  36  46
HETATM   46  O12 UNL     1      -2.623  10.958 -10.518  1.00  0.00    -0.388 OA
HETATM   47  H35 UNL     1      -2.559  11.274  -9.585  1.00  0.00     0.210 HD
ENDBRANCH  36  46
BRANCH  37  48
HETATM   48  N3  UNL     1       0.624  10.665 -10.580  1.00  0.00    -0.297 N 
HETATM   49  C19 UNL     1       1.779  11.400 -10.450  1.00  0.00     0.188 A 
HETATM   50  N4  UNL     1       2.396  11.163  -9.314  1.00  0.00    -0.346 N 
HETATM   51  C20 UNL     1       1.600  10.230  -8.672  1.00  0.00     0.116 A 
HETATM   52  H4  UNL     1       3.268  11.574  -8.979  1.00  0.00     0.167 HD
HETATM   53  C21 UNL     1       1.686   9.608  -7.415  1.00  0.00     0.109 A 
HETATM   54  C23 UNL     1       0.519   9.884  -9.462  1.00  0.00     0.142 A 
HETATM   55  N5  UNL     1       0.733   8.708  -7.069  1.00  0.00    -0.341 N 
HETATM   56  C22 UNL     1      -0.252   8.451  -7.953  1.00  0.00     0.183 A 
HETATM   57  H5  UNL     1       0.760   8.239  -6.164  1.00  0.00     0.167 HD
HETATM   58  N6  UNL     1      -0.443   8.989  -9.175  1.00  0.00    -0.336 N 
HETATM   59  H6  UNL     1      -1.214   8.749  -9.799  1.00  0.00     0.168 HD
BRANCH  53  60
HETATM   60  N7  UNL     1       2.705   9.857  -6.509  1.00  0.00    -0.287 NA
HETATM   61  H33 UNL     1       3.411  10.510  -6.842  1.00  0.00     0.125 HD
HETATM   62  H34 UNL     1       3.038   9.021  -6.049  1.00  0.00     0.125 HD
ENDBRANCH  53  60
ENDBRANCH  37  48
ENDBRANCH  33  34
ENDBRANCH  32  33
ENDBRANCH  28  32
ENDBRANCH  27  28
ENDBRANCH  23  27
ENDBRANCH  22  23
ENDBRANCH  21  22
ENDBRANCH  18  21
ENDBRANCH  17  18
BRANCH  17  63
HETATM   63  O17 UNL     1       2.520  14.227  -8.889  1.00  0.00    -0.385 OA
HETATM   64  H38 UNL     1       3.397  14.629  -8.765  1.00  0.00     0.210 HD
ENDBRANCH  17  63
ENDBRANCH  14  17
ENDBRANCH  12  13
ENDBRANCH  11  12
ENDBRANCH   8  11
ENDBRANCH   6   7
ENDBRANCH   5   6
ENDBRANCH   4   5
ENDBRANCH   2   4
TORSDOF 27
ENDMDL
MODEL 14
REMARK VINA RESULT:      -4.9      8.619     11.613
REMARK  27 active torsions:
REMARK  status: ('A' for Active; 'I' for Inactive)
REMARK    1  A    between atoms: C2_2  and  S1_4 
REMARK    2  A    between atoms: S1_4  and  C3_5 
REMARK    3  A    between atoms: C3_5  and  C4_6 
REMARK    4  A    between atoms: C4_6  and  N1_7 
REMARK       I    between atoms: N1_7  and  C5_8 
REMARK    5  A    between atoms: C5_8  and  C6_10 
REMARK    6  A    between atoms: C6_10  and  C7_11 
REMARK    7  A    between atoms: C7_11  and  N2_12 
REMARK       I    between atoms: N2_12  and  C8_13 
REMARK    8  A    between atoms: C8_13  and  C9_15 
REMARK    9  A    between atoms: C9_15  and  C10_16 
REMARK   10  A    between atoms: C9_15  and  O17_54 
REMARK   11  A    between atoms: C10_16  and  C13_19 
REMARK   12  A    between atoms: C13_19  and  O4_20 
REMARK   13  A    between atoms: O4_20  and  P1_21 
REMARK   14  A    between atoms: P1_21  and  O6_23 
REMARK   15  A    between atoms: P1_21  and  O7_24 
REMARK   16  A    between atoms: O7_24  and  P2_25 
REMARK   17  A    between atoms: P2_25  and  O9_27 
REMARK   18  A    between atoms: P2_25  and  O10_28 
REMARK   19  A    between atoms: O10_28  and  C14_29 
REMARK   20  A    between atoms: C14_29  and  C15_30 
REMARK   21  A    between atoms: C16_31  and  O13_49 
REMARK   22  A    between atoms: C17_32  and  O12_48 
REMARK   23  A    between atoms: C18_33  and  N3_35 
REMARK   24  A    between atoms: C21_40  and  N7_47 
REMARK   25  A    between atoms: O13_49  and  P3_50 
REMARK   26  A    between atoms: P3_50  and  O15_52 
REMARK   27  A    between atoms: P3_50  and  O16_53 
ROOT
HETATM    1  C1  UNL     1      11.497  12.240  -6.058  1.00  0.00     0.104 C 
HETATM    2  C2  UNL     1      10.054  12.061  -5.697  1.00  0.00     0.182 C 
HETATM    3  O1  UNL     1       9.491  10.970  -5.693  1.00  0.00    -0.286 OA
ENDROOT
BRANCH   2   4
HETATM    4  S1  UNL     1       9.211  13.556  -5.314  1.00  0.00    -0.091 SA
BRANCH   4   5
HETATM    5  C3  UNL     1       7.687  12.888  -4.574  1.00  0.00     0.102 C 
BRANCH   5   6
HETATM    6  C4  UNL     1       6.556  13.918  -4.571  1.00  0.00     0.133 C 
BRANCH   6   7
HETATM    7  N1  UNL     1       5.242  13.307  -4.584  1.00  0.00    -0.360 N 
HETATM    8  C5  UNL     1       4.119  14.013  -4.946  1.00  0.00     0.219 C 
HETATM    9  O2  UNL     1       4.146  15.212  -5.198  1.00  0.00    -0.274 OA
HETATM   10  H8  UNL     1       5.157  12.333  -4.328  1.00  0.00     0.162 HD
BRANCH   8  11
HETATM   11  C6  UNL     1       2.859  13.175  -4.947  1.00  0.00     0.122 C 
BRANCH  11  12
HETATM   12  C7  UNL     1       2.343  12.922  -6.363  1.00  0.00     0.132 C 
BRANCH  12  13
HETATM   13  N2  UNL     1       2.078  14.141  -7.097  1.00  0.00    -0.358 N 
HETATM   14  C8  UNL     1       1.114  14.163  -8.088  1.00  0.00     0.247 C 
HETATM   15  O3  UNL     1       0.541  13.147  -8.461  1.00  0.00    -0.271 OA
HETATM   16  H13 UNL     1       2.236  15.005  -6.583  1.00  0.00     0.162 HD
BRANCH  14  17
HETATM   17  C9  UNL     1       0.811  15.555  -8.662  1.00  0.00     0.219 C 
BRANCH  17  18
HETATM   18  C10 UNL     1       1.703  15.963  -9.864  1.00  0.00     0.009 C 
HETATM   19  C11 UNL     1       2.936  16.766  -9.423  1.00  0.00     0.020 C 
HETATM   20  C12 UNL     1       2.196  14.729 -10.646  1.00  0.00     0.020 C 
BRANCH  18  21
HETATM   21  C13 UNL     1       0.807  16.842 -10.782  1.00  0.00     0.192 C 
BRANCH  21  22
HETATM   22  O4  UNL     1       0.356  16.142 -11.924  1.00  0.00    -0.296 OA
BRANCH  22  23
HETATM   23  P1  UNL     1      -1.191  16.055 -12.337  1.00  0.00     0.401 P 
HETATM   24  O5  UNL     1      -1.453  16.311 -13.788  1.00  0.00    -0.631 OA
BRANCH  23  25
HETATM   25  O6  UNL     1      -1.993  17.041 -11.349  1.00  0.00    -0.307 OA
HETATM   26  H23 UNL     1      -2.894  17.205 -11.655  1.00  0.00     0.222 HD
ENDBRANCH  23  25
BRANCH  23  27
HETATM   27  O7  UNL     1      -1.676  14.633 -11.815  1.00  0.00    -0.195 OA
BRANCH  27  28
HETATM   28  P2  UNL     1      -3.181  14.466 -11.320  1.00  0.00     0.401 P 
HETATM   29  O8  UNL     1      -3.458  14.769  -9.883  1.00  0.00    -0.631 OA
BRANCH  28  30
HETATM   30  O9  UNL     1      -4.007  15.369 -12.346  1.00  0.00    -0.307 OA
HETATM   31  H24 UNL     1      -3.986  15.041 -13.278  1.00  0.00     0.222 HD
ENDBRANCH  28  30
BRANCH  28  32
HETATM   32  O10 UNL     1      -3.592  13.005 -11.817  1.00  0.00    -0.294 OA
BRANCH  32  33
HETATM   33  C14 UNL     1      -3.311  11.887 -11.017  1.00  0.00     0.215 C 
BRANCH  33  34
HETATM   34  C15 UNL     1      -2.241  11.089 -11.760  1.00  0.00     0.180 C 
HETATM   35  C16 UNL     1      -2.564   9.602 -11.688  1.00  0.00     0.197 C 
HETATM   36  C17 UNL     1      -1.395   8.991 -10.938  1.00  0.00     0.199 C 
HETATM   37  C18 UNL     1      -0.271   9.990 -11.223  1.00  0.00     0.262 C 
HETATM   38  O11 UNL     1      -0.928  11.276 -11.220  1.00  0.00    -0.353 OA
BRANCH  35  39
HETATM   39  O13 UNL     1      -2.665   9.107 -13.019  1.00  0.00    -0.286 OA
BRANCH  39  40
HETATM   40  P3  UNL     1      -4.068   8.443 -13.403  1.00  0.00     0.391 P 
HETATM   41  O14 UNL     1      -5.231   9.373 -13.270  1.00  0.00    -0.632 OA
BRANCH  40  42
HETATM   42  O15 UNL     1      -4.049   7.143 -12.471  1.00  0.00    -0.307 OA
HETATM   43  H36 UNL     1      -4.911   6.666 -12.520  1.00  0.00     0.222 HD
ENDBRANCH  40  42
BRANCH  40  44
HETATM   44  O16 UNL     1      -3.755   7.858 -14.848  1.00  0.00    -0.307 OA
HETATM   45  H37 UNL     1      -3.416   6.949 -14.820  1.00  0.00     0.222 HD
ENDBRANCH  40  44
ENDBRANCH  39  40
ENDBRANCH  35  39
BRANCH  36  46
HETATM   46  O12 UNL     1      -1.193   7.638 -11.354  1.00  0.00    -0.388 OA
HETATM   47  H35 UNL     1      -0.313   7.613 -11.800  1.00  0.00     0.210 HD
ENDBRANCH  36  46
BRANCH  37  48
HETATM   48  N3  UNL     1       0.751   9.985 -10.196  1.00  0.00    -0.297 N 
HETATM   49  C19 UNL     1       1.934  10.687 -10.197  1.00  0.00     0.188 A 
HETATM   50  N4  UNL     1       2.585  10.568  -9.061  1.00  0.00    -0.346 N 
HETATM   51  C20 UNL     1       1.783   9.752  -8.282  1.00  0.00     0.116 A 
HETATM   52  H4  UNL     1       3.482  10.984  -8.809  1.00  0.00     0.167 HD
HETATM   53  C21 UNL     1       1.895   9.286  -6.961  1.00  0.00     0.109 A 
HETATM   54  C23 UNL     1       0.662   9.353  -8.987  1.00  0.00     0.142 A 
HETATM   55  N5  UNL     1       0.926   8.473  -6.475  1.00  0.00    -0.341 N 
HETATM   56  C22 UNL     1      -0.100   8.147  -7.287  1.00  0.00     0.183 A 
HETATM   57  H5  UNL     1       0.971   8.118  -5.520  1.00  0.00     0.167 HD
HETATM   58  N6  UNL     1      -0.318   8.537  -8.559  1.00  0.00    -0.336 N 
HETATM   59  H6  UNL     1      -1.119   8.252  -9.122  1.00  0.00     0.168 HD
BRANCH  53  60
HETATM   60  N7  UNL     1       2.955   9.607  -6.127  1.00  0.00    -0.287 NA
HETATM   61  H33 UNL     1       3.184   8.887  -5.445  1.00  0.00     0.125 HD
HETATM   62  H34 UNL     1       2.917  10.559  -5.789  1.00  0.00     0.125 HD
ENDBRANCH  53  60
ENDBRANCH  37  48
ENDBRANCH  33  34
ENDBRANCH  32  33
ENDBRANCH  28  32
ENDBRANCH  27  28
ENDBRANCH  23  27
ENDBRANCH  22  23
ENDBRANCH  21  22
ENDBRANCH  18  21
ENDBRANCH  17  18
BRANCH  17  63
HETATM   63  O17 UNL     1      -0.560  15.633  -9.067  1.00  0.00    -0.385 OA
HETATM   64  H38 UNL     1      -0.826  16.568  -9.051  1.00  0.00     0.210 HD
ENDBRANCH  17  63
ENDBRANCH  14  17
ENDBRANCH  12  13
ENDBRANCH  11  12
ENDBRANCH   8  11
ENDBRANCH   6   7
ENDBRANCH   5   6
ENDBRANCH   4   5
ENDBRANCH   2   4
TORSDOF 27
ENDMDL
MODEL 15
REMARK VINA RESULT:      -4.9     10.579     13.691
REMARK  27 active torsions:
REMARK  status: ('A' for Active; 'I' for Inactive)
REMARK    1  A    between atoms: C2_2  and  S1_4 
REMARK    2  A    between atoms: S1_4  and  C3_5 
REMARK    3  A    between atoms: C3_5  and  C4_6 
REMARK    4  A    between atoms: C4_6  and  N1_7 
REMARK       I    between atoms: N1_7  and  C5_8 
REMARK    5  A    between atoms: C5_8  and  C6_10 
REMARK    6  A    between atoms: C6_10  and  C7_11 
REMARK    7  A    between atoms: C7_11  and  N2_12 
REMARK       I    between atoms: N2_12  and  C8_13 
REMARK    8  A    between atoms: C8_13  and  C9_15 
REMARK    9  A    between atoms: C9_15  and  C10_16 
REMARK   10  A    between atoms: C9_15  and  O17_54 
REMARK   11  A    between atoms: C10_16  and  C13_19 
REMARK   12  A    between atoms: C13_19  and  O4_20 
REMARK   13  A    between atoms: O4_20  and  P1_21 
REMARK   14  A    between atoms: P1_21  and  O6_23 
REMARK   15  A    between atoms: P1_21  and  O7_24 
REMARK   16  A    between atoms: O7_24  and  P2_25 
REMARK   17  A    between atoms: P2_25  and  O9_27 
REMARK   18  A    between atoms: P2_25  and  O10_28 
REMARK   19  A    between atoms: O10_28  and  C14_29 
REMARK   20  A    between atoms: C14_29  and  C15_30 
REMARK   21  A    between atoms: C16_31  and  O13_49 
REMARK   22  A    between atoms: C17_32  and  O12_48 
REMARK   23  A    between atoms: C18_33  and  N3_35 
REMARK   24  A    between atoms: C21_40  and  N7_47 
REMARK   25  A    between atoms: O13_49  and  P3_50 
REMARK   26  A    between atoms: P3_50  and  O15_52 
REMARK   27  A    between atoms: P3_50  and  O16_53 
ROOT
HETATM    1  C1  UNL     1       7.136  16.700  -1.987  1.00  0.00     0.104 C 
HETATM    2  C2  UNL     1       7.481  16.764  -3.444  1.00  0.00     0.182 C 
HETATM    3  O1  UNL     1       6.916  17.512  -4.239  1.00  0.00    -0.286 OA
ENDROOT
BRANCH   2   4
HETATM    4  S1  UNL     1       8.742  15.644  -3.940  1.00  0.00    -0.091 SA
BRANCH   4   5
HETATM    5  C3  UNL     1       7.748  14.423  -4.858  1.00  0.00     0.102 C 
BRANCH   5   6
HETATM    6  C4  UNL     1       6.831  13.622  -3.931  1.00  0.00     0.133 C 
BRANCH   6   7
HETATM    7  N1  UNL     1       5.588  13.239  -4.568  1.00  0.00    -0.360 N 
HETATM    8  C5  UNL     1       4.476  14.050  -4.533  1.00  0.00     0.219 C 
HETATM    9  O2  UNL     1       4.444  15.098  -3.899  1.00  0.00    -0.274 OA
HETATM   10  H8  UNL     1       5.543  12.355  -5.056  1.00  0.00     0.162 HD
BRANCH   8  11
HETATM   11  C6  UNL     1       3.302  13.490  -5.306  1.00  0.00     0.122 C 
BRANCH  11  12
HETATM   12  C7  UNL     1       3.021  12.032  -4.941  1.00  0.00     0.132 C 
BRANCH  12  13
HETATM   13  N2  UNL     1       2.013  11.421  -5.782  1.00  0.00    -0.358 N 
HETATM   14  C8  UNL     1       2.178  10.126  -6.238  1.00  0.00     0.247 C 
HETATM   15  O3  UNL     1       3.212   9.497  -6.055  1.00  0.00    -0.271 OA
HETATM   16  H13 UNL     1       1.060  11.743  -5.627  1.00  0.00     0.162 HD
BRANCH  14  17
HETATM   17  C9  UNL     1       0.960   9.540  -6.967  1.00  0.00     0.219 C 
BRANCH  17  18
HETATM   18  C10 UNL     1       1.002   9.690  -8.511  1.00  0.00     0.009 C 
HETATM   19  C11 UNL     1       2.346   9.236  -9.099  1.00  0.00     0.020 C 
HETATM   20  C12 UNL     1      -0.115   8.870  -9.189  1.00  0.00     0.020 C 
BRANCH  18  21
HETATM   21  C13 UNL     1       0.790  11.204  -8.799  1.00  0.00     0.192 C 
BRANCH  21  22
HETATM   22  O4  UNL     1      -0.103  11.428  -9.871  1.00  0.00    -0.296 OA
BRANCH  22  23
HETATM   23  P1  UNL     1       0.353  12.078 -11.264  1.00  0.00     0.401 P 
HETATM   24  O5  UNL     1       1.682  12.764 -11.212  1.00  0.00    -0.631 OA
BRANCH  23  25
HETATM   25  O6  UNL     1      -0.850  13.031 -11.749  1.00  0.00    -0.307 OA
HETATM   26  H23 UNL     1      -1.131  12.829 -12.651  1.00  0.00     0.222 HD
ENDBRANCH  23  25
BRANCH  23  27
HETATM   27  O7  UNL     1       0.256  10.894 -12.322  1.00  0.00    -0.195 OA
BRANCH  27  28
HETATM   28  P2  UNL     1      -0.529  11.143 -13.686  1.00  0.00     0.401 P 
HETATM   29  O8  UNL     1      -0.160  12.363 -14.466  1.00  0.00    -0.631 OA
BRANCH  28  30
HETATM   30  O9  UNL     1      -0.324   9.774 -14.481  1.00  0.00    -0.307 OA
HETATM   31  H24 UNL     1       0.623   9.535 -14.635  1.00  0.00     0.222 HD
ENDBRANCH  28  30
BRANCH  28  32
HETATM   32  O10 UNL     1      -2.067  11.017 -13.275  1.00  0.00    -0.294 OA
BRANCH  32  33
HETATM   33  C14 UNL     1      -2.695   9.761 -13.283  1.00  0.00     0.215 C 
BRANCH  33  34
HETATM   34  C15 UNL     1      -4.196  10.035 -13.196  1.00  0.00     0.180 C 
HETATM   35  C16 UNL     1      -4.589  10.293 -11.748  1.00  0.00     0.197 C 
HETATM   36  C17 UNL     1      -5.560   9.177 -11.408  1.00  0.00     0.199 C 
HETATM   37  C18 UNL     1      -6.119   8.806 -12.784  1.00  0.00     0.262 C 
HETATM   38  O11 UNL     1      -4.991   8.945 -13.676  1.00  0.00    -0.353 OA
BRANCH  35  39
HETATM   39  O13 UNL     1      -5.202  11.576 -11.679  1.00  0.00    -0.286 OA
BRANCH  39  40
HETATM   40  P3  UNL     1      -4.651  12.542 -10.530  1.00  0.00     0.391 P 
HETATM   41  O14 UNL     1      -5.450  12.492  -9.267  1.00  0.00    -0.632 OA
BRANCH  40  42
HETATM   42  O15 UNL     1      -4.591  13.936 -11.313  1.00  0.00    -0.307 OA
HETATM   43  H36 UNL     1      -4.297  14.661 -10.712  1.00  0.00     0.222 HD
ENDBRANCH  40  42
BRANCH  40  44
HETATM   44  O16 UNL     1      -3.125  12.103 -10.453  1.00  0.00    -0.307 OA
HETATM   45  H37 UNL     1      -3.011  11.185 -10.162  1.00  0.00     0.222 HD
ENDBRANCH  40  44
ENDBRANCH  39  40
ENDBRANCH  35  39
BRANCH  36  46
HETATM   46  O12 UNL     1      -6.492   9.616 -10.417  1.00  0.00    -0.388 OA
HETATM   47  H35 UNL     1      -6.898   8.801 -10.037  1.00  0.00     0.210 HD
ENDBRANCH  36  46
BRANCH  37  48
HETATM   48  N3  UNL     1      -6.593   7.438 -12.841  1.00  0.00    -0.297 N 
HETATM   49  C19 UNL     1      -7.679   6.907 -12.185  1.00  0.00     0.188 A 
HETATM   50  N4  UNL     1      -7.921   5.665 -12.545  1.00  0.00    -0.346 N 
HETATM   51  C20 UNL     1      -6.946   5.378 -13.484  1.00  0.00     0.116 A 
HETATM   52  H4  UNL     1      -8.662   5.051 -12.208  1.00  0.00     0.167 HD
HETATM   53  C21 UNL     1      -6.685   4.243 -14.270  1.00  0.00     0.109 A 
HETATM   54  C23 UNL     1      -6.093   6.455 -13.648  1.00  0.00     0.142 A 
HETATM   55  N5  UNL     1      -5.621   4.266 -15.111  1.00  0.00    -0.341 N 
HETATM   56  C22 UNL     1      -4.861   5.378 -15.148  1.00  0.00     0.183 A 
HETATM   57  H5  UNL     1      -5.402   3.462 -15.699  1.00  0.00     0.167 HD
HETATM   58  N6  UNL     1      -5.018   6.523 -14.453  1.00  0.00    -0.336 N 
HETATM   59  H6  UNL     1      -4.403   7.334 -14.527  1.00  0.00     0.168 HD
BRANCH  53  60
HETATM   60  N7  UNL     1      -7.454   3.091 -14.225  1.00  0.00    -0.287 NA
HETATM   61  H33 UNL     1      -8.439   3.237 -14.437  1.00  0.00     0.125 HD
HETATM   62  H34 UNL     1      -7.241   2.505 -13.429  1.00  0.00     0.125 HD
ENDBRANCH  53  60
ENDBRANCH  37  48
ENDBRANCH  33  34
ENDBRANCH  32  33
ENDBRANCH  28  32
ENDBRANCH  27  28
ENDBRANCH  23  27
ENDBRANCH  22  23
ENDBRANCH  21  22
ENDBRANCH  18  21
ENDBRANCH  17  18
BRANCH  17  63
HETATM   63  O17 UNL     1       0.815   8.152  -6.649  1.00  0.00    -0.385 OA
HETATM   64  H38 UNL     1       1.352   7.966  -5.861  1.00  0.00     0.210 HD
ENDBRANCH  17  63
ENDBRANCH  14  17
ENDBRANCH  12  13
ENDBRANCH  11  12
ENDBRANCH   8  11
ENDBRANCH   6   7
ENDBRANCH   5   6
ENDBRANCH   4   5
ENDBRANCH   2   4
TORSDOF 27
ENDMDL
MODEL 16
REMARK VINA RESULT:      -4.8      5.900      9.679
REMARK  27 active torsions:
REMARK  status: ('A' for Active; 'I' for Inactive)
REMARK    1  A    between atoms: C2_2  and  S1_4 
REMARK    2  A    between atoms: S1_4  and  C3_5 
REMARK    3  A    between atoms: C3_5  and  C4_6 
REMARK    4  A    between atoms: C4_6  and  N1_7 
REMARK       I    between atoms: N1_7  and  C5_8 
REMARK    5  A    between atoms: C5_8  and  C6_10 
REMARK    6  A    between atoms: C6_10  and  C7_11 
REMARK    7  A    between atoms: C7_11  and  N2_12 
REMARK       I    between atoms: N2_12  and  C8_13 
REMARK    8  A    between atoms: C8_13  and  C9_15 
REMARK    9  A    between atoms: C9_15  and  C10_16 
REMARK   10  A    between atoms: C9_15  and  O17_54 
REMARK   11  A    between atoms: C10_16  and  C13_19 
REMARK   12  A    between atoms: C13_19  and  O4_20 
REMARK   13  A    between atoms: O4_20  and  P1_21 
REMARK   14  A    between atoms: P1_21  and  O6_23 
REMARK   15  A    between atoms: P1_21  and  O7_24 
REMARK   16  A    between atoms: O7_24  and  P2_25 
REMARK   17  A    between atoms: P2_25  and  O9_27 
REMARK   18  A    between atoms: P2_25  and  O10_28 
REMARK   19  A    between atoms: O10_28  and  C14_29 
REMARK   20  A    between atoms: C14_29  and  C15_30 
REMARK   21  A    between atoms: C16_31  and  O13_49 
REMARK   22  A    between atoms: C17_32  and  O12_48 
REMARK   23  A    between atoms: C18_33  and  N3_35 
REMARK   24  A    between atoms: C21_40  and  N7_47 
REMARK   25  A    between atoms: O13_49  and  P3_50 
REMARK   26  A    between atoms: P3_50  and  O15_52 
REMARK   27  A    between atoms: P3_50  and  O16_53 
ROOT
HETATM    1  C1  UNL     1       4.085  12.153   2.986  1.00  0.00     0.104 C 
HETATM    2  C2  UNL     1       3.892  13.556   3.473  1.00  0.00     0.182 C 
HETATM    3  O1  UNL     1       2.900  14.232   3.210  1.00  0.00    -0.286 OA
ENDROOT
BRANCH   2   4
HETATM    4  S1  UNL     1       5.230  14.182   4.428  1.00  0.00    -0.091 SA
BRANCH   4   5
HETATM    5  C3  UNL     1       5.780  15.550   3.358  1.00  0.00     0.102 C 
BRANCH   5   6
HETATM    6  C4  UNL     1       7.021  16.247   3.917  1.00  0.00     0.133 C 
BRANCH   6   7
HETATM    7  N1  UNL     1       8.177  16.110   3.054  1.00  0.00    -0.360 N 
HETATM    8  C5  UNL     1       9.459  16.159   3.548  1.00  0.00     0.219 C 
HETATM    9  O2  UNL     1       9.705  16.401   4.724  1.00  0.00    -0.274 OA
HETATM   10  H8  UNL     1       8.030  15.966   2.063  1.00  0.00     0.162 HD
BRANCH   8  11
HETATM   11  C6  UNL     1      10.518  15.938   2.489  1.00  0.00     0.122 C 
BRANCH  11  12
HETATM   12  C7  UNL     1       9.985  15.127   1.309  1.00  0.00     0.132 C 
BRANCH  12  13
HETATM   13  N2  UNL     1      10.860  14.039   0.926  1.00  0.00    -0.358 N 
HETATM   14  C8  UNL     1      11.686  14.164  -0.176  1.00  0.00     0.247 C 
HETATM   15  O3  UNL     1      11.628  15.129  -0.928  1.00  0.00    -0.271 OA
HETATM   16  H13 UNL     1      11.188  13.451   1.689  1.00  0.00     0.162 HD
BRANCH  14  17
HETATM   17  C9  UNL     1      12.686  13.014  -0.365  1.00  0.00     0.219 C 
BRANCH  17  18
HETATM   18  C10 UNL     1      12.271  11.970  -1.435  1.00  0.00     0.009 C 
HETATM   19  C11 UNL     1      12.348  10.532  -0.901  1.00  0.00     0.020 C 
HETATM   20  C12 UNL     1      10.832  12.215  -1.934  1.00  0.00     0.020 C 
BRANCH  18  21
HETATM   21  C13 UNL     1      13.272  12.145  -2.613  1.00  0.00     0.192 C 
BRANCH  21  22
HETATM   22  O4  UNL     1      12.883  13.172  -3.502  1.00  0.00    -0.296 OA
BRANCH  22  23
HETATM   23  P1  UNL     1      12.918  13.003  -5.096  1.00  0.00     0.401 P 
HETATM   24  O5  UNL     1      12.451  14.208  -5.850  1.00  0.00    -0.631 OA
BRANCH  23  25
HETATM   25  O6  UNL     1      12.094  11.663  -5.440  1.00  0.00    -0.307 OA
HETATM   26  H23 UNL     1      11.190  11.856  -5.720  1.00  0.00     0.222 HD
ENDBRANCH  23  25
BRANCH  23  27
HETATM   27  O7  UNL     1      14.405  12.545  -5.428  1.00  0.00    -0.195 OA
BRANCH  27  28
HETATM   28  P2  UNL     1      15.565  13.637  -5.426  1.00  0.00     0.401 P 
HETATM   29  O8  UNL     1      15.957  14.211  -6.748  1.00  0.00    -0.631 OA
BRANCH  28  30
HETATM   30  O9  UNL     1      15.047  14.720  -4.374  1.00  0.00    -0.307 OA
HETATM   31  H24 UNL     1      14.574  15.486  -4.783  1.00  0.00     0.222 HD
ENDBRANCH  28  30
BRANCH  28  32
HETATM   32  O10 UNL     1      16.739  12.951  -4.588  1.00  0.00    -0.294 OA
BRANCH  32  33
HETATM   33  C14 UNL     1      16.825  13.158  -3.202  1.00  0.00     0.215 C 
BRANCH  33  34
HETATM   34  C15 UNL     1      18.299  12.989  -2.837  1.00  0.00     0.180 C 
HETATM   35  C16 UNL     1      19.018  12.220  -3.937  1.00  0.00     0.197 C 
HETATM   36  C17 UNL     1      19.507  10.952  -3.264  1.00  0.00     0.199 C 
HETATM   37  C18 UNL     1      19.613  11.384  -1.799  1.00  0.00     0.262 C 
HETATM   38  O11 UNL     1      18.493  12.277  -1.609  1.00  0.00    -0.353 OA
BRANCH  35  39
HETATM   39  O13 UNL     1      20.093  13.026  -4.409  1.00  0.00    -0.286 OA
BRANCH  39  40
HETATM   40  P3  UNL     1      19.960  13.539  -5.917  1.00  0.00     0.391 P 
HETATM   41  O14 UNL     1      21.273  13.770  -6.593  1.00  0.00    -0.632 OA
BRANCH  40  42
HETATM   42  O15 UNL     1      18.995  14.800  -5.721  1.00  0.00    -0.307 OA
HETATM   43  H36 UNL     1      18.724  15.170  -6.594  1.00  0.00     0.222 HD
ENDBRANCH  40  42
BRANCH  40  44
HETATM   44  O16 UNL     1      18.995  12.439  -6.540  1.00  0.00    -0.307 OA
HETATM   45  H37 UNL     1      19.432  11.891  -7.210  1.00  0.00     0.222 HD
ENDBRANCH  40  44
ENDBRANCH  39  40
ENDBRANCH  35  39
BRANCH  36  46
HETATM   46  O12 UNL     1      20.700  10.482  -3.897  1.00  0.00    -0.388 OA
HETATM   47  H35 UNL     1      20.633   9.498  -3.921  1.00  0.00     0.210 HD
ENDBRANCH  36  46
BRANCH  37  48
HETATM   48  N3  UNL     1      19.483  10.272  -0.880  1.00  0.00    -0.297 N 
HETATM   49  C19 UNL     1      19.497   8.932  -1.190  1.00  0.00     0.188 A 
HETATM   50  N4  UNL     1      19.486   8.172  -0.116  1.00  0.00    -0.346 N 
HETATM   51  C20 UNL     1      19.468   9.063   0.942  1.00  0.00     0.116 A 
HETATM   52  H4  UNL     1      19.489   7.153  -0.073  1.00  0.00     0.167 HD
HETATM   53  C21 UNL     1      19.492   8.887   2.336  1.00  0.00     0.109 A 
HETATM   54  C23 UNL     1      19.427  10.367   0.482  1.00  0.00     0.142 A 
HETATM   55  N5  UNL     1      19.454   9.985   3.130  1.00  0.00    -0.341 N 
HETATM   56  C22 UNL     1      19.391  11.196   2.541  1.00  0.00     0.183 A 
HETATM   57  H5  UNL     1      19.473   9.897   4.146  1.00  0.00     0.167 HD
HETATM   58  N6  UNL     1      19.372  11.487   1.224  1.00  0.00    -0.336 N 
HETATM   59  H6  UNL     1      19.323  12.432   0.841  1.00  0.00     0.168 HD
BRANCH  53  60
HETATM   60  N7  UNL     1      19.542   7.644   2.947  1.00  0.00    -0.287 NA
HETATM   61  H33 UNL     1      18.632   7.269   3.209  1.00  0.00     0.125 HD
HETATM   62  H34 UNL     1      20.279   7.571   3.635  1.00  0.00     0.125 HD
ENDBRANCH  53  60
ENDBRANCH  37  48
ENDBRANCH  33  34
ENDBRANCH  32  33
ENDBRANCH  28  32
ENDBRANCH  27  28
ENDBRANCH  23  27
ENDBRANCH  22  23
ENDBRANCH  21  22
ENDBRANCH  18  21
ENDBRANCH  17  18
BRANCH  17  63
HETATM   63  O17 UNL     1      13.975  13.533  -0.713  1.00  0.00    -0.385 OA
HETATM   64  H38 UNL     1      14.089  13.437  -1.673  1.00  0.00     0.210 HD
ENDBRANCH  17  63
ENDBRANCH  14  17
ENDBRANCH  12  13
ENDBRANCH  11  12
ENDBRANCH   8  11
ENDBRANCH   6   7
ENDBRANCH   5   6
ENDBRANCH   4   5
ENDBRANCH   2   4
TORSDOF 27
ENDMDL
MODEL 17
REMARK VINA RESULT:      -4.7      5.004      8.822
REMARK  27 active torsions:
REMARK  status: ('A' for Active; 'I' for Inactive)
REMARK    1  A    between atoms: C2_2  and  S1_4 
REMARK    2  A    between atoms: S1_4  and  C3_5 
REMARK    3  A    between atoms: C3_5  and  C4_6 
REMARK    4  A    between atoms: C4_6  and  N1_7 
REMARK       I    between atoms: N1_7  and  C5_8 
REMARK    5  A    between atoms: C5_8  and  C6_10 
REMARK    6  A    between atoms: C6_10  and  C7_11 
REMARK    7  A    between atoms: C7_11  and  N2_12 
REMARK       I    between atoms: N2_12  and  C8_13 
REMARK    8  A    between atoms: C8_13  and  C9_15 
REMARK    9  A    between atoms: C9_15  and  C10_16 
REMARK   10  A    between atoms: C9_15  and  O17_54 
REMARK   11  A    between atoms: C10_16  and  C13_19 
REMARK   12  A    between atoms: C13_19  and  O4_20 
REMARK   13  A    between atoms: O4_20  and  P1_21 
REMARK   14  A    between atoms: P1_21  and  O6_23 
REMARK   15  A    between atoms: P1_21  and  O7_24 
REMARK   16  A    between atoms: O7_24  and  P2_25 
REMARK   17  A    between atoms: P2_25  and  O9_27 
REMARK   18  A    between atoms: P2_25  and  O10_28 
REMARK   19  A    between atoms: O10_28  and  C14_29 
REMARK   20  A    between atoms: C14_29  and  C15_30 
REMARK   21  A    between atoms: C16_31  and  O13_49 
REMARK   22  A    between atoms: C17_32  and  O12_48 
REMARK   23  A    between atoms: C18_33  and  N3_35 
REMARK   24  A    between atoms: C21_40  and  N7_47 
REMARK   25  A    between atoms: O13_49  and  P3_50 
REMARK   26  A    between atoms: P3_50  and  O15_52 
REMARK   27  A    between atoms: P3_50  and  O16_53 
ROOT
HETATM    1  C1  UNL     1       9.839  17.761  -6.636  1.00  0.00     0.104 C 
HETATM    2  C2  UNL     1      10.618  16.518  -6.332  1.00  0.00     0.182 C 
HETATM    3  O1  UNL     1      11.276  16.368  -5.306  1.00  0.00    -0.286 OA
ENDROOT
BRANCH   2   4
HETATM    4  S1  UNL     1      10.548  15.293  -7.592  1.00  0.00    -0.091 SA
BRANCH   4   5
HETATM    5  C3  UNL     1      12.180  14.512  -7.374  1.00  0.00     0.102 C 
BRANCH   5   6
HETATM    6  C4  UNL     1      13.135  14.860  -8.517  1.00  0.00     0.133 C 
BRANCH   6   7
HETATM    7  N1  UNL     1      13.967  16.008  -8.221  1.00  0.00    -0.360 N 
HETATM    8  C5  UNL     1      15.323  15.889  -8.022  1.00  0.00     0.219 C 
HETATM    9  O2  UNL     1      15.894  14.804  -8.003  1.00  0.00    -0.274 OA
HETATM   10  H8  UNL     1      13.535  16.921  -8.167  1.00  0.00     0.162 HD
BRANCH   8  11
HETATM   11  C6  UNL     1      16.012  17.214  -7.781  1.00  0.00     0.122 C 
BRANCH  11  12
HETATM   12  C7  UNL     1      17.410  17.031  -7.190  1.00  0.00     0.132 C 
BRANCH  12  13
HETATM   13  N2  UNL     1      17.429  16.149  -6.042  1.00  0.00    -0.358 N 
HETATM   14  C8  UNL     1      18.559  16.062  -5.249  1.00  0.00     0.247 C 
HETATM   15  O3  UNL     1      19.608  16.620  -5.546  1.00  0.00    -0.271 OA
HETATM   16  H13 UNL     1      16.530  16.001  -5.588  1.00  0.00     0.162 HD
BRANCH  14  17
HETATM   17  C9  UNL     1      18.386  15.230  -3.970  1.00  0.00     0.219 C 
BRANCH  17  18
HETATM   18  C10 UNL     1      17.584  15.939  -2.846  1.00  0.00     0.009 C 
HETATM   19  C11 UNL     1      18.472  16.858  -1.995  1.00  0.00     0.020 C 
HETATM   20  C12 UNL     1      16.434  16.789  -3.423  1.00  0.00     0.020 C 
BRANCH  18  21
HETATM   21  C13 UNL     1      17.003  14.804  -1.956  1.00  0.00     0.192 C 
BRANCH  21  22
HETATM   22  O4  UNL     1      15.677  15.069  -1.543  1.00  0.00    -0.296 OA
BRANCH  22  23
HETATM   23  P1  UNL     1      15.041  14.452  -0.207  1.00  0.00     0.401 P 
HETATM   24  O5  UNL     1      16.018  14.282   0.914  1.00  0.00    -0.631 OA
BRANCH  23  25
HETATM   25  O6  UNL     1      14.298  13.088  -0.632  1.00  0.00    -0.307 OA
HETATM   26  H23 UNL     1      14.261  12.455   0.096  1.00  0.00     0.222 HD
ENDBRANCH  23  25
BRANCH  23  27
HETATM   27  O7  UNL     1      13.800  15.388   0.128  1.00  0.00    -0.195 OA
BRANCH  27  28
HETATM   28  P2  UNL     1      12.635  15.538  -0.948  1.00  0.00     0.401 P 
HETATM   29  O8  UNL     1      11.377  16.203  -0.495  1.00  0.00    -0.631 OA
BRANCH  28  30
HETATM   30  O9  UNL     1      13.356  16.271  -2.169  1.00  0.00    -0.307 OA
HETATM   31  H24 UNL     1      14.201  16.723  -1.927  1.00  0.00     0.222 HD
ENDBRANCH  28  30
BRANCH  28  32
HETATM   32  O10 UNL     1      12.470  14.066  -1.545  1.00  0.00    -0.294 OA
BRANCH  32  33
HETATM   33  C14 UNL     1      11.388  13.766  -2.387  1.00  0.00     0.215 C 
BRANCH  33  34
HETATM   34  C15 UNL     1      11.717  12.428  -3.046  1.00  0.00     0.180 C 
HETATM   35  C16 UNL     1      11.936  12.630  -4.540  1.00  0.00     0.197 C 
HETATM   36  C17 UNL     1      10.847  11.806  -5.202  1.00  0.00     0.199 C 
HETATM   37  C18 UNL     1      10.551  10.747  -4.137  1.00  0.00     0.262 C 
HETATM   38  O11 UNL     1      10.678  11.455  -2.885  1.00  0.00    -0.353 OA
BRANCH  35  39
HETATM   39  O13 UNL     1      13.239  12.156  -4.862  1.00  0.00    -0.286 OA
BRANCH  39  40
HETATM   40  P3  UNL     1      14.431  13.188  -4.601  1.00  0.00     0.391 P 
HETATM   41  O14 UNL     1      13.975  14.596  -4.394  1.00  0.00    -0.632 OA
BRANCH  40  42
HETATM   42  O15 UNL     1      15.368  12.890  -5.863  1.00  0.00    -0.307 OA
HETATM   43  H36 UNL     1      15.305  11.941  -6.127  1.00  0.00     0.222 HD
ENDBRANCH  40  42
BRANCH  40  44
HETATM   44  O16 UNL     1      15.203  12.481  -3.403  1.00  0.00    -0.307 OA
HETATM   45  H37 UNL     1      16.121  12.259  -3.626  1.00  0.00     0.222 HD
ENDBRANCH  40  44
ENDBRANCH  39  40
ENDBRANCH  35  39
BRANCH  36  46
HETATM   46  O12 UNL     1      11.285  11.345  -6.483  1.00  0.00    -0.388 OA
HETATM   47  H35 UNL     1      11.871  10.569  -6.314  1.00  0.00     0.210 HD
ENDBRANCH  36  46
BRANCH  37  48
HETATM   48  N3  UNL     1       9.206  10.217  -4.239  1.00  0.00    -0.297 N 
HETATM   49  C19 UNL     1       8.042  10.931  -4.405  1.00  0.00     0.188 A 
HETATM   50  N4  UNL     1       7.000  10.149  -4.589  1.00  0.00    -0.346 N 
HETATM   51  C20 UNL     1       7.515   8.865  -4.545  1.00  0.00     0.116 A 
HETATM   52  H4  UNL     1       6.030  10.427  -4.733  1.00  0.00     0.167 HD
HETATM   53  C21 UNL     1       6.930   7.598  -4.713  1.00  0.00     0.109 A 
HETATM   54  C23 UNL     1       8.874   8.892  -4.289  1.00  0.00     0.142 A 
HETATM   55  N5  UNL     1       7.717   6.500  -4.597  1.00  0.00    -0.341 N 
HETATM   56  C22 UNL     1       9.024   6.678  -4.321  1.00  0.00     0.183 A 
HETATM   57  H5  UNL     1       7.329   5.564  -4.716  1.00  0.00     0.167 HD
HETATM   58  N6  UNL     1       9.694   7.836  -4.149  1.00  0.00    -0.336 N 
HETATM   59  H6  UNL     1      10.691   7.902  -3.941  1.00  0.00     0.168 HD
BRANCH  53  60
HETATM   60  N7  UNL     1       5.584   7.410  -4.982  1.00  0.00    -0.287 NA
HETATM   61  H33 UNL     1       5.033   8.265  -4.982  1.00  0.00     0.125 HD
HETATM   62  H34 UNL     1       5.191   6.615  -4.494  1.00  0.00     0.125 HD
ENDBRANCH  53  60
ENDBRANCH  37  48
ENDBRANCH  33  34
ENDBRANCH  32  33
ENDBRANCH  28  32
ENDBRANCH  27  28
ENDBRANCH  23  27
ENDBRANCH  22  23
ENDBRANCH  21  22
ENDBRANCH  18  21
ENDBRANCH  17  18
BRANCH  17  63
HETATM   63  O17 UNL     1      17.742  13.988  -4.273  1.00  0.00    -0.385 OA
HETATM   64  H38 UNL     1      17.202  14.114  -5.071  1.00  0.00     0.210 HD
ENDBRANCH  17  63
ENDBRANCH  14  17
ENDBRANCH  12  13
ENDBRANCH  11  12
ENDBRANCH   8  11
ENDBRANCH   6   7
ENDBRANCH   5   6
ENDBRANCH   4   5
ENDBRANCH   2   4
TORSDOF 27
ENDMDL
MODEL 18
REMARK VINA RESULT:      -4.5      9.471     12.689
REMARK  27 active torsions:
REMARK  status: ('A' for Active; 'I' for Inactive)
REMARK    1  A    between atoms: C2_2  and  S1_4 
REMARK    2  A    between atoms: S1_4  and  C3_5 
REMARK    3  A    between atoms: C3_5  and  C4_6 
REMARK    4  A    between atoms: C4_6  and  N1_7 
REMARK       I    between atoms: N1_7  and  C5_8 
REMARK    5  A    between atoms: C5_8  and  C6_10 
REMARK    6  A    between atoms: C6_10  and  C7_11 
REMARK    7  A    between atoms: C7_11  and  N2_12 
REMARK       I    between atoms: N2_12  and  C8_13 
REMARK    8  A    between atoms: C8_13  and  C9_15 
REMARK    9  A    between atoms: C9_15  and  C10_16 
REMARK   10  A    between atoms: C9_15  and  O17_54 
REMARK   11  A    between atoms: C10_16  and  C13_19 
REMARK   12  A    between atoms: C13_19  and  O4_20 
REMARK   13  A    between atoms: O4_20  and  P1_21 
REMARK   14  A    between atoms: P1_21  and  O6_23 
REMARK   15  A    between atoms: P1_21  and  O7_24 
REMARK   16  A    between atoms: O7_24  and  P2_25 
REMARK   17  A    between atoms: P2_25  and  O9_27 
REMARK   18  A    between atoms: P2_25  and  O10_28 
REMARK   19  A    between atoms: O10_28  and  C14_29 
REMARK   20  A    between atoms: C14_29  and  C15_30 
REMARK   21  A    between atoms: C16_31  and  O13_49 
REMARK   22  A    between atoms: C17_32  and  O12_48 
REMARK   23  A    between atoms: C18_33  and  N3_35 
REMARK   24  A    between atoms: C21_40  and  N7_47 
REMARK   25  A    between atoms: O13_49  and  P3_50 
REMARK   26  A    between atoms: P3_50  and  O15_52 
REMARK   27  A    between atoms: P3_50  and  O16_53 
ROOT
HETATM    1  C1  UNL     1       5.907  16.347  -1.170  1.00  0.00     0.104 C 
HETATM    2  C2  UNL     1       6.451  16.796  -2.491  1.00  0.00     0.182 C 
HETATM    3  O1  UNL     1       5.905  17.646  -3.192  1.00  0.00    -0.286 OA
ENDROOT
BRANCH   2   4
HETATM    4  S1  UNL     1       7.925  15.976  -2.986  1.00  0.00    -0.091 SA
BRANCH   4   5
HETATM    5  C3  UNL     1       7.276  14.922  -4.323  1.00  0.00     0.102 C 
BRANCH   5   6
HETATM    6  C4  UNL     1       6.643  13.639  -3.781  1.00  0.00     0.133 C 
BRANCH   6   7
HETATM    7  N1  UNL     1       5.513  13.195  -4.572  1.00  0.00    -0.360 N 
HETATM    8  C5  UNL     1       4.312  13.865  -4.557  1.00  0.00     0.219 C 
HETATM    9  O2  UNL     1       4.098  14.821  -3.821  1.00  0.00    -0.274 OA
HETATM   10  H8  UNL     1       5.619  12.375  -5.154  1.00  0.00     0.162 HD
BRANCH   8  11
HETATM   11  C6  UNL     1       3.283  13.271  -5.495  1.00  0.00     0.122 C 
BRANCH  11  12
HETATM   12  C7  UNL     1       2.758  11.928  -4.989  1.00  0.00     0.132 C 
BRANCH  12  13
HETATM   13  N2  UNL     1       1.829  11.300  -5.905  1.00  0.00    -0.358 N 
HETATM   14  C8  UNL     1       2.096  10.042  -6.414  1.00  0.00     0.247 C 
HETATM   15  O3  UNL     1       3.160   9.470  -6.213  1.00  0.00    -0.271 OA
HETATM   16  H13 UNL     1       0.852  11.554  -5.780  1.00  0.00     0.162 HD
BRANCH  14  17
HETATM   17  C9  UNL     1       0.952   9.421  -7.229  1.00  0.00     0.219 C 
BRANCH  17  18
HETATM   18  C10 UNL     1       0.915   9.852  -8.719  1.00  0.00     0.009 C 
HETATM   19  C11 UNL     1       2.203   9.472  -9.463  1.00  0.00     0.020 C 
HETATM   20  C12 UNL     1      -0.272   9.209  -9.464  1.00  0.00     0.020 C 
BRANCH  18  21
HETATM   21  C13 UNL     1       0.754  11.400  -8.711  1.00  0.00     0.192 C 
BRANCH  21  22
HETATM   22  O4  UNL     1       0.249  11.894  -9.935  1.00  0.00    -0.296 OA
BRANCH  22  23
HETATM   23  P1  UNL     1       1.099  12.845 -10.907  1.00  0.00     0.401 P 
HETATM   24  O5  UNL     1       2.553  12.925 -10.566  1.00  0.00    -0.631 OA
BRANCH  23  25
HETATM   25  O6  UNL     1       0.357  14.273 -10.927  1.00  0.00    -0.307 OA
HETATM   26  H23 UNL     1      -0.197  14.404 -10.146  1.00  0.00     0.222 HD
ENDBRANCH  23  25
BRANCH  23  27
HETATM   27  O7  UNL     1       0.788  12.315 -12.374  1.00  0.00    -0.195 OA
BRANCH  27  28
HETATM   28  P2  UNL     1       0.327  13.356 -13.488  1.00  0.00     0.401 P 
HETATM   29  O8  UNL     1       1.109  14.625 -13.594  1.00  0.00    -0.631 OA
BRANCH  28  30
HETATM   30  O9  UNL     1       0.317  12.484 -14.825  1.00  0.00    -0.307 OA
HETATM   31  H24 UNL     1      -0.207  12.881 -15.562  1.00  0.00     0.222 HD
ENDBRANCH  28  30
BRANCH  28  32
HETATM   32  O10 UNL     1      -1.241  13.523 -13.234  1.00  0.00    -0.294 OA
BRANCH  32  33
HETATM   33  C14 UNL     1      -2.058  12.388 -13.118  1.00  0.00     0.215 C 
BRANCH  33  34
HETATM   34  C15 UNL     1      -3.380  12.872 -12.523  1.00  0.00     0.180 C 
HETATM   35  C16 UNL     1      -3.209  13.131 -11.032  1.00  0.00     0.197 C 
HETATM   36  C17 UNL     1      -4.158  12.156 -10.362  1.00  0.00     0.199 C 
HETATM   37  C18 UNL     1      -5.204  11.920 -11.454  1.00  0.00     0.262 C 
HETATM   38  O11 UNL     1      -4.444  11.926 -12.683  1.00  0.00    -0.353 OA
BRANCH  35  39
HETATM   39  O13 UNL     1      -3.563  14.486 -10.777  1.00  0.00    -0.286 OA
BRANCH  39  40
HETATM   40  P3  UNL     1      -2.837  15.164  -9.524  1.00  0.00     0.391 P 
HETATM   41  O14 UNL     1      -3.782  15.693  -8.494  1.00  0.00    -0.632 OA
BRANCH  40  42
HETATM   42  O15 UNL     1      -1.883  16.214 -10.263  1.00  0.00    -0.307 OA
HETATM   43  H36 UNL     1      -1.959  17.106  -9.848  1.00  0.00     0.222 HD
ENDBRANCH  40  42
BRANCH  40  44
HETATM   44  O16 UNL     1      -1.833  14.013  -9.081  1.00  0.00    -0.307 OA
HETATM   45  H37 UNL     1      -1.780  13.911  -8.118  1.00  0.00     0.222 HD
ENDBRANCH  40  44
ENDBRANCH  39  40
ENDBRANCH  35  39
BRANCH  36  46
HETATM   46  O12 UNL     1      -4.618  12.689  -9.117  1.00  0.00    -0.388 OA
HETATM   47  H35 UNL     1      -5.311  13.354  -9.338  1.00  0.00     0.210 HD
ENDBRANCH  36  46
BRANCH  37  48
HETATM   48  N3  UNL     1      -5.866  10.638 -11.322  1.00  0.00    -0.297 N 
HETATM   49  C19 UNL     1      -7.194  10.413 -11.040  1.00  0.00     0.188 A 
HETATM   50  N4  UNL     1      -7.510   9.139 -11.114  1.00  0.00    -0.346 N 
HETATM   51  C20 UNL     1      -6.331   8.506 -11.467  1.00  0.00     0.116 A 
HETATM   52  H4  UNL     1      -8.422   8.712 -10.949  1.00  0.00     0.167 HD
HETATM   53  C21 UNL     1      -6.015   7.165 -11.742  1.00  0.00     0.109 A 
HETATM   54  C23 UNL     1      -5.296   9.419 -11.561  1.00  0.00     0.142 A 
HETATM   55  N5  UNL     1      -4.735   6.851 -12.058  1.00  0.00    -0.341 N 
HETATM   56  C22 UNL     1      -3.824   7.844 -12.088  1.00  0.00     0.183 A 
HETATM   57  H5  UNL     1      -4.468   5.889 -12.267  1.00  0.00     0.167 HD
HETATM   58  N6  UNL     1      -4.010   9.159 -11.854  1.00  0.00    -0.336 N 
HETATM   59  H6  UNL     1      -3.272   9.863 -11.893  1.00  0.00     0.168 HD
BRANCH  53  60
HETATM   60  N7  UNL     1      -6.945   6.138 -11.698  1.00  0.00    -0.287 NA
HETATM   61  H33 UNL     1      -7.763   6.288 -12.285  1.00  0.00     0.125 HD
HETATM   62  H34 UNL     1      -7.113   5.798 -10.761  1.00  0.00     0.125 HD
ENDBRANCH  53  60
ENDBRANCH  37  48
ENDBRANCH  33  34
ENDBRANCH  32  33
ENDBRANCH  28  32
ENDBRANCH  27  28
ENDBRANCH  23  27
ENDBRANCH  22  23
ENDBRANCH  21  22
ENDBRANCH  18  21
ENDBRANCH  17  18
BRANCH  17  63
HETATM   63  O17 UNL     1       1.024   7.992  -7.171  1.00  0.00    -0.385 OA
HETATM   64  H38 UNL     1       1.160   7.734  -6.244  1.00  0.00     0.210 HD
ENDBRANCH  17  63
ENDBRANCH  14  17
ENDBRANCH  12  13
ENDBRANCH  11  12
ENDBRANCH   8  11
ENDBRANCH   6   7
ENDBRANCH   5   6
ENDBRANCH   4   5
ENDBRANCH   2   4
TORSDOF 27
ENDMDL
MODEL 19
REMARK VINA RESULT:      -4.4      4.391      9.573
REMARK  27 active torsions:
REMARK  status: ('A' for Active; 'I' for Inactive)
REMARK    1  A    between atoms: C2_2  and  S1_4 
REMARK    2  A    between atoms: S1_4  and  C3_5 
REMARK    3  A    between atoms: C3_5  and  C4_6 
REMARK    4  A    between atoms: C4_6  and  N1_7 
REMARK       I    between atoms: N1_7  and  C5_8 
REMARK    5  A    between atoms: C5_8  and  C6_10 
REMARK    6  A    between atoms: C6_10  and  C7_11 
REMARK    7  A    between atoms: C7_11  and  N2_12 
REMARK       I    between atoms: N2_12  and  C8_13 
REMARK    8  A    between atoms: C8_13  and  C9_15 
REMARK    9  A    between atoms: C9_15  and  C10_16 
REMARK   10  A    between atoms: C9_15  and  O17_54 
REMARK   11  A    between atoms: C10_16  and  C13_19 
REMARK   12  A    between atoms: C13_19  and  O4_20 
REMARK   13  A    between atoms: O4_20  and  P1_21 
REMARK   14  A    between atoms: P1_21  and  O6_23 
REMARK   15  A    between atoms: P1_21  and  O7_24 
REMARK   16  A    between atoms: O7_24  and  P2_25 
REMARK   17  A    between atoms: P2_25  and  O9_27 
REMARK   18  A    between atoms: P2_25  and  O10_28 
REMARK   19  A    between atoms: O10_28  and  C14_29 
REMARK   20  A    between atoms: C14_29  and  C15_30 
REMARK   21  A    between atoms: C16_31  and  O13_49 
REMARK   22  A    between atoms: C17_32  and  O12_48 
REMARK   23  A    between atoms: C18_33  and  N3_35 
REMARK   24  A    between atoms: C21_40  and  N7_47 
REMARK   25  A    between atoms: O13_49  and  P3_50 
REMARK   26  A    between atoms: P3_50  and  O15_52 
REMARK   27  A    between atoms: P3_50  and  O16_53 
ROOT
HETATM    1  C1  UNL     1      11.839  16.911  -7.377  1.00  0.00     0.104 C 
HETATM    2  C2  UNL     1      13.086  16.457  -8.072  1.00  0.00     0.182 C 
HETATM    3  O1  UNL     1      14.029  17.204  -8.322  1.00  0.00    -0.286 OA
ENDROOT
BRANCH   2   4
HETATM    4  S1  UNL     1      13.078  14.763  -8.543  1.00  0.00    -0.091 SA
BRANCH   4   5
HETATM    5  C3  UNL     1      12.072  14.058  -7.197  1.00  0.00     0.102 C 
BRANCH   5   6
HETATM    6  C4  UNL     1      12.688  12.773  -6.639  1.00  0.00     0.133 C 
BRANCH   6   7
HETATM    7  N1  UNL     1      13.971  12.997  -6.006  1.00  0.00    -0.360 N 
HETATM    8  C5  UNL     1      14.215  12.614  -4.708  1.00  0.00     0.219 C 
HETATM    9  O2  UNL     1      13.347  12.138  -3.986  1.00  0.00    -0.274 OA
HETATM   10  H8  UNL     1      14.706  13.441  -6.541  1.00  0.00     0.162 HD
BRANCH   8  11
HETATM   11  C6  UNL     1      15.634  12.888  -4.259  1.00  0.00     0.122 C 
BRANCH  11  12
HETATM   12  C7  UNL     1      15.905  12.343  -2.857  1.00  0.00     0.132 C 
BRANCH  12  13
HETATM   13  N2  UNL     1      15.219  13.083  -1.818  1.00  0.00    -0.358 N 
HETATM   14  C8  UNL     1      15.940  13.716  -0.822  1.00  0.00     0.247 C 
HETATM   15  O3  UNL     1      17.152  13.582  -0.709  1.00  0.00    -0.271 OA
HETATM   16  H13 UNL     1      14.334  13.504  -2.092  1.00  0.00     0.162 HD
BRANCH  14  17
HETATM   17  C9  UNL     1      15.106  14.608   0.109  1.00  0.00     0.219 C 
BRANCH  17  18
HETATM   18  C10 UNL     1      14.889  16.054  -0.411  1.00  0.00     0.009 C 
HETATM   19  C11 UNL     1      14.976  17.093   0.717  1.00  0.00     0.020 C 
HETATM   20  C12 UNL     1      15.929  16.431  -1.485  1.00  0.00     0.020 C 
BRANCH  18  21
HETATM   21  C13 UNL     1      13.462  16.075  -1.031  1.00  0.00     0.192 C 
BRANCH  21  22
HETATM   22  O4  UNL     1      13.377  15.300  -2.211  1.00  0.00    -0.296 OA
BRANCH  22  23
HETATM   23  P1  UNL     1      12.760  15.864  -3.579  1.00  0.00     0.401 P 
HETATM   24  O5  UNL     1      13.751  15.978  -4.695  1.00  0.00    -0.631 OA
BRANCH  23  25
HETATM   25  O6  UNL     1      12.023  17.249  -3.222  1.00  0.00    -0.307 OA
HETATM   26  H23 UNL     1      12.560  17.807  -2.644  1.00  0.00     0.222 HD
ENDBRANCH  23  25
BRANCH  23  27
HETATM   27  O7  UNL     1      11.516  14.922  -3.888  1.00  0.00    -0.195 OA
BRANCH  27  28
HETATM   28  P2  UNL     1      10.049  15.457  -3.575  1.00  0.00     0.401 P 
HETATM   29  O8  UNL     1       9.578  16.640  -4.357  1.00  0.00    -0.631 OA
BRANCH  28  30
HETATM   30  O9  UNL     1       9.139  14.156  -3.751  1.00  0.00    -0.307 OA
HETATM   31  H24 UNL     1       8.260  14.332  -4.167  1.00  0.00     0.222 HD
ENDBRANCH  28  30
BRANCH  28  32
HETATM   32  O10 UNL     1      10.027  15.618  -1.986  1.00  0.00    -0.294 OA
BRANCH  32  33
HETATM   33  C14 UNL     1       9.055  16.425  -1.375  1.00  0.00     0.215 C 
BRANCH  33  34
HETATM   34  C15 UNL     1       8.086  15.472  -0.677  1.00  0.00     0.180 C 
HETATM   35  C16 UNL     1       6.724  16.138  -0.532  1.00  0.00     0.197 C 
HETATM   36  C17 UNL     1       6.497  16.226   0.965  1.00  0.00     0.199 C 
HETATM   37  C18 UNL     1       7.365  15.080   1.492  1.00  0.00     0.262 C 
HETATM   38  O11 UNL     1       8.525  15.088   0.631  1.00  0.00    -0.353 OA
BRANCH  35  39
HETATM   39  O13 UNL     1       5.759  15.311  -1.173  1.00  0.00    -0.286 OA
BRANCH  39  40
HETATM   40  P3  UNL     1       4.858  16.033  -2.279  1.00  0.00     0.391 P 
HETATM   41  O14 UNL     1       4.453  15.138  -3.405  1.00  0.00    -0.632 OA
BRANCH  40  42
HETATM   42  O15 UNL     1       5.773  17.298  -2.630  1.00  0.00    -0.307 OA
HETATM   43  H36 UNL     1       5.553  18.061  -2.044  1.00  0.00     0.222 HD
ENDBRANCH  40  42
BRANCH  40  44
HETATM   44  O16 UNL     1       3.703  16.660  -1.384  1.00  0.00    -0.307 OA
HETATM   45  H37 UNL     1       2.820  16.536  -1.768  1.00  0.00     0.222 HD
ENDBRANCH  40  44
ENDBRANCH  39  40
ENDBRANCH  35  39
BRANCH  36  46
HETATM   46  O12 UNL     1       5.098  16.178   1.258  1.00  0.00    -0.388 OA
HETATM   47  H35 UNL     1       5.023  16.053   2.234  1.00  0.00     0.210 HD
ENDBRANCH  36  46
BRANCH  37  48
HETATM   48  N3  UNL     1       7.797  15.293   2.859  1.00  0.00    -0.297 N 
HETATM   49  C19 UNL     1       9.012  15.780   3.280  1.00  0.00     0.188 A 
HETATM   50  N4  UNL     1       9.048  15.974   4.580  1.00  0.00    -0.346 N 
HETATM   51  C20 UNL     1       7.792  15.599   5.024  1.00  0.00     0.116 A 
HETATM   52  H4  UNL     1       9.827  16.323   5.138  1.00  0.00     0.167 HD
HETATM   53  C21 UNL     1       7.186  15.610   6.292  1.00  0.00     0.109 A 
HETATM   54  C23 UNL     1       7.020  15.137   3.973  1.00  0.00     0.142 A 
HETATM   55  N5  UNL     1       5.914  15.158   6.408  1.00  0.00    -0.341 N 
HETATM   56  C22 UNL     1       5.290  14.715   5.298  1.00  0.00     0.183 A 
HETATM   57  H5  UNL     1       5.440  15.154   7.311  1.00  0.00     0.167 HD
HETATM   58  N6  UNL     1       5.762  14.665   4.035  1.00  0.00    -0.336 N 
HETATM   59  H6  UNL     1       5.236  14.316   3.234  1.00  0.00     0.168 HD
BRANCH  53  60
HETATM   60  N7  UNL     1       7.828  16.050   7.439  1.00  0.00    -0.287 NA
HETATM   61  H33 UNL     1       8.840  16.115   7.354  1.00  0.00     0.125 HD
HETATM   62  H34 UNL     1       7.467  15.623   8.281  1.00  0.00     0.125 HD
ENDBRANCH  53  60
ENDBRANCH  37  48
ENDBRANCH  33  34
ENDBRANCH  32  33
ENDBRANCH  28  32
ENDBRANCH  27  28
ENDBRANCH  23  27
ENDBRANCH  22  23
ENDBRANCH  21  22
ENDBRANCH  18  21
ENDBRANCH  17  18
BRANCH  17  63
HETATM   63  O17 UNL     1      13.825  14.013   0.345  1.00  0.00    -0.385 OA
HETATM   64  H38 UNL     1      13.168  14.490  -0.189  1.00  0.00     0.210 HD
ENDBRANCH  17  63
ENDBRANCH  14  17
ENDBRANCH  12  13
ENDBRANCH  11  12
ENDBRANCH   8  11
ENDBRANCH   6   7
ENDBRANCH   5   6
ENDBRANCH   4   5
ENDBRANCH   2   4
TORSDOF 27
ENDMDL
MODEL 20
REMARK VINA RESULT:      -4.3     11.171     14.376
REMARK  27 active torsions:
REMARK  status: ('A' for Active; 'I' for Inactive)
REMARK    1  A    between atoms: C2_2  and  S1_4 
REMARK    2  A    between atoms: S1_4  and  C3_5 
REMARK    3  A    between atoms: C3_5  and  C4_6 
REMARK    4  A    between atoms: C4_6  and  N1_7 
REMARK       I    between atoms: N1_7  and  C5_8 
REMARK    5  A    between atoms: C5_8  and  C6_10 
REMARK    6  A    between atoms: C6_10  and  C7_11 
REMARK    7  A    between atoms: C7_11  and  N2_12 
REMARK       I    between atoms: N2_12  and  C8_13 
REMARK    8  A    between atoms: C8_13  and  C9_15 
REMARK    9  A    between atoms: C9_15  and  C10_16 
REMARK   10  A    between atoms: C9_15  and  O17_54 
REMARK   11  A    between atoms: C10_16  and  C13_19 
REMARK   12  A    between atoms: C13_19  and  O4_20 
REMARK   13  A    between atoms: O4_20  and  P1_21 
REMARK   14  A    between atoms: P1_21  and  O6_23 
REMARK   15  A    between atoms: P1_21  and  O7_24 
REMARK   16  A    between atoms: O7_24  and  P2_25 
REMARK   17  A    between atoms: P2_25  and  O9_27 
REMARK   18  A    between atoms: P2_25  and  O10_28 
REMARK   19  A    between atoms: O10_28  and  C14_29 
REMARK   20  A    between atoms: C14_29  and  C15_30 
REMARK   21  A    between atoms: C16_31  and  O13_49 
REMARK   22  A    between atoms: C17_32  and  O12_48 
REMARK   23  A    between atoms: C18_33  and  N3_35 
REMARK   24  A    between atoms: C21_40  and  N7_47 
REMARK   25  A    between atoms: O13_49  and  P3_50 
REMARK   26  A    between atoms: P3_50  and  O15_52 
REMARK   27  A    between atoms: P3_50  and  O16_53 
ROOT
HETATM    1  C1  UNL     1       6.480  15.825   0.384  1.00  0.00     0.104 C 
HETATM    2  C2  UNL     1       6.633  15.756  -1.105  1.00  0.00     0.182 C 
HETATM    3  O1  UNL     1       7.510  15.101  -1.663  1.00  0.00    -0.286 OA
ENDROOT
BRANCH   2   4
HETATM    4  S1  UNL     1       5.471  16.727  -1.999  1.00  0.00    -0.091 SA
BRANCH   4   5
HETATM    5  C3  UNL     1       6.516  17.291  -3.381  1.00  0.00     0.102 C 
BRANCH   5   6
HETATM    6  C4  UNL     1       6.177  16.566  -4.684  1.00  0.00     0.133 C 
BRANCH   6   7
HETATM    7  N1  UNL     1       5.227  15.489  -4.495  1.00  0.00    -0.360 N 
HETATM    8  C5  UNL     1       5.597  14.169  -4.602  1.00  0.00     0.219 C 
HETATM    9  O2  UNL     1       6.724  13.825  -4.941  1.00  0.00    -0.274 OA
HETATM   10  H8  UNL     1       4.268  15.720  -4.270  1.00  0.00     0.162 HD
BRANCH   8  11
HETATM   11  C6  UNL     1       4.468  13.204  -4.313  1.00  0.00     0.122 C 
BRANCH  11  12
HETATM   12  C7  UNL     1       3.331  13.336  -5.325  1.00  0.00     0.132 C 
BRANCH  12  13
HETATM   13  N2  UNL     1       2.606  12.099  -5.529  1.00  0.00    -0.358 N 
HETATM   14  C8  UNL     1       1.843  11.918  -6.668  1.00  0.00     0.247 C 
HETATM   15  O3  UNL     1       1.655  12.819  -7.476  1.00  0.00    -0.271 OA
HETATM   16  H13 UNL     1       3.029  11.270  -5.115  1.00  0.00     0.162 HD
BRANCH  14  17
HETATM   17  C9  UNL     1       1.274  10.502  -6.844  1.00  0.00     0.219 C 
BRANCH  17  18
HETATM   18  C10 UNL     1       1.658   9.817  -8.181  1.00  0.00     0.009 C 
HETATM   19  C11 UNL     1       2.611  10.680  -9.021  1.00  0.00     0.020 C 
HETATM   20  C12 UNL     1       2.338   8.453  -7.943  1.00  0.00     0.020 C 
BRANCH  18  21
HETATM   21  C13 UNL     1       0.324   9.610  -8.953  1.00  0.00     0.192 C 
BRANCH  21  22
HETATM   22  O4  UNL     1       0.517   9.533 -10.351  1.00  0.00    -0.296 OA
BRANCH  22  23
HETATM   23  P1  UNL     1      -0.681   9.694 -11.406  1.00  0.00     0.401 P 
HETATM   24  O5  UNL     1      -0.442  10.741 -12.448  1.00  0.00    -0.631 OA
BRANCH  23  25
HETATM   25  O6  UNL     1      -2.025   9.924 -10.551  1.00  0.00    -0.307 OA
HETATM   26  H23 UNL     1      -2.132   9.259  -9.859  1.00  0.00     0.222 HD
ENDBRANCH  23  25
BRANCH  23  27
HETATM   27  O7  UNL     1      -0.924   8.230 -11.977  1.00  0.00    -0.195 OA
BRANCH  27  28
HETATM   28  P2  UNL     1      -2.150   7.982 -12.964  1.00  0.00     0.401 P 
HETATM   29  O8  UNL     1      -2.198   8.811 -14.206  1.00  0.00    -0.631 OA
BRANCH  28  30
HETATM   30  O9  UNL     1      -2.093   6.409 -13.232  1.00  0.00    -0.307 OA
HETATM   31  H24 UNL     1      -2.970   5.957 -13.170  1.00  0.00     0.222 HD
ENDBRANCH  28  30
BRANCH  28  32
HETATM   32  O10 UNL     1      -3.433   8.072 -12.016  1.00  0.00    -0.294 OA
BRANCH  32  33
HETATM   33  C14 UNL     1      -4.078   6.899 -11.594  1.00  0.00     0.215 C 
BRANCH  33  34
HETATM   34  C15 UNL     1      -5.569   7.228 -11.541  1.00  0.00     0.180 C 
HETATM   35  C16 UNL     1      -6.080   7.531 -12.943  1.00  0.00     0.197 C 
HETATM   36  C17 UNL     1      -6.552   8.971 -12.876  1.00  0.00     0.199 C 
HETATM   37  C18 UNL     1      -6.877   9.136 -11.390  1.00  0.00     0.262 C 
HETATM   38  O11 UNL     1      -5.862   8.361 -10.715  1.00  0.00    -0.353 OA
BRANCH  35  39
HETATM   39  O13 UNL     1      -7.144   6.630 -13.229  1.00  0.00    -0.286 OA
BRANCH  39  40
HETATM   40  P3  UNL     1      -6.796   5.457 -14.257  1.00  0.00     0.391 P 
HETATM   41  O14 UNL     1      -5.339   5.342 -14.570  1.00  0.00    -0.632 OA
BRANCH  40  42
HETATM   42  O15 UNL     1      -7.787   5.811 -15.462  1.00  0.00    -0.307 OA
HETATM   43  H36 UNL     1      -8.550   5.186 -15.481  1.00  0.00     0.222 HD
ENDBRANCH  40  42
BRANCH  40  44
HETATM   44  O16 UNL     1      -7.500   4.210 -13.564  1.00  0.00    -0.307 OA
HETATM   45  H37 UNL     1      -7.337   4.170 -12.609  1.00  0.00     0.222 HD
ENDBRANCH  40  44
ENDBRANCH  39  40
ENDBRANCH  35  39
BRANCH  36  46
HETATM   46  O12 UNL     1      -7.615   9.188 -13.809  1.00  0.00    -0.388 OA
HETATM   47  H35 UNL     1      -7.397   8.651 -14.608  1.00  0.00     0.210 HD
ENDBRANCH  36  46
BRANCH  37  48
HETATM   48  N3  UNL     1      -6.781  10.513 -10.949  1.00  0.00    -0.297 N 
HETATM   49  C19 UNL     1      -7.658  11.187 -10.131  1.00  0.00     0.188 A 
HETATM   50  N4  UNL     1      -7.223  12.387  -9.815  1.00  0.00    -0.346 N 
HETATM   51  C20 UNL     1      -6.001  12.495 -10.455  1.00  0.00     0.116 A 
HETATM   52  H4  UNL     1      -7.683  13.083  -9.228  1.00  0.00     0.167 HD
HETATM   53  C21 UNL     1      -5.026  13.507 -10.481  1.00  0.00     0.109 A 
HETATM   54  C23 UNL     1      -5.734  11.357 -11.193  1.00  0.00     0.142 A 
HETATM   55  N5  UNL     1      -3.912  13.315 -11.230  1.00  0.00    -0.341 N 
HETATM   56  C22 UNL     1      -3.797  12.162 -11.918  1.00  0.00     0.183 A 
HETATM   57  H5  UNL     1      -3.181  14.025 -11.271  1.00  0.00     0.167 HD
HETATM   58  N6  UNL     1      -4.656  11.123 -11.962  1.00  0.00    -0.336 N 
HETATM   59  H6  UNL     1      -4.508  10.273 -12.507  1.00  0.00     0.168 HD
BRANCH  53  60
HETATM   60  N7  UNL     1      -5.146  14.700  -9.787  1.00  0.00    -0.287 NA
HETATM   61  H33 UNL     1      -5.861  14.694  -9.063  1.00  0.00     0.125 HD
HETATM   62  H34 UNL     1      -5.115  15.512 -10.390  1.00  0.00     0.125 HD
ENDBRANCH  53  60
ENDBRANCH  37  48
ENDBRANCH  33  34
ENDBRANCH  32  33
ENDBRANCH  28  32
ENDBRANCH  27  28
ENDBRANCH  23  27
ENDBRANCH  22  23
ENDBRANCH  21  22
ENDBRANCH  18  21
ENDBRANCH  17  18
BRANCH  17  63
HETATM   63  O17 UNL     1       1.699   9.663  -5.764  1.00  0.00    -0.385 OA
HETATM   64  H38 UNL     1       1.773   8.754  -6.101  1.00  0.00     0.210 HD
ENDBRANCH  17  63
ENDBRANCH  14  17
ENDBRANCH  12  13
ENDBRANCH  11  12
ENDBRANCH   8  11
ENDBRANCH   6   7
ENDBRANCH   5   6
ENDBRANCH   4   5
ENDBRANCH   2   4
TORSDOF 27
ENDMDL
