MODEL 1
REMARK VINA RESULT:      -5.1      0.000      0.000
REMARK  2 active torsions:
REMARK  status: ('A' for Active; 'I' for Inactive)
REMARK    1  A    between atoms: C3_3  and  O1_8 
REMARK    2  A    between atoms: C6_6  and  N1_7 
ROOT
HETATM    1  C1  UNL     1      -2.342  -0.945  -7.940  1.00  0.00     0.026 A 
HETATM    2  C2  UNL     1      -2.249  -1.063  -6.551  1.00  0.00     0.038 A 
HETATM    3  C3  UNL     1      -2.352  -2.314  -5.958  1.00  0.00     0.065 A 
HETATM    4  C4  UNL     1      -2.530  -3.453  -6.736  1.00  0.00     0.038 A 
HETATM    5  C5  UNL     1      -2.623  -3.327  -8.125  1.00  0.00     0.026 A 
HETATM    6  C6  UNL     1      -2.581  -2.069  -8.736  1.00  0.00     0.005 A 
ENDROOT
BRANCH   6   7
HETATM    7  N1  UNL     1      -2.554  -1.964 -10.131  1.00  0.00    -0.303 NA
HETATM    8  H5  UNL     1      -2.222  -2.802 -10.597  1.00  0.00     0.124 HD
HETATM    9  H6  UNL     1      -2.096  -1.125 -10.471  1.00  0.00     0.124 HD
ENDBRANCH   6   7
BRANCH   3  10
HETATM   10  O1  UNL     1      -2.254  -2.387  -4.601  1.00  0.00    -0.361 OA
HETATM   11  H7  UNL     1      -3.149  -2.450  -4.229  1.00  0.00     0.217 HD
ENDBRANCH   3  10
TORSDOF 2
ENDMDL
MODEL 2
REMARK VINA RESULT:      -5.0      2.781      3.266
REMARK  2 active torsions:
REMARK  status: ('A' for Active; 'I' for Inactive)
REMARK    1  A    between atoms: C3_3  and  O1_8 
REMARK    2  A    between atoms: C6_6  and  N1_7 
ROOT
HETATM    1  C1  UNL     1      -2.237  -1.079  -6.735  1.00  0.00     0.026 A 
HETATM    2  C2  UNL     1      -2.317  -1.001  -8.127  1.00  0.00     0.038 A 
HETATM    3  C3  UNL     1      -2.501  -2.159  -8.870  1.00  0.00     0.065 A 
HETATM    4  C4  UNL     1      -2.624  -3.392  -8.241  1.00  0.00     0.038 A 
HETATM    5  C5  UNL     1      -2.541  -3.462  -6.847  1.00  0.00     0.026 A 
HETATM    6  C6  UNL     1      -2.297  -2.315  -6.085  1.00  0.00     0.005 A 
ENDROOT
BRANCH   6   7
HETATM    7  N1  UNL     1      -2.335  -2.376  -4.687  1.00  0.00    -0.303 NA
HETATM    8  H5  UNL     1      -2.845  -3.177  -4.328  1.00  0.00     0.124 HD
HETATM    9  H6  UNL     1      -2.620  -1.508  -4.246  1.00  0.00     0.124 HD
ENDBRANCH   6   7
BRANCH   3  10
HETATM   10  O1  UNL     1      -2.577  -2.041 -10.226  1.00  0.00    -0.361 OA
HETATM   11  H7  UNL     1      -2.498  -2.926 -10.618  1.00  0.00     0.217 HD
ENDBRANCH   3  10
TORSDOF 2
ENDMDL
MODEL 3
REMARK VINA RESULT:      -4.8      2.933      3.816
REMARK  2 active torsions:
REMARK  status: ('A' for Active; 'I' for Inactive)
REMARK    1  A    between atoms: C3_3  and  O1_8 
REMARK    2  A    between atoms: C6_6  and  N1_7 
ROOT
HETATM    1  C1  UNL     1      -2.114  -4.375  -6.007  1.00  0.00     0.026 A 
HETATM    2  C2  UNL     1      -2.055  -5.106  -7.195  1.00  0.00     0.038 A 
HETATM    3  C3  UNL     1      -2.274  -4.467  -8.407  1.00  0.00     0.065 A 
HETATM    4  C4  UNL     1      -2.535  -3.102  -8.451  1.00  0.00     0.038 A 
HETATM    5  C5  UNL     1      -2.594  -2.377  -7.257  1.00  0.00     0.026 A 
HETATM    6  C6  UNL     1      -2.434  -3.014  -6.023  1.00  0.00     0.005 A 
ENDROOT
BRANCH   6   7
HETATM    7  N1  UNL     1      -2.376  -2.261  -4.844  1.00  0.00    -0.303 NA
HETATM    8  H5  UNL     1      -2.329  -2.826  -4.002  1.00  0.00     0.124 HD
HETATM    9  H6  UNL     1      -3.084  -1.537  -4.784  1.00  0.00     0.124 HD
ENDBRANCH   6   7
BRANCH   3  10
HETATM   10  O1  UNL     1      -2.205  -5.215  -9.545  1.00  0.00    -0.361 OA
HETATM   11  H7  UNL     1      -3.101  -5.313  -9.905  1.00  0.00     0.217 HD
ENDBRANCH   3  10
TORSDOF 2
ENDMDL
MODEL 4
REMARK VINA RESULT:      -4.7      1.831      2.343
REMARK  2 active torsions:
REMARK  status: ('A' for Active; 'I' for Inactive)
REMARK    1  A    between atoms: C3_3  and  O1_8 
REMARK    2  A    between atoms: C6_6  and  N1_7 
ROOT
HETATM    1  C1  UNL     1      -2.414  -2.110  -6.223  1.00  0.00     0.026 A 
HETATM    2  C2  UNL     1      -2.298  -3.470  -5.926  1.00  0.00     0.038 A 
HETATM    3  C3  UNL     1      -2.317  -4.402  -6.954  1.00  0.00     0.065 A 
HETATM    4  C4  UNL     1      -2.434  -3.994  -8.278  1.00  0.00     0.038 A 
HETATM    5  C5  UNL     1      -2.551  -2.631  -8.567  1.00  0.00     0.026 A 
HETATM    6  C6  UNL     1      -2.593  -1.681  -7.542  1.00  0.00     0.005 A 
ENDROOT
BRANCH   6   7
HETATM    7  N1  UNL     1      -2.590  -0.315  -7.846  1.00  0.00    -0.303 NA
HETATM    8  H5  UNL     1      -2.331   0.276  -7.062  1.00  0.00     0.124 HD
HETATM    9  H6  UNL     1      -3.434   0.004  -8.309  1.00  0.00     0.124 HD
ENDBRANCH   6   7
BRANCH   3  10
HETATM   10  O1  UNL     1      -2.199  -5.719  -6.624  1.00  0.00    -0.361 OA
HETATM   11  H7  UNL     1      -2.814  -5.913  -5.899  1.00  0.00     0.217 HD
ENDBRANCH   3  10
TORSDOF 2
ENDMDL
MODEL 5
REMARK VINA RESULT:      -4.7      3.922      4.587
REMARK  2 active torsions:
REMARK  status: ('A' for Active; 'I' for Inactive)
REMARK    1  A    between atoms: C3_3  and  O1_8 
REMARK    2  A    between atoms: C6_6  and  N1_7 
ROOT
HETATM    1  C1  UNL     1      -0.421  -4.797  -6.797  1.00  0.00     0.026 A 
HETATM    2  C2  UNL     1      -0.148  -5.683  -7.841  1.00  0.00     0.038 A 
HETATM    3  C3  UNL     1      -1.195  -6.249  -8.554  1.00  0.00     0.065 A 
HETATM    4  C4  UNL     1      -2.514  -5.930  -8.250  1.00  0.00     0.038 A 
HETATM    5  C5  UNL     1      -2.779  -5.043  -7.202  1.00  0.00     0.026 A 
HETATM    6  C6  UNL     1      -1.740  -4.508  -6.434  1.00  0.00     0.005 A 
ENDROOT
BRANCH   6   7
HETATM    7  N1  UNL     1      -2.008  -3.531  -5.468  1.00  0.00    -0.303 NA
HETATM    8  H5  UNL     1      -2.295  -3.912  -4.572  1.00  0.00     0.124 HD
HETATM    9  H6  UNL     1      -2.625  -2.794  -5.790  1.00  0.00     0.124 HD
ENDBRANCH   6   7
BRANCH   3  10
HETATM   10  O1  UNL     1      -0.888  -7.107  -9.568  1.00  0.00    -0.361 OA
HETATM   11  H7  UNL     1      -1.558  -7.017 -10.264  1.00  0.00     0.217 HD
ENDBRANCH   3  10
TORSDOF 2
ENDMDL
MODEL 6
REMARK VINA RESULT:      -4.7      2.334      3.036
REMARK  2 active torsions:
REMARK  status: ('A' for Active; 'I' for Inactive)
REMARK    1  A    between atoms: C3_3  and  O1_8 
REMARK    2  A    between atoms: C6_6  and  N1_7 
ROOT
HETATM    1  C1  UNL     1      -2.451  -3.843  -8.300  1.00  0.00     0.026 A 
HETATM    2  C2  UNL     1      -2.559  -2.477  -8.568  1.00  0.00     0.038 A 
HETATM    3  C3  UNL     1      -2.537  -1.567  -7.521  1.00  0.00     0.065 A 
HETATM    4  C4  UNL     1      -2.393  -2.001  -6.208  1.00  0.00     0.038 A 
HETATM    5  C5  UNL     1      -2.287  -3.370  -5.947  1.00  0.00     0.026 A 
HETATM    6  C6  UNL     1      -2.366  -4.306  -6.983  1.00  0.00     0.005 A 
ENDROOT
BRANCH   6   7
HETATM    7  N1  UNL     1      -2.140  -5.663  -6.726  1.00  0.00    -0.303 NA
HETATM    8  H5  UNL     1      -2.031  -6.225  -7.564  1.00  0.00     0.124 HD
HETATM    9  H6  UNL     1      -2.798  -6.072  -6.070  1.00  0.00     0.124 HD
ENDBRANCH   6   7
BRANCH   3  10
HETATM   10  O1  UNL     1      -2.642  -0.242  -7.825  1.00  0.00    -0.361 OA
HETATM   11  H7  UNL     1      -2.398  -0.117  -8.756  1.00  0.00     0.217 HD
ENDBRANCH   3  10
TORSDOF 2
ENDMDL
MODEL 7
REMARK VINA RESULT:      -4.6      1.710      2.204
REMARK  2 active torsions:
REMARK  status: ('A' for Active; 'I' for Inactive)
REMARK    1  A    between atoms: C3_3  and  O1_8 
REMARK    2  A    between atoms: C6_6  and  N1_7 
ROOT
HETATM    1  C1  UNL     1      -2.599  -1.943  -9.111  1.00  0.00     0.026 A 
HETATM    2  C2  UNL     1      -2.464  -0.671  -8.550  1.00  0.00     0.038 A 
HETATM    3  C3  UNL     1      -2.255  -0.541  -7.184  1.00  0.00     0.065 A 
HETATM    4  C4  UNL     1      -2.163  -1.666  -6.372  1.00  0.00     0.038 A 
HETATM    5  C5  UNL     1      -2.300  -2.936  -6.941  1.00  0.00     0.026 A 
HETATM    6  C6  UNL     1      -2.570  -3.085  -8.305  1.00  0.00     0.005 A 
ENDROOT
BRANCH   6   7
HETATM    7  N1  UNL     1      -2.587  -4.359  -8.885  1.00  0.00    -0.303 NA
HETATM    8  H5  UNL     1      -2.905  -4.363  -9.849  1.00  0.00     0.124 HD
HETATM    9  H6  UNL     1      -3.055  -5.060  -8.320  1.00  0.00     0.124 HD
ENDBRANCH   6   7
BRANCH   3  10
HETATM   10  O1  UNL     1      -2.125   0.716  -6.675  1.00  0.00    -0.361 OA
HETATM   11  H7  UNL     1      -2.715   0.802  -5.909  1.00  0.00     0.217 HD
ENDBRANCH   3  10
TORSDOF 2
ENDMDL
MODEL 8
REMARK VINA RESULT:      -4.5      2.300      2.855
REMARK  2 active torsions:
REMARK  status: ('A' for Active; 'I' for Inactive)
REMARK    1  A    between atoms: C3_3  and  O1_8 
REMARK    2  A    between atoms: C6_6  and  N1_7 
ROOT
HETATM    1  C1  UNL     1      -2.324  -1.182  -8.456  1.00  0.00     0.026 A 
HETATM    2  C2  UNL     1      -2.548  -2.449  -8.999  1.00  0.00     0.038 A 
HETATM    3  C3  UNL     1      -2.621  -3.553  -8.162  1.00  0.00     0.065 A 
HETATM    4  C4  UNL     1      -2.489  -3.408  -6.786  1.00  0.00     0.038 A 
HETATM    5  C5  UNL     1      -2.263  -2.137  -6.249  1.00  0.00     0.026 A 
HETATM    6  C6  UNL     1      -2.128  -1.021  -7.081  1.00  0.00     0.005 A 
ENDROOT
BRANCH   6   7
HETATM    7  N1  UNL     1      -2.021   0.261  -6.529  1.00  0.00    -0.303 NA
HETATM    8  H5  UNL     1      -1.657   0.954  -7.174  1.00  0.00     0.124 HD
HETATM    9  H6  UNL     1      -1.549   0.283  -5.631  1.00  0.00     0.124 HD
ENDBRANCH   6   7
BRANCH   3  10
HETATM   10  O1  UNL     1      -2.844  -4.771  -8.731  1.00  0.00    -0.361 OA
HETATM   11  H7  UNL     1      -3.039  -5.410  -8.027  1.00  0.00     0.217 HD
ENDBRANCH   3  10
TORSDOF 2
ENDMDL
MODEL 9
REMARK VINA RESULT:      -4.4      2.852      3.666
REMARK  2 active torsions:
REMARK  status: ('A' for Active; 'I' for Inactive)
REMARK    1  A    between atoms: C3_3  and  O1_8 
REMARK    2  A    between atoms: C6_6  and  N1_7 
ROOT
HETATM    1  C1  UNL     1      -1.916  -0.172  -6.853  1.00  0.00     0.026 A 
HETATM    2  C2  UNL     1      -1.970  -1.405  -7.507  1.00  0.00     0.038 A 
HETATM    3  C3  UNL     1      -2.651  -1.515  -8.711  1.00  0.00     0.065 A 
HETATM    4  C4  UNL     1      -3.266  -0.406  -9.281  1.00  0.00     0.038 A 
HETATM    5  C5  UNL     1      -3.209   0.824  -8.619  1.00  0.00     0.026 A 
HETATM    6  C6  UNL     1      -2.578   0.942  -7.377  1.00  0.00     0.005 A 
ENDROOT
BRANCH   6   7
HETATM    7  N1  UNL     1      -2.423   2.199  -6.781  1.00  0.00    -0.303 NA
HETATM    8  H5  UNL     1      -1.462   2.526  -6.763  1.00  0.00     0.124 HD
HETATM    9  H6  UNL     1      -2.877   2.284  -5.878  1.00  0.00     0.124 HD
ENDBRANCH   6   7
BRANCH   3  10
HETATM   10  O1  UNL     1      -2.679  -2.734  -9.320  1.00  0.00    -0.361 OA
HETATM   11  H7  UNL     1      -3.118  -2.641 -10.180  1.00  0.00     0.217 HD
ENDBRANCH   3  10
TORSDOF 2
ENDMDL
