MODEL 1
REMARK VINA RESULT:      -6.0      0.000      0.000
REMARK  27 active torsions:
REMARK  status: ('A' for Active; 'I' for Inactive)
REMARK    1  A    between atoms: C2_2  and  S1_4 
REMARK    2  A    between atoms: S1_4  and  C3_5 
REMARK    3  A    between atoms: C3_5  and  C4_6 
REMARK    4  A    between atoms: C4_6  and  N1_7 
REMARK       I    between atoms: N1_7  and  C5_8 
REMARK    5  A    between atoms: C5_8  and  C6_10 
REMARK    6  A    between atoms: C6_10  and  C7_11 
REMARK    7  A    between atoms: C7_11  and  N2_12 
REMARK       I    between atoms: N2_12  and  C8_13 
REMARK    8  A    between atoms: C8_13  and  C9_15 
REMARK    9  A    between atoms: C9_15  and  C10_16 
REMARK   10  A    between atoms: C9_15  and  O17_54 
REMARK   11  A    between atoms: C10_16  and  C13_19 
REMARK   12  A    between atoms: C13_19  and  O4_20 
REMARK   13  A    between atoms: O4_20  and  P1_21 
REMARK   14  A    between atoms: P1_21  and  O6_23 
REMARK   15  A    between atoms: P1_21  and  O7_24 
REMARK   16  A    between atoms: O7_24  and  P2_25 
REMARK   17  A    between atoms: P2_25  and  O9_27 
REMARK   18  A    between atoms: P2_25  and  O10_28 
REMARK   19  A    between atoms: O10_28  and  C14_29 
REMARK   20  A    between atoms: C14_29  and  C15_30 
REMARK   21  A    between atoms: C16_31  and  O13_49 
REMARK   22  A    between atoms: C17_32  and  O12_48 
REMARK   23  A    between atoms: C18_33  and  N3_35 
REMARK   24  A    between atoms: C21_40  and  N7_47 
REMARK   25  A    between atoms: O13_49  and  P3_50 
REMARK   26  A    between atoms: P3_50  and  O15_52 
REMARK   27  A    between atoms: P3_50  and  O16_53 
ROOT
HETATM    1  C1  UNL     1      -1.129  15.742  15.384  1.00  0.00     0.104 C 
HETATM    2  C2  UNL     1      -1.529  14.299  15.449  1.00  0.00     0.182 C 
HETATM    3  O1  UNL     1      -0.767  13.403  15.805  1.00  0.00    -0.286 OA
ENDROOT
BRANCH   2   4
HETATM    4  S1  UNL     1      -3.179  13.980  14.931  1.00  0.00    -0.091 SA
BRANCH   4   5
HETATM    5  C3  UNL     1      -3.106  12.173  14.712  1.00  0.00     0.102 C 
BRANCH   5   6
HETATM    6  C4  UNL     1      -4.232  11.462  15.465  1.00  0.00     0.133 C 
BRANCH   6   7
HETATM    7  N1  UNL     1      -5.486  11.477  14.740  1.00  0.00    -0.360 N 
HETATM    8  C5  UNL     1      -6.633  10.929  15.265  1.00  0.00     0.219 C 
HETATM    9  O2  UNL     1      -6.648  10.329  16.334  1.00  0.00    -0.274 OA
HETATM   10  H8  UNL     1      -5.514  11.909  13.826  1.00  0.00     0.162 HD
BRANCH   8  11
HETATM   11  C6  UNL     1      -7.843  11.099  14.372  1.00  0.00     0.122 C 
BRANCH  11  12
HETATM   12  C7  UNL     1      -8.166   9.821  13.599  1.00  0.00     0.132 C 
BRANCH  12  13
HETATM   13  N2  UNL     1      -7.882   9.926  12.184  1.00  0.00    -0.358 N 
HETATM   14  C8  UNL     1      -6.638   9.572  11.694  1.00  0.00     0.247 C 
HETATM   15  O3  UNL     1      -5.708   9.276  12.433  1.00  0.00    -0.271 OA
HETATM   16  H13 UNL     1      -8.680   9.794  11.566  1.00  0.00     0.162 HD
BRANCH  14  17
HETATM   17  C9  UNL     1      -6.528   9.561  10.163  1.00  0.00     0.219 C 
BRANCH  17  18
HETATM   18  C10 UNL     1      -6.283  10.955   9.526  1.00  0.00     0.009 C 
HETATM   19  C11 UNL     1      -6.959  11.090   8.153  1.00  0.00     0.020 C 
HETATM   20  C12 UNL     1      -6.810  12.089  10.428  1.00  0.00     0.020 C 
BRANCH  18  21
HETATM   21  C13 UNL     1      -4.742  11.086   9.365  1.00  0.00     0.192 C 
BRANCH  21  22
HETATM   22  O4  UNL     1      -4.093  11.352  10.592  1.00  0.00    -0.296 OA
BRANCH  22  23
HETATM   23  P1  UNL     1      -2.801  12.295  10.707  1.00  0.00     0.401 P 
HETATM   24  O5  UNL     1      -3.097  13.685  11.173  1.00  0.00    -0.631 OA
BRANCH  23  25
HETATM   25  O6  UNL     1      -2.052  12.233   9.283  1.00  0.00    -0.307 OA
HETATM   26  H23 UNL     1      -2.275  11.432   8.791  1.00  0.00     0.222 HD
ENDBRANCH  23  25
BRANCH  23  27
HETATM   27  O7  UNL     1      -1.784  11.487  11.626  1.00  0.00    -0.195 OA
BRANCH  27  28
HETATM   28  P2  UNL     1      -0.250  11.916  11.638  1.00  0.00     0.401 P 
HETATM   29  O8  UNL     1       0.174  12.941  10.638  1.00  0.00    -0.631 OA
BRANCH  28  30
HETATM   30  O9  UNL     1      -0.001  12.345  13.156  1.00  0.00    -0.307 OA
HETATM   31  H24 UNL     1      -0.746  12.856  13.558  1.00  0.00     0.222 HD
ENDBRANCH  28  30
BRANCH  28  32
HETATM   32  O10 UNL     1       0.539  10.529  11.593  1.00  0.00    -0.294 OA
BRANCH  32  33
HETATM   33  C14 UNL     1       0.130   9.461  12.407  1.00  0.00     0.215 C 
BRANCH  33  34
HETATM   34  C15 UNL     1       1.400   8.896  13.040  1.00  0.00     0.180 C 
HETATM   35  C16 UNL     1       1.868   9.813  14.163  1.00  0.00     0.197 C 
HETATM   36  C17 UNL     1       3.235  10.298  13.719  1.00  0.00     0.199 C 
HETATM   37  C18 UNL     1       3.688   9.175  12.784  1.00  0.00     0.262 C 
HETATM   38  O11 UNL     1       2.479   8.764  12.108  1.00  0.00    -0.353 OA
BRANCH  35  39
HETATM   39  O13 UNL     1       1.933   9.046  15.360  1.00  0.00    -0.286 OA
BRANCH  39  40
HETATM   40  P3  UNL     1       0.804   9.365  16.446  1.00  0.00     0.391 P 
HETATM   41  O14 UNL     1       1.325   9.479  17.842  1.00  0.00    -0.632 OA
BRANCH  40  42
HETATM   42  O15 UNL     1      -0.244   8.196  16.139  1.00  0.00    -0.307 OA
HETATM   43  H36 UNL     1      -0.171   7.899  15.201  1.00  0.00     0.222 HD
ENDBRANCH  40  42
BRANCH  40  44
HETATM   44  O16 UNL     1       0.111  10.648  15.812  1.00  0.00    -0.307 OA
HETATM   45  H37 UNL     1      -0.550  11.048  16.399  1.00  0.00     0.222 HD
ENDBRANCH  40  44
ENDBRANCH  39  40
ENDBRANCH  35  39
BRANCH  36  46
HETATM   46  O12 UNL     1       4.056  10.577  14.856  1.00  0.00    -0.388 OA
HETATM   47  H35 UNL     1       3.526  10.325  15.650  1.00  0.00     0.210 HD
ENDBRANCH  36  46
BRANCH  37  48
HETATM   48  N3  UNL     1       4.645   9.627  11.794  1.00  0.00    -0.297 N 
HETATM   49  C19 UNL     1       4.596   9.419  10.435  1.00  0.00     0.188 A 
HETATM   50  N4  UNL     1       5.547  10.066   9.797  1.00  0.00    -0.346 N 
HETATM   51  C20 UNL     1       6.245  10.729  10.791  1.00  0.00     0.116 A 
HETATM   52  H4  UNL     1       5.730  10.077   8.794  1.00  0.00     0.167 HD
HETATM   53  C21 UNL     1       7.337  11.615  10.761  1.00  0.00     0.109 A 
HETATM   54  C23 UNL     1       5.721  10.434  12.037  1.00  0.00     0.142 A 
HETATM   55  N5  UNL     1       7.811  12.100  11.934  1.00  0.00    -0.341 N 
HETATM   56  C22 UNL     1       7.214  11.706  13.076  1.00  0.00     0.183 A 
HETATM   57  H5  UNL     1       8.599  12.748  11.952  1.00  0.00     0.167 HD
HETATM   58  N6  UNL     1       6.162  10.875  13.228  1.00  0.00    -0.336 N 
HETATM   59  H6  UNL     1       5.755  10.615  14.127  1.00  0.00     0.168 HD
BRANCH  53  60
HETATM   60  N7  UNL     1       7.964  12.012   9.591  1.00  0.00    -0.287 NA
HETATM   61  H33 UNL     1       7.333  12.151   8.804  1.00  0.00     0.125 HD
HETATM   62  H34 UNL     1       8.816  11.499   9.406  1.00  0.00     0.125 HD
ENDBRANCH  53  60
ENDBRANCH  37  48
ENDBRANCH  33  34
ENDBRANCH  32  33
ENDBRANCH  28  32
ENDBRANCH  27  28
ENDBRANCH  23  27
ENDBRANCH  22  23
ENDBRANCH  21  22
ENDBRANCH  18  21
ENDBRANCH  17  18
BRANCH  17  63
HETATM   63  O17 UNL     1      -5.475   8.683   9.750  1.00  0.00    -0.385 OA
HETATM   64  H38 UNL     1      -5.519   7.882  10.299  1.00  0.00     0.210 HD
ENDBRANCH  17  63
ENDBRANCH  14  17
ENDBRANCH  12  13
ENDBRANCH  11  12
ENDBRANCH   8  11
ENDBRANCH   6   7
ENDBRANCH   5   6
ENDBRANCH   4   5
ENDBRANCH   2   4
TORSDOF 27
ENDMDL
MODEL 2
REMARK VINA RESULT:      -5.9      2.176      3.033
REMARK  27 active torsions:
REMARK  status: ('A' for Active; 'I' for Inactive)
REMARK    1  A    between atoms: C2_2  and  S1_4 
REMARK    2  A    between atoms: S1_4  and  C3_5 
REMARK    3  A    between atoms: C3_5  and  C4_6 
REMARK    4  A    between atoms: C4_6  and  N1_7 
REMARK       I    between atoms: N1_7  and  C5_8 
REMARK    5  A    between atoms: C5_8  and  C6_10 
REMARK    6  A    between atoms: C6_10  and  C7_11 
REMARK    7  A    between atoms: C7_11  and  N2_12 
REMARK       I    between atoms: N2_12  and  C8_13 
REMARK    8  A    between atoms: C8_13  and  C9_15 
REMARK    9  A    between atoms: C9_15  and  C10_16 
REMARK   10  A    between atoms: C9_15  and  O17_54 
REMARK   11  A    between atoms: C10_16  and  C13_19 
REMARK   12  A    between atoms: C13_19  and  O4_20 
REMARK   13  A    between atoms: O4_20  and  P1_21 
REMARK   14  A    between atoms: P1_21  and  O6_23 
REMARK   15  A    between atoms: P1_21  and  O7_24 
REMARK   16  A    between atoms: O7_24  and  P2_25 
REMARK   17  A    between atoms: P2_25  and  O9_27 
REMARK   18  A    between atoms: P2_25  and  O10_28 
REMARK   19  A    between atoms: O10_28  and  C14_29 
REMARK   20  A    between atoms: C14_29  and  C15_30 
REMARK   21  A    between atoms: C16_31  and  O13_49 
REMARK   22  A    between atoms: C17_32  and  O12_48 
REMARK   23  A    between atoms: C18_33  and  N3_35 
REMARK   24  A    between atoms: C21_40  and  N7_47 
REMARK   25  A    between atoms: O13_49  and  P3_50 
REMARK   26  A    between atoms: P3_50  and  O15_52 
REMARK   27  A    between atoms: P3_50  and  O16_53 
ROOT
HETATM    1  C1  UNL     1      -4.370  16.811  14.961  1.00  0.00     0.104 C 
HETATM    2  C2  UNL     1      -4.623  15.345  15.145  1.00  0.00     0.182 C 
HETATM    3  O1  UNL     1      -3.812  14.477  14.833  1.00  0.00    -0.286 OA
ENDROOT
BRANCH   2   4
HETATM    4  S1  UNL     1      -6.204  14.961  15.812  1.00  0.00    -0.091 SA
BRANCH   4   5
HETATM    5  C3  UNL     1      -6.688  13.583  14.722  1.00  0.00     0.102 C 
BRANCH   5   6
HETATM    6  C4  UNL     1      -7.514  12.531  15.466  1.00  0.00     0.133 C 
BRANCH   6   7
HETATM    7  N1  UNL     1      -7.990  11.476  14.595  1.00  0.00    -0.360 N 
HETATM    8  C5  UNL     1      -9.207  11.557  13.958  1.00  0.00     0.219 C 
HETATM    9  O2  UNL     1      -9.991  12.479  14.148  1.00  0.00    -0.274 OA
HETATM   10  H8  UNL     1      -7.405  10.664  14.450  1.00  0.00     0.162 HD
BRANCH   8  11
HETATM   11  C6  UNL     1      -9.488  10.377  13.053  1.00  0.00     0.122 C 
BRANCH  11  12
HETATM   12  C7  UNL     1      -8.228   9.560  12.771  1.00  0.00     0.132 C 
BRANCH  12  13
HETATM   13  N2  UNL     1      -7.691   9.785  11.446  1.00  0.00    -0.358 N 
HETATM   14  C8  UNL     1      -6.510  10.487  11.283  1.00  0.00     0.247 C 
HETATM   15  O3  UNL     1      -5.946  11.039  12.218  1.00  0.00    -0.271 OA
HETATM   16  H13 UNL     1      -7.902   9.064  10.759  1.00  0.00     0.162 HD
BRANCH  14  17
HETATM   17  C9  UNL     1      -5.962  10.499   9.848  1.00  0.00     0.219 C 
BRANCH  17  18
HETATM   18  C10 UNL     1      -6.419  11.712   8.995  1.00  0.00     0.009 C 
HETATM   19  C11 UNL     1      -7.333  11.291   7.835  1.00  0.00     0.020 C 
HETATM   20  C12 UNL     1      -7.180  12.747   9.848  1.00  0.00     0.020 C 
BRANCH  18  21
HETATM   21  C13 UNL     1      -5.118  12.352   8.431  1.00  0.00     0.192 C 
BRANCH  21  22
HETATM   22  O4  UNL     1      -4.510  13.236   9.350  1.00  0.00    -0.296 OA
BRANCH  22  23
HETATM   23  P1  UNL     1      -2.935  13.537   9.358  1.00  0.00     0.401 P 
HETATM   24  O5  UNL     1      -2.547  14.782   8.625  1.00  0.00    -0.631 OA
BRANCH  23  25
HETATM   25  O6  UNL     1      -2.205  12.209   8.813  1.00  0.00    -0.307 OA
HETATM   26  H23 UNL     1      -1.445  12.417   8.255  1.00  0.00     0.222 HD
ENDBRANCH  23  25
BRANCH  23  27
HETATM   27  O7  UNL     1      -2.519  13.511  10.893  1.00  0.00    -0.195 OA
BRANCH  27  28
HETATM   28  P2  UNL     1      -1.032  13.088  11.280  1.00  0.00     0.401 P 
HETATM   29  O8  UNL     1       0.038  13.389  10.283  1.00  0.00    -0.631 OA
BRANCH  28  30
HETATM   30  O9  UNL     1      -0.813  13.783  12.701  1.00  0.00    -0.307 OA
HETATM   31  H24 UNL     1      -0.520  13.162  13.413  1.00  0.00     0.222 HD
ENDBRANCH  28  30
BRANCH  28  32
HETATM   32  O10 UNL     1      -1.168  11.559  11.719  1.00  0.00    -0.294 OA
BRANCH  32  33
HETATM   33  C14 UNL     1      -2.234  11.154  12.538  1.00  0.00     0.215 C 
BRANCH  33  34
HETATM   34  C15 UNL     1      -1.637  10.211  13.580  1.00  0.00     0.180 C 
HETATM   35  C16 UNL     1      -1.188  11.006  14.799  1.00  0.00     0.197 C 
HETATM   36  C17 UNL     1       0.310  10.783  14.872  1.00  0.00     0.199 C 
HETATM   37  C18 UNL     1       0.473   9.440  14.156  1.00  0.00     0.262 C 
HETATM   38  O11 UNL     1      -0.504   9.483  13.093  1.00  0.00    -0.353 OA
BRANCH  35  39
HETATM   39  O13 UNL     1      -1.865  10.487  15.939  1.00  0.00    -0.286 OA
BRANCH  39  40
HETATM   40  P3  UNL     1      -2.687  11.555  16.798  1.00  0.00     0.391 P 
HETATM   41  O14 UNL     1      -2.880  11.159  18.226  1.00  0.00    -0.632 OA
BRANCH  40  42
HETATM   42  O15 UNL     1      -3.995  11.724  15.893  1.00  0.00    -0.307 OA
HETATM   43  H36 UNL     1      -4.687  12.239  16.373  1.00  0.00     0.222 HD
ENDBRANCH  40  42
BRANCH  40  44
HETATM   44  O16 UNL     1      -1.871  12.889  16.507  1.00  0.00    -0.307 OA
HETATM   45  H37 UNL     1      -2.278  13.435  15.816  1.00  0.00     0.222 HD
ENDBRANCH  40  44
ENDBRANCH  39  40
ENDBRANCH  35  39
BRANCH  36  46
HETATM   46  O12 UNL     1       0.758  10.863  16.228  1.00  0.00    -0.388 OA
HETATM   47  H35 UNL     1       0.196  11.546  16.667  1.00  0.00     0.210 HD
ENDBRANCH  36  46
BRANCH  37  48
HETATM   48  N3  UNL     1       1.789   9.276  13.574  1.00  0.00    -0.297 N 
HETATM   49  C19 UNL     1       2.575   8.147  13.600  1.00  0.00     0.188 A 
HETATM   50  N4  UNL     1       3.661   8.279  12.871  1.00  0.00    -0.346 N 
HETATM   51  C20 UNL     1       3.574   9.555  12.342  1.00  0.00     0.116 A 
HETATM   52  H4  UNL     1       4.403   7.594  12.727  1.00  0.00     0.167 HD
HETATM   53  C21 UNL     1       4.392  10.277  11.456  1.00  0.00     0.109 A 
HETATM   54  C23 UNL     1       2.439  10.197  12.801  1.00  0.00     0.142 A 
HETATM   55  N5  UNL     1       4.034  11.542  11.127  1.00  0.00    -0.341 N 
HETATM   56  C22 UNL     1       2.910  12.049  11.671  1.00  0.00     0.183 A 
HETATM   57  H5  UNL     1       4.601  12.096  10.485  1.00  0.00     0.167 HD
HETATM   58  N6  UNL     1       2.047  11.453  12.519  1.00  0.00    -0.336 N 
HETATM   59  H6  UNL     1       1.209  11.895  12.897  1.00  0.00     0.168 HD
BRANCH  53  60
HETATM   60  N7  UNL     1       5.557   9.766  10.905  1.00  0.00    -0.287 NA
HETATM   61  H33 UNL     1       5.407   9.036  10.212  1.00  0.00     0.125 HD
HETATM   62  H34 UNL     1       6.279   9.599  11.594  1.00  0.00     0.125 HD
ENDBRANCH  53  60
ENDBRANCH  37  48
ENDBRANCH  33  34
ENDBRANCH  32  33
ENDBRANCH  28  32
ENDBRANCH  27  28
ENDBRANCH  23  27
ENDBRANCH  22  23
ENDBRANCH  21  22
ENDBRANCH  18  21
ENDBRANCH  17  18
BRANCH  17  63
HETATM   63  O17 UNL     1      -4.530  10.472   9.868  1.00  0.00    -0.385 OA
HETATM   64  H38 UNL     1      -4.209  10.941   9.080  1.00  0.00     0.210 HD
ENDBRANCH  17  63
ENDBRANCH  14  17
ENDBRANCH  12  13
ENDBRANCH  11  12
ENDBRANCH   8  11
ENDBRANCH   6   7
ENDBRANCH   5   6
ENDBRANCH   4   5
ENDBRANCH   2   4
TORSDOF 27
ENDMDL
MODEL 3
REMARK VINA RESULT:      -5.7      1.760      2.470
REMARK  27 active torsions:
REMARK  status: ('A' for Active; 'I' for Inactive)
REMARK    1  A    between atoms: C2_2  and  S1_4 
REMARK    2  A    between atoms: S1_4  and  C3_5 
REMARK    3  A    between atoms: C3_5  and  C4_6 
REMARK    4  A    between atoms: C4_6  and  N1_7 
REMARK       I    between atoms: N1_7  and  C5_8 
REMARK    5  A    between atoms: C5_8  and  C6_10 
REMARK    6  A    between atoms: C6_10  and  C7_11 
REMARK    7  A    between atoms: C7_11  and  N2_12 
REMARK       I    between atoms: N2_12  and  C8_13 
REMARK    8  A    between atoms: C8_13  and  C9_15 
REMARK    9  A    between atoms: C9_15  and  C10_16 
REMARK   10  A    between atoms: C9_15  and  O17_54 
REMARK   11  A    between atoms: C10_16  and  C13_19 
REMARK   12  A    between atoms: C13_19  and  O4_20 
REMARK   13  A    between atoms: O4_20  and  P1_21 
REMARK   14  A    between atoms: P1_21  and  O6_23 
REMARK   15  A    between atoms: P1_21  and  O7_24 
REMARK   16  A    between atoms: O7_24  and  P2_25 
REMARK   17  A    between atoms: P2_25  and  O9_27 
REMARK   18  A    between atoms: P2_25  and  O10_28 
REMARK   19  A    between atoms: O10_28  and  C14_29 
REMARK   20  A    between atoms: C14_29  and  C15_30 
REMARK   21  A    between atoms: C16_31  and  O13_49 
REMARK   22  A    between atoms: C17_32  and  O12_48 
REMARK   23  A    between atoms: C18_33  and  N3_35 
REMARK   24  A    between atoms: C21_40  and  N7_47 
REMARK   25  A    between atoms: O13_49  and  P3_50 
REMARK   26  A    between atoms: P3_50  and  O15_52 
REMARK   27  A    between atoms: P3_50  and  O16_53 
ROOT
HETATM    1  C1  UNL     1      -4.338  15.263  16.049  1.00  0.00     0.104 C 
HETATM    2  C2  UNL     1      -4.517  13.791  15.836  1.00  0.00     0.182 C 
HETATM    3  O1  UNL     1      -4.581  12.979  16.756  1.00  0.00    -0.286 OA
ENDROOT
BRANCH   2   4
HETATM    4  S1  UNL     1      -4.587  13.306  14.147  1.00  0.00    -0.091 SA
BRANCH   4   5
HETATM    5  C3  UNL     1      -4.260  11.521  14.309  1.00  0.00     0.102 C 
BRANCH   5   6
HETATM    6  C4  UNL     1      -5.551  10.717  14.476  1.00  0.00     0.133 C 
BRANCH   6   7
HETATM    7  N1  UNL     1      -5.929  10.009  13.270  1.00  0.00    -0.360 N 
HETATM    8  C5  UNL     1      -6.911  10.480  12.431  1.00  0.00     0.219 C 
HETATM    9  O2  UNL     1      -7.578  11.476  12.689  1.00  0.00    -0.274 OA
HETATM   10  H8  UNL     1      -5.449   9.149  13.041  1.00  0.00     0.162 HD
BRANCH   8  11
HETATM   11  C6  UNL     1      -7.112   9.621  11.201  1.00  0.00     0.122 C 
BRANCH  11  12
HETATM   12  C7  UNL     1      -5.803   9.387  10.448  1.00  0.00     0.132 C 
BRANCH  12  13
HETATM   13  N2  UNL     1      -5.405  10.518   9.637  1.00  0.00    -0.358 N 
HETATM   14  C8  UNL     1      -4.301  11.273   9.989  1.00  0.00     0.247 C 
HETATM   15  O3  UNL     1      -3.699  11.096  11.041  1.00  0.00    -0.271 OA
HETATM   16  H13 UNL     1      -5.621  10.444   8.646  1.00  0.00     0.162 HD
BRANCH  14  17
HETATM   17  C9  UNL     1      -3.885  12.328   8.953  1.00  0.00     0.219 C 
BRANCH  17  18
HETATM   18  C10 UNL     1      -4.206  13.790   9.360  1.00  0.00     0.009 C 
HETATM   19  C11 UNL     1      -4.762  14.609   8.185  1.00  0.00     0.020 C 
HETATM   20  C12 UNL     1      -5.236  13.845  10.506  1.00  0.00     0.020 C 
BRANCH  18  21
HETATM   21  C13 UNL     1      -2.859  14.406   9.835  1.00  0.00     0.192 C 
BRANCH  21  22
HETATM   22  O4  UNL     1      -2.545  14.053  11.167  1.00  0.00    -0.296 OA
BRANCH  22  23
HETATM   23  P1  UNL     1      -1.056  13.700  11.646  1.00  0.00     0.401 P 
HETATM   24  O5  UNL     1      -0.345  14.833  12.318  1.00  0.00    -0.631 OA
BRANCH  23  25
HETATM   25  O6  UNL     1      -0.280  13.116  10.362  1.00  0.00    -0.307 OA
HETATM   26  H23 UNL     1       0.083  13.819   9.808  1.00  0.00     0.222 HD
ENDBRANCH  23  25
BRANCH  23  27
HETATM   27  O7  UNL     1      -1.210  12.391  12.536  1.00  0.00    -0.195 OA
BRANCH  27  28
HETATM   28  P2  UNL     1      -0.026  11.326  12.550  1.00  0.00     0.401 P 
HETATM   29  O8  UNL     1       0.077  10.412  11.373  1.00  0.00    -0.631 OA
BRANCH  28  30
HETATM   30  O9  UNL     1       1.272  12.224  12.793  1.00  0.00    -0.307 OA
HETATM   31  H24 UNL     1       1.108  13.196  12.728  1.00  0.00     0.222 HD
ENDBRANCH  28  30
BRANCH  28  32
HETATM   32  O10 UNL     1      -0.162  10.616  13.974  1.00  0.00    -0.294 OA
BRANCH  32  33
HETATM   33  C14 UNL     1      -0.335   9.225  14.052  1.00  0.00     0.215 C 
BRANCH  33  34
HETATM   34  C15 UNL     1       1.040   8.641  14.369  1.00  0.00     0.180 C 
HETATM   35  C16 UNL     1       1.772   9.547  15.350  1.00  0.00     0.197 C 
HETATM   36  C17 UNL     1       3.002  10.015  14.597  1.00  0.00     0.199 C 
HETATM   37  C18 UNL     1       3.207   8.889  13.581  1.00  0.00     0.262 C 
HETATM   38  O11 UNL     1       1.867   8.497  13.208  1.00  0.00    -0.353 OA
BRANCH  35  39
HETATM   39  O13 UNL     1       2.107   8.774  16.498  1.00  0.00    -0.286 OA
BRANCH  39  40
HETATM   40  P3  UNL     1       1.514   9.308  17.884  1.00  0.00     0.391 P 
HETATM   41  O14 UNL     1       1.976   8.532  19.075  1.00  0.00    -0.632 OA
BRANCH  40  42
HETATM   42  O15 UNL     1      -0.052   9.306  17.560  1.00  0.00    -0.307 OA
HETATM   43  H36 UNL     1      -0.532   9.929  18.156  1.00  0.00     0.222 HD
ENDBRANCH  40  42
BRANCH  40  44
HETATM   44  O16 UNL     1       1.896  10.850  17.817  1.00  0.00    -0.307 OA
HETATM   45  H37 UNL     1       1.705  11.248  16.953  1.00  0.00     0.222 HD
ENDBRANCH  40  44
ENDBRANCH  39  40
ENDBRANCH  35  39
BRANCH  36  46
HETATM   46  O12 UNL     1       4.072  10.278  15.509  1.00  0.00    -0.388 OA
HETATM   47  H35 UNL     1       3.999   9.604  16.225  1.00  0.00     0.210 HD
ENDBRANCH  36  46
BRANCH  37  48
HETATM   48  N3  UNL     1       3.910   9.331  12.393  1.00  0.00    -0.297 N 
HETATM   49  C19 UNL     1       3.550   9.114  11.084  1.00  0.00     0.188 A 
HETATM   50  N4  UNL     1       4.329   9.754  10.239  1.00  0.00    -0.346 N 
HETATM   51  C20 UNL     1       5.237  10.423  11.041  1.00  0.00     0.116 A 
HETATM   52  H4  UNL     1       4.276   9.757   9.221  1.00  0.00     0.167 HD
HETATM   53  C21 UNL     1       6.292  11.306  10.753  1.00  0.00     0.109 A 
HETATM   54  C23 UNL     1       5.013  10.139  12.376  1.00  0.00     0.142 A 
HETATM   55  N5  UNL     1       7.024  11.800  11.782  1.00  0.00    -0.341 N 
HETATM   56  C22 UNL     1       6.706  11.415  13.034  1.00  0.00     0.183 A 
HETATM   57  H5  UNL     1       7.795  12.445  11.612  1.00  0.00     0.167 HD
HETATM   58  N6  UNL     1       5.717  10.587  13.430  1.00  0.00    -0.336 N 
HETATM   59  H6  UNL     1       5.528  10.335  14.400  1.00  0.00     0.168 HD
BRANCH  53  60
HETATM   60  N7  UNL     1       6.633  11.693   9.467  1.00  0.00    -0.287 NA
HETATM   61  H33 UNL     1       5.929  12.260   9.000  1.00  0.00     0.125 HD
HETATM   62  H34 UNL     1       7.048  10.945   8.927  1.00  0.00     0.125 HD
ENDBRANCH  53  60
ENDBRANCH  37  48
ENDBRANCH  33  34
ENDBRANCH  32  33
ENDBRANCH  28  32
ENDBRANCH  27  28
ENDBRANCH  23  27
ENDBRANCH  22  23
ENDBRANCH  21  22
ENDBRANCH  18  21
ENDBRANCH  17  18
BRANCH  17  63
HETATM   63  O17 UNL     1      -2.482  12.228   8.684  1.00  0.00    -0.385 OA
HETATM   64  H38 UNL     1      -2.094  11.615   9.330  1.00  0.00     0.210 HD
ENDBRANCH  17  63
ENDBRANCH  14  17
ENDBRANCH  12  13
ENDBRANCH  11  12
ENDBRANCH   8  11
ENDBRANCH   6   7
ENDBRANCH   5   6
ENDBRANCH   4   5
ENDBRANCH   2   4
TORSDOF 27
ENDMDL
MODEL 4
REMARK VINA RESULT:      -5.7      3.019     10.228
REMARK  27 active torsions:
REMARK  status: ('A' for Active; 'I' for Inactive)
REMARK    1  A    between atoms: C2_2  and  S1_4 
REMARK    2  A    between atoms: S1_4  and  C3_5 
REMARK    3  A    between atoms: C3_5  and  C4_6 
REMARK    4  A    between atoms: C4_6  and  N1_7 
REMARK       I    between atoms: N1_7  and  C5_8 
REMARK    5  A    between atoms: C5_8  and  C6_10 
REMARK    6  A    between atoms: C6_10  and  C7_11 
REMARK    7  A    between atoms: C7_11  and  N2_12 
REMARK       I    between atoms: N2_12  and  C8_13 
REMARK    8  A    between atoms: C8_13  and  C9_15 
REMARK    9  A    between atoms: C9_15  and  C10_16 
REMARK   10  A    between atoms: C9_15  and  O17_54 
REMARK   11  A    between atoms: C10_16  and  C13_19 
REMARK   12  A    between atoms: C13_19  and  O4_20 
REMARK   13  A    between atoms: O4_20  and  P1_21 
REMARK   14  A    between atoms: P1_21  and  O6_23 
REMARK   15  A    between atoms: P1_21  and  O7_24 
REMARK   16  A    between atoms: O7_24  and  P2_25 
REMARK   17  A    between atoms: P2_25  and  O9_27 
REMARK   18  A    between atoms: P2_25  and  O10_28 
REMARK   19  A    between atoms: O10_28  and  C14_29 
REMARK   20  A    between atoms: C14_29  and  C15_30 
REMARK   21  A    between atoms: C16_31  and  O13_49 
REMARK   22  A    between atoms: C17_32  and  O12_48 
REMARK   23  A    between atoms: C18_33  and  N3_35 
REMARK   24  A    between atoms: C21_40  and  N7_47 
REMARK   25  A    between atoms: O13_49  and  P3_50 
REMARK   26  A    between atoms: P3_50  and  O15_52 
REMARK   27  A    between atoms: P3_50  and  O16_53 
ROOT
HETATM    1  C1  UNL     1       5.147  15.746  12.072  1.00  0.00     0.104 C 
HETATM    2  C2  UNL     1       6.050  14.652  11.589  1.00  0.00     0.182 C 
HETATM    3  O1  UNL     1       7.264  14.789  11.454  1.00  0.00    -0.286 OA
ENDROOT
BRANCH   2   4
HETATM    4  S1  UNL     1       5.222  13.153  11.189  1.00  0.00    -0.091 SA
BRANCH   4   5
HETATM    5  C3  UNL     1       6.278  11.956  12.068  1.00  0.00     0.102 C 
BRANCH   5   6
HETATM    6  C4  UNL     1       5.453  10.972  12.900  1.00  0.00     0.133 C 
BRANCH   6   7
HETATM    7  N1  UNL     1       5.748  11.052  14.316  1.00  0.00    -0.360 N 
HETATM    8  C5  UNL     1       5.042  11.880  15.157  1.00  0.00     0.219 C 
HETATM    9  O2  UNL     1       4.182  12.654  14.752  1.00  0.00    -0.274 OA
HETATM   10  H8  UNL     1       6.489  10.476  14.691  1.00  0.00     0.162 HD
BRANCH   8  11
HETATM   11  C6  UNL     1       5.471  11.772  16.604  1.00  0.00     0.122 C 
BRANCH  11  12
HETATM   12  C7  UNL     1       4.301  11.418  17.522  1.00  0.00     0.132 C 
BRANCH  12  13
HETATM   13  N2  UNL     1       3.104  11.045  16.797  1.00  0.00    -0.358 N 
HETATM   14  C8  UNL     1       2.467   9.850  17.074  1.00  0.00     0.247 C 
HETATM   15  O3  UNL     1       2.941   9.020  17.838  1.00  0.00    -0.271 OA
HETATM   16  H13 UNL     1       2.525  11.820  16.481  1.00  0.00     0.162 HD
BRANCH  14  17
HETATM   17  C9  UNL     1       1.117   9.661  16.364  1.00  0.00     0.219 C 
BRANCH  17  18
HETATM   18  C10 UNL     1       1.228   9.291  14.862  1.00  0.00     0.009 C 
HETATM   19  C11 UNL     1       2.644   8.838  14.480  1.00  0.00     0.020 C 
HETATM   20  C12 UNL     1       0.249   8.160  14.485  1.00  0.00     0.020 C 
BRANCH  18  21
HETATM   21  C13 UNL     1       0.863  10.584  14.076  1.00  0.00     0.192 C 
BRANCH  21  22
HETATM   22  O4  UNL     1      -0.230  10.392  13.201  1.00  0.00    -0.296 OA
BRANCH  22  23
HETATM   23  P1  UNL     1      -1.676  11.033  13.462  1.00  0.00     0.401 P 
HETATM   24  O5  UNL     1      -2.205  10.810  14.844  1.00  0.00    -0.631 OA
BRANCH  23  25
HETATM   25  O6  UNL     1      -2.645  10.483  12.300  1.00  0.00    -0.307 OA
HETATM   26  H23 UNL     1      -2.631  11.051  11.518  1.00  0.00     0.222 HD
ENDBRANCH  23  25
BRANCH  23  27
HETATM   27  O7  UNL     1      -1.529  12.561  13.044  1.00  0.00    -0.195 OA
BRANCH  27  28
HETATM   28  P2  UNL     1      -1.468  12.934  11.497  1.00  0.00     0.401 P 
HETATM   29  O8  UNL     1      -0.845  14.245  11.141  1.00  0.00    -0.631 OA
BRANCH  28  30
HETATM   30  O9  UNL     1      -0.744  11.670  10.843  1.00  0.00    -0.307 OA
HETATM   31  H24 UNL     1       0.106  11.421  11.281  1.00  0.00     0.222 HD
ENDBRANCH  28  30
BRANCH  28  32
HETATM   32  O10 UNL     1      -2.965  12.712  10.986  1.00  0.00    -0.294 OA
BRANCH  32  33
HETATM   33  C14 UNL     1      -3.247  12.727   9.612  1.00  0.00     0.215 C 
BRANCH  33  34
HETATM   34  C15 UNL     1      -4.394  11.740   9.402  1.00  0.00     0.180 C 
HETATM   35  C16 UNL     1      -5.674  12.498   9.077  1.00  0.00     0.197 C 
HETATM   36  C17 UNL     1      -6.621  12.160  10.214  1.00  0.00     0.199 C 
HETATM   37  C18 UNL     1      -6.083  10.808  10.689  1.00  0.00     0.262 C 
HETATM   38  O11 UNL     1      -4.650  10.926  10.552  1.00  0.00    -0.353 OA
BRANCH  35  39
HETATM   39  O13 UNL     1      -6.156  12.034   7.821  1.00  0.00    -0.286 OA
BRANCH  39  40
HETATM   40  P3  UNL     1      -6.326  13.152   6.691  1.00  0.00     0.391 P 
HETATM   41  O14 UNL     1      -5.374  13.004   5.549  1.00  0.00    -0.632 OA
BRANCH  40  42
HETATM   42  O15 UNL     1      -6.226  14.484   7.572  1.00  0.00    -0.307 OA
HETATM   43  H36 UNL     1      -7.110  14.730   7.933  1.00  0.00     0.222 HD
ENDBRANCH  40  42
BRANCH  40  44
HETATM   44  O16 UNL     1      -7.880  13.045   6.373  1.00  0.00    -0.307 OA
HETATM   45  H37 UNL     1      -8.254  12.181   6.606  1.00  0.00     0.222 HD
ENDBRANCH  40  44
ENDBRANCH  39  40
ENDBRANCH  35  39
BRANCH  36  46
HETATM   46  O12 UNL     1      -7.976  12.204   9.760  1.00  0.00    -0.388 OA
HETATM   47  H35 UNL     1      -7.972  11.858   8.836  1.00  0.00     0.210 HD
ENDBRANCH  36  46
BRANCH  37  48
HETATM   48  N3  UNL     1      -6.398  10.541  12.078  1.00  0.00    -0.297 N 
HETATM   49  C19 UNL     1      -7.128   9.488  12.577  1.00  0.00     0.188 A 
HETATM   50  N4  UNL     1      -7.128   9.459  13.892  1.00  0.00    -0.346 N 
HETATM   51  C20 UNL     1      -6.356  10.546  14.264  1.00  0.00     0.116 A 
HETATM   52  H4  UNL     1      -7.593   8.787  14.502  1.00  0.00     0.167 HD
HETATM   53  C21 UNL     1      -5.940  11.036  15.514  1.00  0.00     0.109 A 
HETATM   54  C23 UNL     1      -5.930  11.247  13.151  1.00  0.00     0.142 A 
HETATM   55  N5  UNL     1      -5.177  12.156  15.551  1.00  0.00    -0.341 N 
HETATM   56  C22 UNL     1      -4.858  12.749  14.384  1.00  0.00     0.183 A 
HETATM   57  H5  UNL     1      -4.854  12.539  16.439  1.00  0.00     0.167 HD
HETATM   58  N6  UNL     1      -5.188  12.369  13.133  1.00  0.00    -0.336 N 
HETATM   59  H6  UNL     1      -4.913  12.866  12.286  1.00  0.00     0.168 HD
BRANCH  53  60
HETATM   60  N7  UNL     1      -6.278  10.438  16.718  1.00  0.00    -0.287 NA
HETATM   61  H33 UNL     1      -6.905   9.642  16.629  1.00  0.00     0.125 HD
HETATM   62  H34 UNL     1      -6.492  11.108  17.445  1.00  0.00     0.125 HD
ENDBRANCH  53  60
ENDBRANCH  37  48
ENDBRANCH  33  34
ENDBRANCH  32  33
ENDBRANCH  28  32
ENDBRANCH  27  28
ENDBRANCH  23  27
ENDBRANCH  22  23
ENDBRANCH  21  22
ENDBRANCH  18  21
ENDBRANCH  17  18
BRANCH  17  63
HETATM   63  O17 UNL     1       0.350   8.649  17.026  1.00  0.00    -0.385 OA
HETATM   64  H38 UNL     1       0.426   7.828  16.512  1.00  0.00     0.210 HD
ENDBRANCH  17  63
ENDBRANCH  14  17
ENDBRANCH  12  13
ENDBRANCH  11  12
ENDBRANCH   8  11
ENDBRANCH   6   7
ENDBRANCH   5   6
ENDBRANCH   4   5
ENDBRANCH   2   4
TORSDOF 27
ENDMDL
MODEL 5
REMARK VINA RESULT:      -5.6      4.573      7.877
REMARK  27 active torsions:
REMARK  status: ('A' for Active; 'I' for Inactive)
REMARK    1  A    between atoms: C2_2  and  S1_4 
REMARK    2  A    between atoms: S1_4  and  C3_5 
REMARK    3  A    between atoms: C3_5  and  C4_6 
REMARK    4  A    between atoms: C4_6  and  N1_7 
REMARK       I    between atoms: N1_7  and  C5_8 
REMARK    5  A    between atoms: C5_8  and  C6_10 
REMARK    6  A    between atoms: C6_10  and  C7_11 
REMARK    7  A    between atoms: C7_11  and  N2_12 
REMARK       I    between atoms: N2_12  and  C8_13 
REMARK    8  A    between atoms: C8_13  and  C9_15 
REMARK    9  A    between atoms: C9_15  and  C10_16 
REMARK   10  A    between atoms: C9_15  and  O17_54 
REMARK   11  A    between atoms: C10_16  and  C13_19 
REMARK   12  A    between atoms: C13_19  and  O4_20 
REMARK   13  A    between atoms: O4_20  and  P1_21 
REMARK   14  A    between atoms: P1_21  and  O6_23 
REMARK   15  A    between atoms: P1_21  and  O7_24 
REMARK   16  A    between atoms: O7_24  and  P2_25 
REMARK   17  A    between atoms: P2_25  and  O9_27 
REMARK   18  A    between atoms: P2_25  and  O10_28 
REMARK   19  A    between atoms: O10_28  and  C14_29 
REMARK   20  A    between atoms: C14_29  and  C15_30 
REMARK   21  A    between atoms: C16_31  and  O13_49 
REMARK   22  A    between atoms: C17_32  and  O12_48 
REMARK   23  A    between atoms: C18_33  and  N3_35 
REMARK   24  A    between atoms: C21_40  and  N7_47 
REMARK   25  A    between atoms: O13_49  and  P3_50 
REMARK   26  A    between atoms: P3_50  and  O15_52 
REMARK   27  A    between atoms: P3_50  and  O16_53 
ROOT
HETATM    1  C1  UNL     1      -9.041  14.819   8.922  1.00  0.00     0.104 C 
HETATM    2  C2  UNL     1      -7.762  14.750   9.699  1.00  0.00     0.182 C 
HETATM    3  O1  UNL     1      -6.651  14.809   9.177  1.00  0.00    -0.286 OA
ENDROOT
BRANCH   2   4
HETATM    4  S1  UNL     1      -7.977  14.536  11.431  1.00  0.00    -0.091 SA
BRANCH   4   5
HETATM    5  C3  UNL     1      -8.948  12.995  11.449  1.00  0.00     0.102 C 
BRANCH   5   6
HETATM    6  C4  UNL     1      -8.105  11.796  11.888  1.00  0.00     0.133 C 
BRANCH   6   7
HETATM    7  N1  UNL     1      -7.084  11.446  10.922  1.00  0.00    -0.360 N 
HETATM    8  C5  UNL     1      -6.515  10.194  10.892  1.00  0.00     0.219 C 
HETATM    9  O2  UNL     1      -6.773   9.331  11.723  1.00  0.00    -0.274 OA
HETATM   10  H8  UNL     1      -6.792  12.142  10.249  1.00  0.00     0.162 HD
BRANCH   8  11
HETATM   11  C6  UNL     1      -5.512  10.019   9.772  1.00  0.00     0.122 C 
BRANCH  11  12
HETATM   12  C7  UNL     1      -5.095  11.358   9.164  1.00  0.00     0.132 C 
BRANCH  12  13
HETATM   13  N2  UNL     1      -3.773  11.781   9.575  1.00  0.00    -0.358 N 
HETATM   14  C8  UNL     1      -3.620  12.659  10.632  1.00  0.00     0.247 C 
HETATM   15  O3  UNL     1      -4.575  13.198  11.175  1.00  0.00    -0.271 OA
HETATM   16  H13 UNL     1      -3.029  11.104   9.421  1.00  0.00     0.162 HD
BRANCH  14  17
HETATM   17  C9  UNL     1      -2.167  12.885  11.076  1.00  0.00     0.219 C 
BRANCH  17  18
HETATM   18  C10 UNL     1      -1.801  12.234  12.436  1.00  0.00     0.009 C 
HETATM   19  C11 UNL     1      -1.939  13.221  13.605  1.00  0.00     0.020 C 
HETATM   20  C12 UNL     1      -2.695  11.014  12.737  1.00  0.00     0.020 C 
BRANCH  18  21
HETATM   21  C13 UNL     1      -0.319  11.780  12.307  1.00  0.00     0.192 C 
BRANCH  21  22
HETATM   22  O4  UNL     1      -0.196  10.511  11.697  1.00  0.00    -0.296 OA
BRANCH  22  23
HETATM   23  P1  UNL     1       1.023   9.514  11.998  1.00  0.00     0.401 P 
HETATM   24  O5  UNL     1       1.912   9.262  10.822  1.00  0.00    -0.631 OA
BRANCH  23  25
HETATM   25  O6  UNL     1       0.386   8.178  12.629  1.00  0.00    -0.307 OA
HETATM   26  H23 UNL     1       1.063   7.587  12.984  1.00  0.00     0.222 HD
ENDBRANCH  23  25
BRANCH  23  27
HETATM   27  O7  UNL     1       1.757  10.135  13.266  1.00  0.00    -0.195 OA
BRANCH  27  28
HETATM   28  P2  UNL     1       2.883   9.279  13.999  1.00  0.00     0.401 P 
HETATM   29  O8  UNL     1       3.087   7.879  13.521  1.00  0.00    -0.631 OA
BRANCH  28  30
HETATM   30  O9  UNL     1       4.180  10.203  13.884  1.00  0.00    -0.307 OA
HETATM   31  H24 UNL     1       5.017   9.704  13.718  1.00  0.00     0.222 HD
ENDBRANCH  28  30
BRANCH  28  32
HETATM   32  O10 UNL     1       2.542   9.443  15.551  1.00  0.00    -0.294 OA
BRANCH  32  33
HETATM   33  C14 UNL     1       1.206   9.501  15.975  1.00  0.00     0.215 C 
BRANCH  33  34
HETATM   34  C15 UNL     1       1.178  10.451  17.170  1.00  0.00     0.180 C 
HETATM   35  C16 UNL     1       2.267  10.064  18.162  1.00  0.00     0.197 C 
HETATM   36  C17 UNL     1       1.520   9.691  19.428  1.00  0.00     0.199 C 
HETATM   37  C18 UNL     1       0.220  10.487  19.282  1.00  0.00     0.262 C 
HETATM   38  O11 UNL     1      -0.073  10.434  17.869  1.00  0.00    -0.353 OA
BRANCH  35  39
HETATM   39  O13 UNL     1       3.113  11.194  18.350  1.00  0.00    -0.286 OA
BRANCH  39  40
HETATM   40  P3  UNL     1       4.626  11.010  17.869  1.00  0.00     0.391 P 
HETATM   41  O14 UNL     1       5.633  11.578  18.817  1.00  0.00    -0.632 OA
BRANCH  40  42
HETATM   42  O15 UNL     1       4.553  11.641  16.401  1.00  0.00    -0.307 OA
HETATM   43  H36 UNL     1       4.776  12.602  16.423  1.00  0.00     0.222 HD
ENDBRANCH  40  42
BRANCH  40  44
HETATM   44  O16 UNL     1       4.680   9.446  17.589  1.00  0.00    -0.307 OA
HETATM   45  H37 UNL     1       4.770   9.235  16.646  1.00  0.00     0.222 HD
ENDBRANCH  40  44
ENDBRANCH  39  40
ENDBRANCH  35  39
BRANCH  36  46
HETATM   46  O12 UNL     1       2.328   9.959  20.577  1.00  0.00    -0.388 OA
HETATM   47  H35 UNL     1       2.971  10.658  20.309  1.00  0.00     0.210 HD
ENDBRANCH  36  46
BRANCH  37  48
HETATM   48  N3  UNL     1      -0.882   9.889  20.010  1.00  0.00    -0.297 N 
HETATM   49  C19 UNL     1      -0.805   8.949  21.010  1.00  0.00     0.188 A 
HETATM   50  N4  UNL     1      -1.976   8.704  21.555  1.00  0.00    -0.346 N 
HETATM   51  C20 UNL     1      -2.856   9.531  20.878  1.00  0.00     0.116 A 
HETATM   52  H4  UNL     1      -2.190   8.051  22.309  1.00  0.00     0.167 HD
HETATM   53  C21 UNL     1      -4.234   9.770  21.014  1.00  0.00     0.109 A 
HETATM   54  C23 UNL     1      -2.197  10.241  19.892  1.00  0.00     0.142 A 
HETATM   55  N5  UNL     1      -4.825  10.653  20.172  1.00  0.00    -0.341 N 
HETATM   56  C22 UNL     1      -4.061  11.257  19.241  1.00  0.00     0.183 A 
HETATM   57  H5  UNL     1      -5.822  10.856  20.243  1.00  0.00     0.167 HD
HETATM   58  N6  UNL     1      -2.737  11.114  19.023  1.00  0.00    -0.336 N 
HETATM   59  H6  UNL     1      -2.215  11.603  18.295  1.00  0.00     0.168 HD
BRANCH  53  60
HETATM   60  N7  UNL     1      -5.028   9.142  21.961  1.00  0.00    -0.287 NA
HETATM   61  H33 UNL     1      -4.520   8.521  22.587  1.00  0.00     0.125 HD
HETATM   62  H34 UNL     1      -5.896   8.792  21.578  1.00  0.00     0.125 HD
ENDBRANCH  53  60
ENDBRANCH  37  48
ENDBRANCH  33  34
ENDBRANCH  32  33
ENDBRANCH  28  32
ENDBRANCH  27  28
ENDBRANCH  23  27
ENDBRANCH  22  23
ENDBRANCH  21  22
ENDBRANCH  18  21
ENDBRANCH  17  18
BRANCH  17  63
HETATM   63  O17 UNL     1      -1.264  12.393  10.079  1.00  0.00    -0.385 OA
HETATM   64  H38 UNL     1      -1.561  11.506   9.816  1.00  0.00     0.210 HD
ENDBRANCH  17  63
ENDBRANCH  14  17
ENDBRANCH  12  13
ENDBRANCH  11  12
ENDBRANCH   8  11
ENDBRANCH   6   7
ENDBRANCH   5   6
ENDBRANCH   4   5
ENDBRANCH   2   4
TORSDOF 27
ENDMDL
MODEL 6
REMARK VINA RESULT:      -5.6      2.638      3.321
REMARK  27 active torsions:
REMARK  status: ('A' for Active; 'I' for Inactive)
REMARK    1  A    between atoms: C2_2  and  S1_4 
REMARK    2  A    between atoms: S1_4  and  C3_5 
REMARK    3  A    between atoms: C3_5  and  C4_6 
REMARK    4  A    between atoms: C4_6  and  N1_7 
REMARK       I    between atoms: N1_7  and  C5_8 
REMARK    5  A    between atoms: C5_8  and  C6_10 
REMARK    6  A    between atoms: C6_10  and  C7_11 
REMARK    7  A    between atoms: C7_11  and  N2_12 
REMARK       I    between atoms: N2_12  and  C8_13 
REMARK    8  A    between atoms: C8_13  and  C9_15 
REMARK    9  A    between atoms: C9_15  and  C10_16 
REMARK   10  A    between atoms: C9_15  and  O17_54 
REMARK   11  A    between atoms: C10_16  and  C13_19 
REMARK   12  A    between atoms: C13_19  and  O4_20 
REMARK   13  A    between atoms: O4_20  and  P1_21 
REMARK   14  A    between atoms: P1_21  and  O6_23 
REMARK   15  A    between atoms: P1_21  and  O7_24 
REMARK   16  A    between atoms: O7_24  and  P2_25 
REMARK   17  A    between atoms: P2_25  and  O9_27 
REMARK   18  A    between atoms: P2_25  and  O10_28 
REMARK   19  A    between atoms: O10_28  and  C14_29 
REMARK   20  A    between atoms: C14_29  and  C15_30 
REMARK   21  A    between atoms: C16_31  and  O13_49 
REMARK   22  A    between atoms: C17_32  and  O12_48 
REMARK   23  A    between atoms: C18_33  and  N3_35 
REMARK   24  A    between atoms: C21_40  and  N7_47 
REMARK   25  A    between atoms: O13_49  and  P3_50 
REMARK   26  A    between atoms: P3_50  and  O15_52 
REMARK   27  A    between atoms: P3_50  and  O16_53 
ROOT
HETATM    1  C1  UNL     1      -5.053  14.573  22.517  1.00  0.00     0.104 C 
HETATM    2  C2  UNL     1      -4.614  13.496  21.574  1.00  0.00     0.182 C 
HETATM    3  O1  UNL     1      -5.383  12.672  21.086  1.00  0.00    -0.286 OA
ENDROOT
BRANCH   2   4
HETATM    4  S1  UNL     1      -2.886  13.478  21.247  1.00  0.00    -0.091 SA
BRANCH   4   5
HETATM    5  C3  UNL     1      -2.761  11.962  20.245  1.00  0.00     0.102 C 
BRANCH   5   6
HETATM    6  C4  UNL     1      -2.935  12.249  18.752  1.00  0.00     0.133 C 
BRANCH   6   7
HETATM    7  N1  UNL     1      -4.246  11.879  18.260  1.00  0.00    -0.360 N 
HETATM    8  C5  UNL     1      -4.442  11.463  16.964  1.00  0.00     0.219 C 
HETATM    9  O2  UNL     1      -3.544  11.456  16.130  1.00  0.00    -0.274 OA
HETATM   10  H8  UNL     1      -5.034  11.923  18.893  1.00  0.00     0.162 HD
BRANCH   8  11
HETATM   11  C6  UNL     1      -5.874  11.071  16.670  1.00  0.00     0.122 C 
BRANCH  11  12
HETATM   12  C7  UNL     1      -6.349  11.613  15.322  1.00  0.00     0.132 C 
BRANCH  12  13
HETATM   13  N2  UNL     1      -5.782  10.905  14.194  1.00  0.00    -0.358 N 
HETATM   14  C8  UNL     1      -6.508   9.918  13.553  1.00  0.00     0.247 C 
HETATM   15  O3  UNL     1      -7.588   9.526  13.976  1.00  0.00    -0.271 OA
HETATM   16  H13 UNL     1      -5.121  11.437  13.631  1.00  0.00     0.162 HD
BRANCH  14  17
HETATM   17  C9  UNL     1      -5.864   9.375  12.270  1.00  0.00     0.219 C 
BRANCH  17  18
HETATM   18  C10 UNL     1      -5.945  10.334  11.053  1.00  0.00     0.009 C 
HETATM   19  C11 UNL     1      -6.386   9.609   9.773  1.00  0.00     0.020 C 
HETATM   20  C12 UNL     1      -6.935  11.488  11.309  1.00  0.00     0.020 C 
BRANCH  18  21
HETATM   21  C13 UNL     1      -4.511  10.905  10.863  1.00  0.00     0.192 C 
BRANCH  21  22
HETATM   22  O4  UNL     1      -4.169  11.846  11.861  1.00  0.00    -0.296 OA
BRANCH  22  23
HETATM   23  P1  UNL     1      -2.658  12.114  12.324  1.00  0.00     0.401 P 
HETATM   24  O5  UNL     1      -2.465  13.394  13.074  1.00  0.00    -0.631 OA
BRANCH  23  25
HETATM   25  O6  UNL     1      -1.739  11.988  11.008  1.00  0.00    -0.307 OA
HETATM   26  H23 UNL     1      -1.948  11.197  10.495  1.00  0.00     0.222 HD
ENDBRANCH  23  25
BRANCH  23  27
HETATM   27  O7  UNL     1      -2.234  10.805  13.123  1.00  0.00    -0.195 OA
BRANCH  27  28
HETATM   28  P2  UNL     1      -0.695  10.397  13.173  1.00  0.00     0.401 P 
HETATM   29  O8  UNL     1      -0.175   9.575  12.039  1.00  0.00    -0.631 OA
BRANCH  28  30
HETATM   30  O9  UNL     1       0.049  11.798  13.356  1.00  0.00    -0.307 OA
HETATM   31  H24 UNL     1       0.648  11.837  14.141  1.00  0.00     0.222 HD
ENDBRANCH  28  30
BRANCH  28  32
HETATM   32  O10 UNL     1      -0.508   9.773  14.631  1.00  0.00    -0.294 OA
BRANCH  32  33
HETATM   33  C14 UNL     1      -0.056   8.452  14.776  1.00  0.00     0.215 C 
BRANCH  33  34
HETATM   34  C15 UNL     1       1.404   8.546  15.214  1.00  0.00     0.180 C 
HETATM   35  C16 UNL     1       1.530   9.511  16.386  1.00  0.00     0.197 C 
HETATM   36  C17 UNL     1       2.421  10.626  15.872  1.00  0.00     0.199 C 
HETATM   37  C18 UNL     1       3.219   9.921  14.773  1.00  0.00     0.262 C 
HETATM   38  O11 UNL     1       2.272   9.009  14.173  1.00  0.00    -0.353 OA
BRANCH  35  39
HETATM   39  O13 UNL     1       2.122   8.810  17.474  1.00  0.00    -0.286 OA
BRANCH  39  40
HETATM   40  P3  UNL     1       1.361   8.941  18.874  1.00  0.00     0.391 P 
HETATM   41  O14 UNL     1       1.748  10.153  19.659  1.00  0.00    -0.632 OA
BRANCH  40  42
HETATM   42  O15 UNL     1       1.673   7.510  19.519  1.00  0.00    -0.307 OA
HETATM   43  H36 UNL     1       1.692   6.811  18.823  1.00  0.00     0.222 HD
ENDBRANCH  40  42
BRANCH  40  44
HETATM   44  O16 UNL     1      -0.158   8.810  18.421  1.00  0.00    -0.307 OA
HETATM   45  H37 UNL     1      -0.549   9.661  18.166  1.00  0.00     0.222 HD
ENDBRANCH  40  44
ENDBRANCH  39  40
ENDBRANCH  35  39
BRANCH  36  46
HETATM   46  O12 UNL     1       3.159  11.208  16.949  1.00  0.00    -0.388 OA
HETATM   47  H35 UNL     1       3.435  10.461  17.532  1.00  0.00     0.210 HD
ENDBRANCH  36  46
BRANCH  37  48
HETATM   48  N3  UNL     1       3.693  10.836  13.755  1.00  0.00    -0.297 N 
HETATM   49  C19 UNL     1       3.807  12.204  13.854  1.00  0.00     0.188 A 
HETATM   50  N4  UNL     1       4.390  12.733  12.801  1.00  0.00    -0.346 N 
HETATM   51  C20 UNL     1       4.674  11.656  11.980  1.00  0.00     0.116 A 
HETATM   52  H4  UNL     1       4.590  13.718  12.628  1.00  0.00     0.167 HD
HETATM   53  C21 UNL     1       5.324  11.549  10.739  1.00  0.00     0.109 A 
HETATM   54  C23 UNL     1       4.212  10.479  12.541  1.00  0.00     0.142 A 
HETATM   55  N5  UNL     1       5.439  10.324  10.170  1.00  0.00    -0.341 N 
HETATM   56  C22 UNL     1       4.919   9.266  10.823  1.00  0.00     0.183 A 
HETATM   57  H5  UNL     1       5.908  10.207   9.271  1.00  0.00     0.167 HD
HETATM   58  N6  UNL     1       4.286   9.244  12.013  1.00  0.00    -0.336 N 
HETATM   59  H6  UNL     1       3.913   8.404  12.455  1.00  0.00     0.168 HD
BRANCH  53  60
HETATM   60  N7  UNL     1       5.847  12.636  10.056  1.00  0.00    -0.287 NA
HETATM   61  H33 UNL     1       5.834  12.540   9.043  1.00  0.00     0.125 HD
HETATM   62  H34 UNL     1       6.701  12.987  10.469  1.00  0.00     0.125 HD
ENDBRANCH  53  60
ENDBRANCH  37  48
ENDBRANCH  33  34
ENDBRANCH  32  33
ENDBRANCH  28  32
ENDBRANCH  27  28
ENDBRANCH  23  27
ENDBRANCH  22  23
ENDBRANCH  21  22
ENDBRANCH  18  21
ENDBRANCH  17  18
BRANCH  17  63
HETATM   63  O17 UNL     1      -4.488   9.056  12.506  1.00  0.00    -0.385 OA
HETATM   64  H38 UNL     1      -4.129   9.711  13.127  1.00  0.00     0.210 HD
ENDBRANCH  17  63
ENDBRANCH  14  17
ENDBRANCH  12  13
ENDBRANCH  11  12
ENDBRANCH   8  11
ENDBRANCH   6   7
ENDBRANCH   5   6
ENDBRANCH   4   5
ENDBRANCH   2   4
TORSDOF 27
ENDMDL
MODEL 7
REMARK VINA RESULT:      -5.6      3.458      9.457
REMARK  27 active torsions:
REMARK  status: ('A' for Active; 'I' for Inactive)
REMARK    1  A    between atoms: C2_2  and  S1_4 
REMARK    2  A    between atoms: S1_4  and  C3_5 
REMARK    3  A    between atoms: C3_5  and  C4_6 
REMARK    4  A    between atoms: C4_6  and  N1_7 
REMARK       I    between atoms: N1_7  and  C5_8 
REMARK    5  A    between atoms: C5_8  and  C6_10 
REMARK    6  A    between atoms: C6_10  and  C7_11 
REMARK    7  A    between atoms: C7_11  and  N2_12 
REMARK       I    between atoms: N2_12  and  C8_13 
REMARK    8  A    between atoms: C8_13  and  C9_15 
REMARK    9  A    between atoms: C9_15  and  C10_16 
REMARK   10  A    between atoms: C9_15  and  O17_54 
REMARK   11  A    between atoms: C10_16  and  C13_19 
REMARK   12  A    between atoms: C13_19  and  O4_20 
REMARK   13  A    between atoms: O4_20  and  P1_21 
REMARK   14  A    between atoms: P1_21  and  O6_23 
REMARK   15  A    between atoms: P1_21  and  O7_24 
REMARK   16  A    between atoms: O7_24  and  P2_25 
REMARK   17  A    between atoms: P2_25  and  O9_27 
REMARK   18  A    between atoms: P2_25  and  O10_28 
REMARK   19  A    between atoms: O10_28  and  C14_29 
REMARK   20  A    between atoms: C14_29  and  C15_30 
REMARK   21  A    between atoms: C16_31  and  O13_49 
REMARK   22  A    between atoms: C17_32  and  O12_48 
REMARK   23  A    between atoms: C18_33  and  N3_35 
REMARK   24  A    between atoms: C21_40  and  N7_47 
REMARK   25  A    between atoms: O13_49  and  P3_50 
REMARK   26  A    between atoms: P3_50  and  O15_52 
REMARK   27  A    between atoms: P3_50  and  O16_53 
ROOT
HETATM    1  C1  UNL     1       4.189  11.799  12.941  1.00  0.00     0.104 C 
HETATM    2  C2  UNL     1       3.355  10.667  12.424  1.00  0.00     0.182 C 
HETATM    3  O1  UNL     1       2.925  10.616  11.274  1.00  0.00    -0.286 OA
ENDROOT
BRANCH   2   4
HETATM    4  S1  UNL     1       3.001   9.424  13.617  1.00  0.00    -0.091 SA
BRANCH   4   5
HETATM    5  C3  UNL     1       1.656   8.534  12.767  1.00  0.00     0.102 C 
BRANCH   5   6
HETATM    6  C4  UNL     1       0.287   9.145  13.073  1.00  0.00     0.133 C 
BRANCH   6   7
HETATM    7  N1  UNL     1       0.143   9.528  14.463  1.00  0.00    -0.360 N 
HETATM    8  C5  UNL     1      -0.965  10.205  14.916  1.00  0.00     0.219 C 
HETATM    9  O2  UNL     1      -1.853  10.594  14.166  1.00  0.00    -0.274 OA
HETATM   10  H8  UNL     1       0.877   9.282  15.114  1.00  0.00     0.162 HD
BRANCH   8  11
HETATM   11  C6  UNL     1      -0.943  10.460  16.407  1.00  0.00     0.122 C 
BRANCH  11  12
HETATM   12  C7  UNL     1      -1.875  11.604  16.805  1.00  0.00     0.132 C 
BRANCH  12  13
HETATM   13  N2  UNL     1      -1.691  12.792  15.998  1.00  0.00    -0.358 N 
HETATM   14  C8  UNL     1      -0.695  13.699  16.309  1.00  0.00     0.247 C 
HETATM   15  O3  UNL     1      -0.019  13.602  17.326  1.00  0.00    -0.271 OA
HETATM   16  H13 UNL     1      -1.945  12.698  15.016  1.00  0.00     0.162 HD
BRANCH  14  17
HETATM   17  C9  UNL     1      -0.494  14.816  15.274  1.00  0.00     0.219 C 
BRANCH  17  18
HETATM   18  C10 UNL     1       0.746  14.631  14.361  1.00  0.00     0.009 C 
HETATM   19  C11 UNL     1       2.043  15.086  15.047  1.00  0.00     0.020 C 
HETATM   20  C12 UNL     1       0.923  13.159  13.939  1.00  0.00     0.020 C 
BRANCH  18  21
HETATM   21  C13 UNL     1       0.485  15.510  13.104  1.00  0.00     0.192 C 
BRANCH  21  22
HETATM   22  O4  UNL     1       0.035  14.750  12.000  1.00  0.00    -0.296 OA
BRANCH  22  23
HETATM   23  P1  UNL     1      -0.971  15.331  10.895  1.00  0.00     0.401 P 
HETATM   24  O5  UNL     1      -0.364  16.362   9.996  1.00  0.00    -0.631 OA
BRANCH  23  25
HETATM   25  O6  UNL     1      -2.279  15.844  11.681  1.00  0.00    -0.307 OA
HETATM   26  H23 UNL     1      -3.011  16.032  11.080  1.00  0.00     0.222 HD
ENDBRANCH  23  25
BRANCH  23  27
HETATM   27  O7  UNL     1      -1.543  14.050  10.146  1.00  0.00    -0.195 OA
BRANCH  27  28
HETATM   28  P2  UNL     1      -1.632  12.670  10.938  1.00  0.00     0.401 P 
HETATM   29  O8  UNL     1      -0.415  11.803  10.925  1.00  0.00    -0.631 OA
BRANCH  28  30
HETATM   30  O9  UNL     1      -2.098  13.116  12.399  1.00  0.00    -0.307 OA
HETATM   31  H24 UNL     1      -1.553  13.840  12.793  1.00  0.00     0.222 HD
ENDBRANCH  28  30
BRANCH  28  32
HETATM   32  O10 UNL     1      -2.974  11.998  10.394  1.00  0.00    -0.294 OA
BRANCH  32  33
HETATM   33  C14 UNL     1      -3.548  12.447   9.194  1.00  0.00     0.215 C 
BRANCH  33  34
HETATM   34  C15 UNL     1      -4.858  11.678   9.034  1.00  0.00     0.180 C 
HETATM   35  C16 UNL     1      -6.010  12.656   8.843  1.00  0.00     0.197 C 
HETATM   36  C17 UNL     1      -6.917  12.419  10.035  1.00  0.00     0.199 C 
HETATM   37  C18 UNL     1      -6.586  10.973  10.410  1.00  0.00     0.262 C 
HETATM   38  O11 UNL     1      -5.167  10.857  10.166  1.00  0.00    -0.353 OA
BRANCH  35  39
HETATM   39  O13 UNL     1      -6.651  12.347   7.610  1.00  0.00    -0.286 OA
BRANCH  39  40
HETATM   40  P3  UNL     1      -6.642  13.514   6.517  1.00  0.00     0.391 P 
HETATM   41  O14 UNL     1      -7.977  13.767   5.895  1.00  0.00    -0.632 OA
BRANCH  40  42
HETATM   42  O15 UNL     1      -5.460  13.019   5.560  1.00  0.00    -0.307 OA
HETATM   43  H36 UNL     1      -4.952  12.287   5.984  1.00  0.00     0.222 HD
ENDBRANCH  40  42
BRANCH  40  44
HETATM   44  O16 UNL     1      -5.973  14.704   7.332  1.00  0.00    -0.307 OA
HETATM   45  H37 UNL     1      -6.298  15.577   7.059  1.00  0.00     0.222 HD
ENDBRANCH  40  44
ENDBRANCH  39  40
ENDBRANCH  35  39
BRANCH  36  46
HETATM   46  O12 UNL     1      -8.274  12.714   9.692  1.00  0.00    -0.388 OA
HETATM   47  H35 UNL     1      -8.344  13.698   9.658  1.00  0.00     0.210 HD
ENDBRANCH  36  46
BRANCH  37  48
HETATM   48  N3  UNL     1      -6.843  10.687  11.808  1.00  0.00    -0.297 N 
HETATM   49  C19 UNL     1      -7.717   9.756  12.319  1.00  0.00     0.188 A 
HETATM   50  N4  UNL     1      -7.627   9.653  13.627  1.00  0.00    -0.346 N 
HETATM   51  C20 UNL     1      -6.642  10.558  13.981  1.00  0.00     0.116 A 
HETATM   52  H4  UNL     1      -8.163   9.041  14.243  1.00  0.00     0.167 HD
HETATM   53  C21 UNL     1      -6.053  10.891  15.213  1.00  0.00     0.109 A 
HETATM   54  C23 UNL     1      -6.176  11.234  12.868  1.00  0.00     0.142 A 
HETATM   55  N5  UNL     1      -5.096  11.851  15.236  1.00  0.00    -0.341 N 
HETATM   56  C22 UNL     1      -4.758  12.443  14.074  1.00  0.00     0.183 A 
HETATM   57  H5  UNL     1      -4.644  12.117  16.111  1.00  0.00     0.167 HD
HETATM   58  N6  UNL     1      -5.243  12.202  12.838  1.00  0.00    -0.336 N 
HETATM   59  H6  UNL     1      -4.943  12.689  11.994  1.00  0.00     0.168 HD
BRANCH  53  60
HETATM   60  N7  UNL     1      -6.408  10.296  16.413  1.00  0.00    -0.287 NA
HETATM   61  H33 UNL     1      -7.275   9.765  16.377  1.00  0.00     0.125 HD
HETATM   62  H34 UNL     1      -6.279  10.906  17.209  1.00  0.00     0.125 HD
ENDBRANCH  53  60
ENDBRANCH  37  48
ENDBRANCH  33  34
ENDBRANCH  32  33
ENDBRANCH  28  32
ENDBRANCH  27  28
ENDBRANCH  23  27
ENDBRANCH  22  23
ENDBRANCH  21  22
ENDBRANCH  18  21
ENDBRANCH  17  18
BRANCH  17  63
HETATM   63  O17 UNL     1      -1.656  14.934  14.445  1.00  0.00    -0.385 OA
HETATM   64  H38 UNL     1      -2.400  14.515  14.907  1.00  0.00     0.210 HD
ENDBRANCH  17  63
ENDBRANCH  14  17
ENDBRANCH  12  13
ENDBRANCH  11  12
ENDBRANCH   8  11
ENDBRANCH   6   7
ENDBRANCH   5   6
ENDBRANCH   4   5
ENDBRANCH   2   4
TORSDOF 27
ENDMDL
MODEL 8
REMARK VINA RESULT:      -5.6      2.966     10.189
REMARK  27 active torsions:
REMARK  status: ('A' for Active; 'I' for Inactive)
REMARK    1  A    between atoms: C2_2  and  S1_4 
REMARK    2  A    between atoms: S1_4  and  C3_5 
REMARK    3  A    between atoms: C3_5  and  C4_6 
REMARK    4  A    between atoms: C4_6  and  N1_7 
REMARK       I    between atoms: N1_7  and  C5_8 
REMARK    5  A    between atoms: C5_8  and  C6_10 
REMARK    6  A    between atoms: C6_10  and  C7_11 
REMARK    7  A    between atoms: C7_11  and  N2_12 
REMARK       I    between atoms: N2_12  and  C8_13 
REMARK    8  A    between atoms: C8_13  and  C9_15 
REMARK    9  A    between atoms: C9_15  and  C10_16 
REMARK   10  A    between atoms: C9_15  and  O17_54 
REMARK   11  A    between atoms: C10_16  and  C13_19 
REMARK   12  A    between atoms: C13_19  and  O4_20 
REMARK   13  A    between atoms: O4_20  and  P1_21 
REMARK   14  A    between atoms: P1_21  and  O6_23 
REMARK   15  A    between atoms: P1_21  and  O7_24 
REMARK   16  A    between atoms: O7_24  and  P2_25 
REMARK   17  A    between atoms: P2_25  and  O9_27 
REMARK   18  A    between atoms: P2_25  and  O10_28 
REMARK   19  A    between atoms: O10_28  and  C14_29 
REMARK   20  A    between atoms: C14_29  and  C15_30 
REMARK   21  A    between atoms: C16_31  and  O13_49 
REMARK   22  A    between atoms: C17_32  and  O12_48 
REMARK   23  A    between atoms: C18_33  and  N3_35 
REMARK   24  A    between atoms: C21_40  and  N7_47 
REMARK   25  A    between atoms: O13_49  and  P3_50 
REMARK   26  A    between atoms: P3_50  and  O15_52 
REMARK   27  A    between atoms: P3_50  and  O16_53 
ROOT
HETATM    1  C1  UNL     1       0.980  17.293  14.077  1.00  0.00     0.104 C 
HETATM    2  C2  UNL     1       1.170  16.251  13.017  1.00  0.00     0.182 C 
HETATM    3  O1  UNL     1       0.242  15.618  12.520  1.00  0.00    -0.286 OA
ENDROOT
BRANCH   2   4
HETATM    4  S1  UNL     1       2.846  15.973  12.565  1.00  0.00    -0.091 SA
BRANCH   4   5
HETATM    5  C3  UNL     1       2.635  15.482  10.823  1.00  0.00     0.102 C 
BRANCH   5   6
HETATM    6  C4  UNL     1       2.843  13.980  10.624  1.00  0.00     0.133 C 
BRANCH   6   7
HETATM    7  N1  UNL     1       3.869  13.438  11.492  1.00  0.00    -0.360 N 
HETATM    8  C5  UNL     1       3.983  12.087  11.722  1.00  0.00     0.219 C 
HETATM    9  O2  UNL     1       3.183  11.272  11.276  1.00  0.00    -0.274 OA
HETATM   10  H8  UNL     1       4.520  14.074  11.933  1.00  0.00     0.162 HD
BRANCH   8  11
HETATM   11  C6  UNL     1       5.152  11.727  12.613  1.00  0.00     0.122 C 
BRANCH  11  12
HETATM   12  C7  UNL     1       4.707  11.416  14.041  1.00  0.00     0.132 C 
BRANCH  12  13
HETATM   13  N2  UNL     1       3.282  11.186  14.155  1.00  0.00    -0.358 N 
HETATM   14  C8  UNL     1       2.756  10.629  15.305  1.00  0.00     0.247 C 
HETATM   15  O3  UNL     1       3.466  10.204  16.208  1.00  0.00    -0.271 OA
HETATM   16  H13 UNL     1       2.691  11.836  13.640  1.00  0.00     0.162 HD
BRANCH  14  17
HETATM   17  C9  UNL     1       1.221  10.604  15.366  1.00  0.00     0.219 C 
BRANCH  17  18
HETATM   18  C10 UNL     1       0.592   9.203  15.146  1.00  0.00     0.009 C 
HETATM   19  C11 UNL     1       1.494   8.289  14.305  1.00  0.00     0.020 C 
HETATM   20  C12 UNL     1       0.312   8.493  16.486  1.00  0.00     0.020 C 
BRANCH  18  21
HETATM   21  C13 UNL     1      -0.748   9.450  14.394  1.00  0.00     0.192 C 
BRANCH  21  22
HETATM   22  O4  UNL     1      -0.872  10.783  13.940  1.00  0.00    -0.296 OA
BRANCH  22  23
HETATM   23  P1  UNL     1      -0.600  11.214  12.420  1.00  0.00     0.401 P 
HETATM   24  O5  UNL     1       0.192  10.217  11.634  1.00  0.00    -0.631 OA
BRANCH  23  25
HETATM   25  O6  UNL     1       0.061  12.681  12.463  1.00  0.00    -0.307 OA
HETATM   26  H23 UNL     1       0.129  13.020  13.364  1.00  0.00     0.222 HD
ENDBRANCH  23  25
BRANCH  23  27
HETATM   27  O7  UNL     1      -2.038  11.540  11.822  1.00  0.00    -0.195 OA
BRANCH  27  28
HETATM   28  P2  UNL     1      -2.173  12.683  10.720  1.00  0.00     0.401 P 
HETATM   29  O8  UNL     1      -2.446  14.067  11.212  1.00  0.00    -0.631 OA
BRANCH  28  30
HETATM   30  O9  UNL     1      -0.821  12.545   9.882  1.00  0.00    -0.307 OA
HETATM   31  H24 UNL     1      -0.956  12.266   8.943  1.00  0.00     0.222 HD
ENDBRANCH  28  30
BRANCH  28  32
HETATM   32  O10 UNL     1      -3.228  12.092   9.677  1.00  0.00    -0.294 OA
BRANCH  32  33
HETATM   33  C14 UNL     1      -4.213  12.926   9.127  1.00  0.00     0.215 C 
BRANCH  33  34
HETATM   34  C15 UNL     1      -5.487  12.086   9.048  1.00  0.00     0.180 C 
HETATM   35  C16 UNL     1      -6.702  12.999   8.952  1.00  0.00     0.197 C 
HETATM   36  C17 UNL     1      -7.508  12.700  10.202  1.00  0.00     0.199 C 
HETATM   37  C18 UNL     1      -7.071  11.270  10.532  1.00  0.00     0.262 C 
HETATM   38  O11 UNL     1      -5.669  11.238  10.188  1.00  0.00    -0.353 OA
BRANCH  35  39
HETATM   39  O13 UNL     1      -7.411  12.667   7.763  1.00  0.00    -0.286 OA
BRANCH  39  40
HETATM   40  P3  UNL     1      -7.179  13.652   6.525  1.00  0.00     0.391 P 
HETATM   41  O14 UNL     1      -6.057  13.238   5.628  1.00  0.00    -0.632 OA
BRANCH  40  42
HETATM   42  O15 UNL     1      -7.045  15.056   7.280  1.00  0.00    -0.307 OA
HETATM   43  H36 UNL     1      -7.595  15.065   8.099  1.00  0.00     0.222 HD
ENDBRANCH  40  42
BRANCH  40  44
HETATM   44  O16 UNL     1      -8.639  13.717   5.897  1.00  0.00    -0.307 OA
HETATM   45  H37 UNL     1      -9.209  14.367   6.336  1.00  0.00     0.222 HD
ENDBRANCH  40  44
ENDBRANCH  39  40
ENDBRANCH  35  39
BRANCH  36  46
HETATM   46  O12 UNL     1      -8.900  12.921   9.959  1.00  0.00    -0.388 OA
HETATM   47  H35 UNL     1      -9.122  13.785  10.381  1.00  0.00     0.210 HD
ENDBRANCH  36  46
BRANCH  37  48
HETATM   48  N3  UNL     1      -7.213  10.957  11.940  1.00  0.00    -0.297 N 
HETATM   49  C19 UNL     1      -8.171  10.160  12.522  1.00  0.00     0.188 A 
HETATM   50  N4  UNL     1      -7.951   9.972  13.805  1.00  0.00    -0.346 N 
HETATM   51  C20 UNL     1      -6.790  10.677  14.067  1.00  0.00     0.116 A 
HETATM   52  H4  UNL     1      -8.511   9.427  14.461  1.00  0.00     0.167 HD
HETATM   53  C21 UNL     1      -6.015  10.839  15.229  1.00  0.00     0.109 A 
HETATM   54  C23 UNL     1      -6.344  11.324  12.929  1.00  0.00     0.142 A 
HETATM   55  N5  UNL     1      -4.909  11.620  15.167  1.00  0.00    -0.341 N 
HETATM   56  C22 UNL     1      -4.609  12.210  13.993  1.00  0.00     0.183 A 
HETATM   57  H5  UNL     1      -4.321  11.759  15.989  1.00  0.00     0.167 HD
HETATM   58  N6  UNL     1      -5.266  12.121  12.819  1.00  0.00    -0.336 N 
HETATM   59  H6  UNL     1      -4.984  12.596  11.961  1.00  0.00     0.168 HD
BRANCH  53  60
HETATM   60  N7  UNL     1      -6.328  10.247  16.442  1.00  0.00    -0.287 NA
HETATM   61  H33 UNL     1      -7.121  10.669  16.922  1.00  0.00     0.125 HD
HETATM   62  H34 UNL     1      -5.512  10.043  17.003  1.00  0.00     0.125 HD
ENDBRANCH  53  60
ENDBRANCH  37  48
ENDBRANCH  33  34
ENDBRANCH  32  33
ENDBRANCH  28  32
ENDBRANCH  27  28
ENDBRANCH  23  27
ENDBRANCH  22  23
ENDBRANCH  21  22
ENDBRANCH  18  21
ENDBRANCH  17  18
BRANCH  17  63
HETATM   63  O17 UNL     1       0.769  11.114  16.625  1.00  0.00    -0.385 OA
HETATM   64  H38 UNL     1       1.455  10.929  17.289  1.00  0.00     0.210 HD
ENDBRANCH  17  63
ENDBRANCH  14  17
ENDBRANCH  12  13
ENDBRANCH  11  12
ENDBRANCH   8  11
ENDBRANCH   6   7
ENDBRANCH   5   6
ENDBRANCH   4   5
ENDBRANCH   2   4
TORSDOF 27
ENDMDL
MODEL 9
REMARK VINA RESULT:      -5.5      4.343      6.024
REMARK  27 active torsions:
REMARK  status: ('A' for Active; 'I' for Inactive)
REMARK    1  A    between atoms: C2_2  and  S1_4 
REMARK    2  A    between atoms: S1_4  and  C3_5 
REMARK    3  A    between atoms: C3_5  and  C4_6 
REMARK    4  A    between atoms: C4_6  and  N1_7 
REMARK       I    between atoms: N1_7  and  C5_8 
REMARK    5  A    between atoms: C5_8  and  C6_10 
REMARK    6  A    between atoms: C6_10  and  C7_11 
REMARK    7  A    between atoms: C7_11  and  N2_12 
REMARK       I    between atoms: N2_12  and  C8_13 
REMARK    8  A    between atoms: C8_13  and  C9_15 
REMARK    9  A    between atoms: C9_15  and  C10_16 
REMARK   10  A    between atoms: C9_15  and  O17_54 
REMARK   11  A    between atoms: C10_16  and  C13_19 
REMARK   12  A    between atoms: C13_19  and  O4_20 
REMARK   13  A    between atoms: O4_20  and  P1_21 
REMARK   14  A    between atoms: P1_21  and  O6_23 
REMARK   15  A    between atoms: P1_21  and  O7_24 
REMARK   16  A    between atoms: O7_24  and  P2_25 
REMARK   17  A    between atoms: P2_25  and  O9_27 
REMARK   18  A    between atoms: P2_25  and  O10_28 
REMARK   19  A    between atoms: O10_28  and  C14_29 
REMARK   20  A    between atoms: C14_29  and  C15_30 
REMARK   21  A    between atoms: C16_31  and  O13_49 
REMARK   22  A    between atoms: C17_32  and  O12_48 
REMARK   23  A    between atoms: C18_33  and  N3_35 
REMARK   24  A    between atoms: C21_40  and  N7_47 
REMARK   25  A    between atoms: O13_49  and  P3_50 
REMARK   26  A    between atoms: P3_50  and  O15_52 
REMARK   27  A    between atoms: P3_50  and  O16_53 
ROOT
HETATM    1  C1  UNL     1      -5.997  13.693  21.821  1.00  0.00     0.104 C 
HETATM    2  C2  UNL     1      -5.428  12.331  21.563  1.00  0.00     0.182 C 
HETATM    3  O1  UNL     1      -6.107  11.374  21.200  1.00  0.00    -0.286 OA
ENDROOT
BRANCH   2   4
HETATM    4  S1  UNL     1      -3.700  12.199  21.863  1.00  0.00    -0.091 SA
BRANCH   4   5
HETATM    5  C3  UNL     1      -3.188  11.250  20.394  1.00  0.00     0.102 C 
BRANCH   5   6
HETATM    6  C4  UNL     1      -3.531  11.981  19.095  1.00  0.00     0.133 C 
BRANCH   6   7
HETATM    7  N1  UNL     1      -4.523  11.282  18.305  1.00  0.00    -0.360 N 
HETATM    8  C5  UNL     1      -4.886  11.715  17.050  1.00  0.00     0.219 C 
HETATM    9  O2  UNL     1      -4.458  12.754  16.561  1.00  0.00    -0.274 OA
HETATM   10  H8  UNL     1      -4.952  10.449  18.687  1.00  0.00     0.162 HD
BRANCH   8  11
HETATM   11  C6  UNL     1      -5.895  10.813  16.374  1.00  0.00     0.122 C 
BRANCH  11  12
HETATM   12  C7  UNL     1      -6.429  11.423  15.078  1.00  0.00     0.132 C 
BRANCH  12  13
HETATM   13  N2  UNL     1      -5.944  10.751  13.892  1.00  0.00    -0.358 N 
HETATM   14  C8  UNL     1      -6.818  10.050  13.081  1.00  0.00     0.247 C 
HETATM   15  O3  UNL     1      -7.990   9.871  13.388  1.00  0.00    -0.271 OA
HETATM   16  H13 UNL     1      -5.137  11.180  13.444  1.00  0.00     0.162 HD
BRANCH  14  17
HETATM   17  C9  UNL     1      -6.209   9.538  11.768  1.00  0.00     0.219 C 
BRANCH  17  18
HETATM   18  C10 UNL     1      -6.040  10.622  10.671  1.00  0.00     0.009 C 
HETATM   19  C11 UNL     1      -6.500  10.126   9.292  1.00  0.00     0.020 C 
HETATM   20  C12 UNL     1      -6.839  11.896  11.009  1.00  0.00     0.020 C 
BRANCH  18  21
HETATM   21  C13 UNL     1      -4.520  10.951  10.627  1.00  0.00     0.192 C 
BRANCH  21  22
HETATM   22  O4  UNL     1      -4.101  11.706  11.746  1.00  0.00    -0.296 OA
BRANCH  22  23
HETATM   23  P1  UNL     1      -2.582  11.729  12.261  1.00  0.00     0.401 P 
HETATM   24  O5  UNL     1      -2.347  12.627  13.434  1.00  0.00    -0.631 OA
BRANCH  23  25
HETATM   25  O6  UNL     1      -1.663  12.073  10.985  1.00  0.00    -0.307 OA
HETATM   26  H23 UNL     1      -1.228  11.287  10.630  1.00  0.00     0.222 HD
ENDBRANCH  23  25
BRANCH  23  27
HETATM   27  O7  UNL     1      -2.209  10.202  12.508  1.00  0.00    -0.195 OA
BRANCH  27  28
HETATM   28  P2  UNL     1      -0.729   9.836  12.969  1.00  0.00     0.401 P 
HETATM   29  O8  UNL     1       0.019   8.855  12.126  1.00  0.00    -0.631 OA
BRANCH  28  30
HETATM   30  O9  UNL     1      -0.020  11.261  13.092  1.00  0.00    -0.307 OA
HETATM   31  H24 UNL     1       0.615  11.461  12.361  1.00  0.00     0.222 HD
ENDBRANCH  28  30
BRANCH  28  32
HETATM   32  O10 UNL     1      -0.888   9.453  14.511  1.00  0.00    -0.294 OA
BRANCH  32  33
HETATM   33  C14 UNL     1       0.180   8.857  15.200  1.00  0.00     0.215 C 
BRANCH  33  34
HETATM   34  C15 UNL     1       1.115   9.995  15.604  1.00  0.00     0.180 C 
HETATM   35  C16 UNL     1       2.562   9.580  15.374  1.00  0.00     0.197 C 
HETATM   36  C17 UNL     1       3.194   9.608  16.753  1.00  0.00     0.199 C 
HETATM   37  C18 UNL     1       2.310  10.615  17.493  1.00  0.00     0.262 C 
HETATM   38  O11 UNL     1       0.982  10.366  16.982  1.00  0.00    -0.353 OA
BRANCH  35  39
HETATM   39  O13 UNL     1       3.157  10.525  14.491  1.00  0.00    -0.286 OA
BRANCH  39  40
HETATM   40  P3  UNL     1       3.584   9.957  13.059  1.00  0.00     0.391 P 
HETATM   41  O14 UNL     1       2.812  10.546  11.923  1.00  0.00    -0.632 OA
BRANCH  40  42
HETATM   42  O15 UNL     1       3.449   8.383  13.310  1.00  0.00    -0.307 OA
HETATM   43  H36 UNL     1       3.184   7.919  12.480  1.00  0.00     0.222 HD
ENDBRANCH  40  42
BRANCH  40  44
HETATM   44  O16 UNL     1       5.156  10.194  13.082  1.00  0.00    -0.307 OA
HETATM   45  H37 UNL     1       5.622   9.571  13.662  1.00  0.00     0.222 HD
ENDBRANCH  40  44
ENDBRANCH  39  40
ENDBRANCH  35  39
BRANCH  36  46
HETATM   46  O12 UNL     1       4.589   9.909  16.653  1.00  0.00    -0.388 OA
HETATM   47  H35 UNL     1       4.923   9.417  15.865  1.00  0.00     0.210 HD
ENDBRANCH  36  46
BRANCH  37  48
HETATM   48  N3  UNL     1       2.305  10.402  18.926  1.00  0.00    -0.297 N 
HETATM   49  C19 UNL     1       2.780  11.256  19.895  1.00  0.00     0.188 A 
HETATM   50  N4  UNL     1       2.513  10.829  21.110  1.00  0.00    -0.346 N 
HETATM   51  C20 UNL     1       1.828   9.642  20.920  1.00  0.00     0.116 A 
HETATM   52  H4  UNL     1       2.757  11.273  21.995  1.00  0.00     0.167 HD
HETATM   53  C21 UNL     1       1.238   8.729  21.811  1.00  0.00     0.109 A 
HETATM   54  C23 UNL     1       1.727   9.346  19.573  1.00  0.00     0.142 A 
HETATM   55  N5  UNL     1       0.633   7.626  21.306  1.00  0.00    -0.341 N 
HETATM   56  C22 UNL     1       0.632   7.456  19.969  1.00  0.00     0.183 A 
HETATM   57  H5  UNL     1       0.191   6.944  21.921  1.00  0.00     0.167 HD
HETATM   58  N6  UNL     1       1.153   8.261  19.021  1.00  0.00    -0.336 N 
HETATM   59  H6  UNL     1       1.119   8.074  18.019  1.00  0.00     0.168 HD
BRANCH  53  60
HETATM   60  N7  UNL     1       1.249   8.892  23.188  1.00  0.00    -0.287 NA
HETATM   61  H33 UNL     1       0.383   9.262  23.573  1.00  0.00     0.125 HD
HETATM   62  H34 UNL     1       2.110   9.297  23.530  1.00  0.00     0.125 HD
ENDBRANCH  53  60
ENDBRANCH  37  48
ENDBRANCH  33  34
ENDBRANCH  32  33
ENDBRANCH  28  32
ENDBRANCH  27  28
ENDBRANCH  23  27
ENDBRANCH  22  23
ENDBRANCH  21  22
ENDBRANCH  18  21
ENDBRANCH  17  18
BRANCH  17  63
HETATM   63  O17 UNL     1      -4.931   8.941  12.017  1.00  0.00    -0.385 OA
HETATM   64  H38 UNL     1      -5.071   8.142  12.553  1.00  0.00     0.210 HD
ENDBRANCH  17  63
ENDBRANCH  14  17
ENDBRANCH  12  13
ENDBRANCH  11  12
ENDBRANCH   8  11
ENDBRANCH   6   7
ENDBRANCH   5   6
ENDBRANCH   4   5
ENDBRANCH   2   4
TORSDOF 27
ENDMDL
