MODEL 1
REMARK VINA RESULT:      -5.1      0.000      0.000
REMARK  2 active torsions:
REMARK  status: ('A' for Active; 'I' for Inactive)
REMARK    1  A    between atoms: C3_3  and  O1_8 
REMARK    2  A    between atoms: C6_6  and  N1_7 
ROOT
HETATM    1  C1  UNL     1       1.500   6.565  -3.889  1.00  0.00     0.026 A 
HETATM    2  C2  UNL     1       0.164   6.473  -4.284  1.00  0.00     0.038 A 
HETATM    3  C3  UNL     1      -0.357   7.404  -5.172  1.00  0.00     0.065 A 
HETATM    4  C4  UNL     1       0.444   8.419  -5.683  1.00  0.00     0.038 A 
HETATM    5  C5  UNL     1       1.781   8.506  -5.282  1.00  0.00     0.026 A 
HETATM    6  C6  UNL     1       2.307   7.612  -4.344  1.00  0.00     0.005 A 
ENDROOT
BRANCH   6   7
HETATM    7  N1  UNL     1       3.673   7.634  -4.039  1.00  0.00    -0.303 NA
HETATM    8  H5  UNL     1       4.228   8.176  -4.694  1.00  0.00     0.124 HD
HETATM    9  H6  UNL     1       4.069   6.716  -3.865  1.00  0.00     0.124 HD
ENDBRANCH   6   7
BRANCH   3  10
HETATM   10  O1  UNL     1      -1.664   7.279  -5.535  1.00  0.00    -0.361 OA
HETATM   11  H7  UNL     1      -1.849   6.342  -5.708  1.00  0.00     0.217 HD
ENDBRANCH   3  10
TORSDOF 2
ENDMDL
MODEL 2
REMARK VINA RESULT:      -5.1      0.121      1.707
REMARK  2 active torsions:
REMARK  status: ('A' for Active; 'I' for Inactive)
REMARK    1  A    between atoms: C3_3  and  O1_8 
REMARK    2  A    between atoms: C6_6  and  N1_7 
ROOT
HETATM    1  C1  UNL     1       1.758   8.586  -5.271  1.00  0.00     0.026 A 
HETATM    2  C2  UNL     1       0.418   8.436  -5.634  1.00  0.00     0.038 A 
HETATM    3  C3  UNL     1      -0.317   7.372  -5.129  1.00  0.00     0.065 A 
HETATM    4  C4  UNL     1       0.266   6.463  -4.253  1.00  0.00     0.038 A 
HETATM    5  C5  UNL     1       1.608   6.619  -3.896  1.00  0.00     0.026 A 
HETATM    6  C6  UNL     1       2.380   7.650  -4.440  1.00  0.00     0.005 A 
ENDROOT
BRANCH   6   7
HETATM    7  N1  UNL     1       3.686   7.868  -3.986  1.00  0.00    -0.303 NA
HETATM    8  H5  UNL     1       3.767   8.641  -3.332  1.00  0.00     0.124 HD
HETATM    9  H6  UNL     1       4.376   7.916  -4.728  1.00  0.00     0.124 HD
ENDBRANCH   6   7
BRANCH   3  10
HETATM   10  O1  UNL     1      -1.622   7.263  -5.505  1.00  0.00    -0.361 OA
HETATM   11  H7  UNL     1      -1.741   6.418  -5.967  1.00  0.00     0.217 HD
ENDBRANCH   3  10
TORSDOF 2
ENDMDL
MODEL 3
REMARK VINA RESULT:      -5.0      2.782      3.265
REMARK  2 active torsions:
REMARK  status: ('A' for Active; 'I' for Inactive)
REMARK    1  A    between atoms: C3_3  and  O1_8 
REMARK    2  A    between atoms: C6_6  and  N1_7 
ROOT
HETATM    1  C1  UNL     1       0.389   6.490  -4.329  1.00  0.00     0.026 A 
HETATM    2  C2  UNL     1       1.709   6.676  -3.912  1.00  0.00     0.038 A 
HETATM    3  C3  UNL     1       2.434   7.761  -4.385  1.00  0.00     0.065 A 
HETATM    4  C4  UNL     1       1.852   8.674  -5.257  1.00  0.00     0.038 A 
HETATM    5  C5  UNL     1       0.530   8.481  -5.671  1.00  0.00     0.026 A 
HETATM    6  C6  UNL     1      -0.196   7.362  -5.251  1.00  0.00     0.005 A 
ENDROOT
BRANCH   6   7
HETATM    7  N1  UNL     1      -1.553   7.241  -5.574  1.00  0.00    -0.303 NA
HETATM    8  H5  UNL     1      -1.776   6.394  -6.086  1.00  0.00     0.124 HD
HETATM    9  H6  UNL     1      -1.947   8.070  -6.007  1.00  0.00     0.124 HD
ENDBRANCH   6   7
BRANCH   3  10
HETATM   10  O1  UNL     1       3.718   7.908  -3.953  1.00  0.00    -0.361 OA
HETATM   11  H7  UNL     1       4.151   8.587  -4.496  1.00  0.00     0.217 HD
ENDBRANCH   3  10
TORSDOF 2
ENDMDL
MODEL 4
REMARK VINA RESULT:      -4.9      2.779      3.682
REMARK  2 active torsions:
REMARK  status: ('A' for Active; 'I' for Inactive)
REMARK    1  A    between atoms: C3_3  and  O1_8 
REMARK    2  A    between atoms: C6_6  and  N1_7 
ROOT
HETATM    1  C1  UNL     1       0.521   8.476  -5.633  1.00  0.00     0.026 A 
HETATM    2  C2  UNL     1       1.851   8.618  -5.233  1.00  0.00     0.038 A 
HETATM    3  C3  UNL     1       2.408   7.697  -4.358  1.00  0.00     0.065 A 
HETATM    4  C4  UNL     1       1.660   6.623  -3.890  1.00  0.00     0.038 A 
HETATM    5  C5  UNL     1       0.328   6.487  -4.294  1.00  0.00     0.026 A 
HETATM    6  C6  UNL     1      -0.268   7.438  -5.128  1.00  0.00     0.005 A 
ENDROOT
BRANCH   6   7
HETATM    7  N1  UNL     1      -1.562   7.230  -5.621  1.00  0.00    -0.303 NA
HETATM    8  H5  UNL     1      -1.663   7.452  -6.607  1.00  0.00     0.124 HD
HETATM    9  H6  UNL     1      -2.290   7.651  -5.054  1.00  0.00     0.124 HD
ENDBRANCH   6   7
BRANCH   3  10
HETATM   10  O1  UNL     1       3.710   7.869  -3.993  1.00  0.00    -0.361 OA
HETATM   11  H7  UNL     1       4.001   8.746  -4.289  1.00  0.00     0.217 HD
ENDBRANCH   3  10
TORSDOF 2
ENDMDL
MODEL 5
REMARK VINA RESULT:      -4.5      1.202      1.362
REMARK  2 active torsions:
REMARK  status: ('A' for Active; 'I' for Inactive)
REMARK    1  A    between atoms: C3_3  and  O1_8 
REMARK    2  A    between atoms: C6_6  and  N1_7 
ROOT
HETATM    1  C1  UNL     1       0.794   7.272  -4.554  1.00  0.00     0.026 A 
HETATM    2  C2  UNL     1      -0.210   7.073  -5.505  1.00  0.00     0.038 A 
HETATM    3  C3  UNL     1      -0.222   7.837  -6.663  1.00  0.00     0.065 A 
HETATM    4  C4  UNL     1       0.766   8.787  -6.894  1.00  0.00     0.038 A 
HETATM    5  C5  UNL     1       1.767   8.982  -5.938  1.00  0.00     0.026 A 
HETATM    6  C6  UNL     1       1.762   8.263  -4.738  1.00  0.00     0.005 A 
ENDROOT
BRANCH   6   7
HETATM    7  N1  UNL     1       2.832   8.379  -3.843  1.00  0.00    -0.303 NA
HETATM    8  H5  UNL     1       3.162   9.332  -3.723  1.00  0.00     0.124 HD
HETATM    9  H6  UNL     1       3.589   7.728  -4.022  1.00  0.00     0.124 HD
ENDBRANCH   6   7
BRANCH   3  10
HETATM   10  O1  UNL     1      -1.217   7.611  -7.567  1.00  0.00    -0.361 OA
HETATM   11  H7  UNL     1      -1.019   6.790  -8.046  1.00  0.00     0.217 HD
ENDBRANCH   3  10
TORSDOF 2
ENDMDL
MODEL 6
REMARK VINA RESULT:      -4.4      2.582      3.376
REMARK  2 active torsions:
REMARK  status: ('A' for Active; 'I' for Inactive)
REMARK    1  A    between atoms: C3_3  and  O1_8 
REMARK    2  A    between atoms: C6_6  and  N1_7 
ROOT
HETATM    1  C1  UNL     1       0.624   8.021  -5.315  1.00  0.00     0.026 A 
HETATM    2  C2  UNL     1       1.447   8.943  -5.964  1.00  0.00     0.038 A 
HETATM    3  C3  UNL     1       2.813   8.942  -5.715  1.00  0.00     0.065 A 
HETATM    4  C4  UNL     1       3.371   8.019  -4.836  1.00  0.00     0.038 A 
HETATM    5  C5  UNL     1       2.540   7.100  -4.189  1.00  0.00     0.026 A 
HETATM    6  C6  UNL     1       1.155   7.124  -4.383  1.00  0.00     0.005 A 
ENDROOT
BRANCH   6   7
HETATM    7  N1  UNL     1       0.348   6.126  -3.825  1.00  0.00    -0.303 NA
HETATM    8  H5  UNL     1       0.199   6.233  -2.826  1.00  0.00     0.124 HD
HETATM    9  H6  UNL     1       0.628   5.184  -4.075  1.00  0.00     0.124 HD
ENDBRANCH   6   7
BRANCH   3  10
HETATM   10  O1  UNL     1       3.582   9.856  -6.369  1.00  0.00    -0.361 OA
HETATM   11  H7  UNL     1       3.046  10.646  -6.541  1.00  0.00     0.217 HD
ENDBRANCH   3  10
TORSDOF 2
ENDMDL
MODEL 7
REMARK VINA RESULT:      -4.4      1.745      2.226
REMARK  2 active torsions:
REMARK  status: ('A' for Active; 'I' for Inactive)
REMARK    1  A    between atoms: C3_3  and  O1_8 
REMARK    2  A    between atoms: C6_6  and  N1_7 
ROOT
HETATM    1  C1  UNL     1       3.105   8.240  -4.656  1.00  0.00     0.026 A 
HETATM    2  C2  UNL     1       2.416   7.156  -4.107  1.00  0.00     0.038 A 
HETATM    3  C3  UNL     1       1.070   6.979  -4.397  1.00  0.00     0.065 A 
HETATM    4  C4  UNL     1       0.406   7.861  -5.242  1.00  0.00     0.038 A 
HETATM    5  C5  UNL     1       1.102   8.944  -5.786  1.00  0.00     0.026 A 
HETATM    6  C6  UNL     1       2.442   9.173  -5.460  1.00  0.00     0.005 A 
ENDROOT
BRANCH   6   7
HETATM    7  N1  UNL     1       3.161  10.188  -6.102  1.00  0.00    -0.303 NA
HETATM    8  H5  UNL     1       4.075  10.360  -5.695  1.00  0.00     0.124 HD
HETATM    9  H6  UNL     1       2.631  11.042  -6.238  1.00  0.00     0.124 HD
ENDBRANCH   6   7
BRANCH   3  10
HETATM   10  O1  UNL     1       0.434   5.908  -3.844  1.00  0.00    -0.361 OA
HETATM   11  H7  UNL     1       0.646   5.877  -2.897  1.00  0.00     0.217 HD
ENDBRANCH   3  10
TORSDOF 2
ENDMDL
MODEL 8
REMARK VINA RESULT:      -4.3      3.205      3.885
REMARK  2 active torsions:
REMARK  status: ('A' for Active; 'I' for Inactive)
REMARK    1  A    between atoms: C3_3  and  O1_8 
REMARK    2  A    between atoms: C6_6  and  N1_7 
ROOT
HETATM    1  C1  UNL     1       1.316   8.432  -5.692  1.00  0.00     0.026 A 
HETATM    2  C2  UNL     1       1.976   8.511  -4.463  1.00  0.00     0.038 A 
HETATM    3  C3  UNL     1       3.001   9.430  -4.291  1.00  0.00     0.065 A 
HETATM    4  C4  UNL     1       3.367  10.285  -5.325  1.00  0.00     0.038 A 
HETATM    5  C5  UNL     1       2.703  10.200  -6.552  1.00  0.00     0.026 A 
HETATM    6  C6  UNL     1       1.707   9.241  -6.764  1.00  0.00     0.005 A 
ENDROOT
BRANCH   6   7
HETATM    7  N1  UNL     1       0.968   9.242  -7.952  1.00  0.00    -0.303 NA
HETATM    8  H5  UNL     1       1.293   9.922  -8.633  1.00  0.00     0.124 HD
HETATM    9  H6  UNL     1      -0.035   9.286  -7.811  1.00  0.00     0.124 HD
ENDBRANCH   6   7
BRANCH   3  10
HETATM   10  O1  UNL     1       3.619   9.478  -3.077  1.00  0.00    -0.361 OA
HETATM   11  H7  UNL     1       4.574   9.576  -3.219  1.00  0.00     0.217 HD
ENDBRANCH   3  10
TORSDOF 2
ENDMDL
MODEL 9
REMARK VINA RESULT:      -4.3      1.989      2.472
REMARK  2 active torsions:
REMARK  status: ('A' for Active; 'I' for Inactive)
REMARK    1  A    between atoms: C3_3  and  O1_8 
REMARK    2  A    between atoms: C6_6  and  N1_7 
ROOT
HETATM    1  C1  UNL     1       2.071   8.314  -4.307  1.00  0.00     0.026 A 
HETATM    2  C2  UNL     1       1.280   8.182  -5.451  1.00  0.00     0.038 A 
HETATM    3  C3  UNL     1       1.468   9.046  -6.521  1.00  0.00     0.065 A 
HETATM    4  C4  UNL     1       2.447  10.032  -6.471  1.00  0.00     0.038 A 
HETATM    5  C5  UNL     1       3.234  10.160  -5.322  1.00  0.00     0.026 A 
HETATM    6  C6  UNL     1       3.020   9.337  -4.212  1.00  0.00     0.005 A 
ENDROOT
BRANCH   6   7
HETATM    7  N1  UNL     1       3.889   9.392  -3.116  1.00  0.00    -0.303 NA
HETATM    8  H5  UNL     1       3.926  10.304  -2.671  1.00  0.00     0.124 HD
HETATM    9  H6  UNL     1       4.813   9.017  -3.305  1.00  0.00     0.124 HD
ENDBRANCH   6   7
BRANCH   3  10
HETATM   10  O1  UNL     1       0.678   8.883  -7.619  1.00  0.00    -0.361 OA
HETATM   11  H7  UNL     1       1.093   9.339  -8.369  1.00  0.00     0.217 HD
ENDBRANCH   3  10
TORSDOF 2
ENDMDL
MODEL 10
REMARK VINA RESULT:      -4.2      2.917      3.804
REMARK  2 active torsions:
REMARK  status: ('A' for Active; 'I' for Inactive)
REMARK    1  A    between atoms: C3_3  and  O1_8 
REMARK    2  A    between atoms: C6_6  and  N1_7 
ROOT
HETATM    1  C1  UNL     1       1.298   9.075  -7.180  1.00  0.00     0.026 A 
HETATM    2  C2  UNL     1       2.077   9.069  -6.020  1.00  0.00     0.038 A 
HETATM    3  C3  UNL     1       1.658   8.343  -4.914  1.00  0.00     0.065 A 
HETATM    4  C4  UNL     1       0.478   7.609  -4.954  1.00  0.00     0.038 A 
HETATM    5  C5  UNL     1      -0.297   7.621  -6.118  1.00  0.00     0.026 A 
HETATM    6  C6  UNL     1       0.078   8.393  -7.222  1.00  0.00     0.005 A 
ENDROOT
BRANCH   6   7
HETATM    7  N1  UNL     1      -0.640   8.305  -8.420  1.00  0.00    -0.303 NA
HETATM    8  H5  UNL     1      -0.164   7.772  -9.142  1.00  0.00     0.124 HD
HETATM    9  H6  UNL     1      -0.982   9.197  -8.760  1.00  0.00     0.124 HD
ENDBRANCH   6   7
BRANCH   3  10
HETATM   10  O1  UNL     1       2.447   8.360  -3.803  1.00  0.00    -0.361 OA
HETATM   11  H7  UNL     1       2.559   9.281  -3.517  1.00  0.00     0.217 HD
ENDBRANCH   3  10
TORSDOF 2
ENDMDL
MODEL 11
REMARK VINA RESULT:      -4.1      6.643      7.563
REMARK  2 active torsions:
REMARK  status: ('A' for Active; 'I' for Inactive)
REMARK    1  A    between atoms: C3_3  and  O1_8 
REMARK    2  A    between atoms: C6_6  and  N1_7 
ROOT
HETATM    1  C1  UNL     1      -0.999  10.072 -12.033  1.00  0.00     0.026 A 
HETATM    2  C2  UNL     1      -1.302   8.999 -12.874  1.00  0.00     0.038 A 
HETATM    3  C3  UNL     1      -1.053   7.702 -12.451  1.00  0.00     0.065 A 
HETATM    4  C4  UNL     1      -0.519   7.458 -11.191  1.00  0.00     0.038 A 
HETATM    5  C5  UNL     1      -0.216   8.537 -10.355  1.00  0.00     0.026 A 
HETATM    6  C6  UNL     1      -0.406   9.854 -10.786  1.00  0.00     0.005 A 
ENDROOT
BRANCH   6   7
HETATM    7  N1  UNL     1      -0.213  10.921  -9.900  1.00  0.00    -0.303 NA
HETATM    8  H5  UNL     1       0.417  10.705  -9.133  1.00  0.00     0.124 HD
HETATM    9  H6  UNL     1      -1.075  11.352  -9.583  1.00  0.00     0.124 HD
ENDBRANCH   6   7
BRANCH   3  10
HETATM   10  O1  UNL     1      -1.365   6.682 -13.300  1.00  0.00    -0.361 OA
HETATM   11  H7  UNL     1      -2.271   6.814 -13.622  1.00  0.00     0.217 HD
ENDBRANCH   3  10
TORSDOF 2
ENDMDL
MODEL 12
REMARK VINA RESULT:      -4.1      3.085      3.809
REMARK  2 active torsions:
REMARK  status: ('A' for Active; 'I' for Inactive)
REMARK    1  A    between atoms: C3_3  and  O1_8 
REMARK    2  A    between atoms: C6_6  and  N1_7 
ROOT
HETATM    1  C1  UNL     1       0.752   8.272  -5.479  1.00  0.00     0.026 A 
HETATM    2  C2  UNL     1       1.650   9.058  -6.205  1.00  0.00     0.038 A 
HETATM    3  C3  UNL     1       1.420   9.299  -7.552  1.00  0.00     0.065 A 
HETATM    4  C4  UNL     1       0.295   8.778  -8.182  1.00  0.00     0.038 A 
HETATM    5  C5  UNL     1      -0.598   7.991  -7.449  1.00  0.00     0.026 A 
HETATM    6  C6  UNL     1      -0.353   7.688  -6.106  1.00  0.00     0.005 A 
ENDROOT
BRANCH   6   7
HETATM    7  N1  UNL     1      -1.311   7.001  -5.352  1.00  0.00    -0.303 NA
HETATM    8  H5  UNL     1      -1.608   7.499  -4.519  1.00  0.00     0.124 HD
HETATM    9  H6  UNL     1      -1.065   6.036  -5.158  1.00  0.00     0.124 HD
ENDBRANCH   6   7
BRANCH   3  10
HETATM   10  O1  UNL     1       2.317  10.074  -8.224  1.00  0.00    -0.361 OA
HETATM   11  H7  UNL     1       2.632  10.771  -7.627  1.00  0.00     0.217 HD
ENDBRANCH   3  10
TORSDOF 2
ENDMDL
MODEL 13
REMARK VINA RESULT:      -4.0      7.729      8.656
REMARK  2 active torsions:
REMARK  status: ('A' for Active; 'I' for Inactive)
REMARK    1  A    between atoms: C3_3  and  O1_8 
REMARK    2  A    between atoms: C6_6  and  N1_7 
ROOT
HETATM    1  C1  UNL     1      -1.088  10.351 -11.292  1.00  0.00     0.026 A 
HETATM    2  C2  UNL     1      -0.094   9.371 -11.272  1.00  0.00     0.038 A 
HETATM    3  C3  UNL     1       0.016   8.481 -12.332  1.00  0.00     0.065 A 
HETATM    4  C4  UNL     1      -0.844   8.567 -13.421  1.00  0.00     0.038 A 
HETATM    5  C5  UNL     1      -1.838   9.551 -13.433  1.00  0.00     0.026 A 
HETATM    6  C6  UNL     1      -2.002  10.418 -12.349  1.00  0.00     0.005 A 
ENDROOT
BRANCH   6   7
HETATM    7  N1  UNL     1      -2.919  11.473 -12.422  1.00  0.00    -0.303 NA
HETATM    8  H5  UNL     1      -2.505  12.386 -12.260  1.00  0.00     0.124 HD
HETATM    9  H6  UNL     1      -3.758  11.326 -11.871  1.00  0.00     0.124 HD
ENDBRANCH   6   7
BRANCH   3  10
HETATM   10  O1  UNL     1       1.000   7.540 -12.276  1.00  0.00    -0.361 OA
HETATM   11  H7  UNL     1       0.601   6.666 -12.408  1.00  0.00     0.217 HD
ENDBRANCH   3  10
TORSDOF 2
ENDMDL
MODEL 14
REMARK VINA RESULT:      -4.0      3.254      4.222
REMARK  2 active torsions:
REMARK  status: ('A' for Active; 'I' for Inactive)
REMARK    1  A    between atoms: C3_3  and  O1_8 
REMARK    2  A    between atoms: C6_6  and  N1_7 
ROOT
HETATM    1  C1  UNL     1       2.075   8.802  -4.655  1.00  0.00     0.026 A 
HETATM    2  C2  UNL     1       3.135   9.650  -4.984  1.00  0.00     0.038 A 
HETATM    3  C3  UNL     1       4.435   9.165  -4.964  1.00  0.00     0.065 A 
HETATM    4  C4  UNL     1       4.691   7.838  -4.636  1.00  0.00     0.038 A 
HETATM    5  C5  UNL     1       3.625   6.996  -4.307  1.00  0.00     0.026 A 
HETATM    6  C6  UNL     1       2.314   7.481  -4.264  1.00  0.00     0.005 A 
ENDROOT
BRANCH   6   7
HETATM    7  N1  UNL     1       1.244   6.603  -4.051  1.00  0.00    -0.303 NA
HETATM    8  H5  UNL     1       1.069   6.404  -3.071  1.00  0.00     0.124 HD
HETATM    9  H6  UNL     1       1.286   5.761  -4.615  1.00  0.00     0.124 HD
ENDBRANCH   6   7
BRANCH   3  10
HETATM   10  O1  UNL     1       5.441  10.023  -5.293  1.00  0.00    -0.361 OA
HETATM   11  H7  UNL     1       5.084  10.925  -5.314  1.00  0.00     0.217 HD
ENDBRANCH   3  10
TORSDOF 2
ENDMDL
MODEL 15
REMARK VINA RESULT:      -4.0      7.478      8.345
REMARK  2 active torsions:
REMARK  status: ('A' for Active; 'I' for Inactive)
REMARK    1  A    between atoms: C3_3  and  O1_8 
REMARK    2  A    between atoms: C6_6  and  N1_7 
ROOT
HETATM    1  C1  UNL     1      -0.249   9.575 -11.292  1.00  0.00     0.026 A 
HETATM    2  C2  UNL     1      -1.256  10.542 -11.326  1.00  0.00     0.038 A 
HETATM    3  C3  UNL     1      -2.117  10.601 -12.413  1.00  0.00     0.065 A 
HETATM    4  C4  UNL     1      -1.996   9.694 -13.460  1.00  0.00     0.038 A 
HETATM    5  C5  UNL     1      -0.985   8.730 -13.420  1.00  0.00     0.026 A 
HETATM    6  C6  UNL     1      -0.071   8.693 -12.362  1.00  0.00     0.005 A 
ENDROOT
BRANCH   6   7
HETATM    7  N1  UNL     1       0.860   7.652 -12.271  1.00  0.00    -0.303 NA
HETATM    8  H5  UNL     1       1.073   7.216 -13.163  1.00  0.00     0.124 HD
HETATM    9  H6  UNL     1       0.647   6.972 -11.550  1.00  0.00     0.124 HD
ENDBRANCH   6   7
BRANCH   3  10
HETATM   10  O1  UNL     1      -3.088  11.556 -12.407  1.00  0.00    -0.361 OA
HETATM   11  H7  UNL     1      -3.027  12.064 -13.232  1.00  0.00     0.217 HD
ENDBRANCH   3  10
TORSDOF 2
ENDMDL
MODEL 16
REMARK VINA RESULT:      -4.0      3.047      3.961
REMARK  2 active torsions:
REMARK  status: ('A' for Active; 'I' for Inactive)
REMARK    1  A    between atoms: C3_3  and  O1_8 
REMARK    2  A    between atoms: C6_6  and  N1_7 
ROOT
HETATM    1  C1  UNL     1       3.625   8.913  -6.574  1.00  0.00     0.026 A 
HETATM    2  C2  UNL     1       4.262   8.166  -5.581  1.00  0.00     0.038 A 
HETATM    3  C3  UNL     1       3.520   7.645  -4.530  1.00  0.00     0.065 A 
HETATM    4  C4  UNL     1       2.146   7.846  -4.466  1.00  0.00     0.038 A 
HETATM    5  C5  UNL     1       1.515   8.596  -5.463  1.00  0.00     0.026 A 
HETATM    6  C6  UNL     1       2.254   9.178  -6.497  1.00  0.00     0.005 A 
ENDROOT
BRANCH   6   7
HETATM    7  N1  UNL     1       1.601   9.825  -7.553  1.00  0.00    -0.303 NA
HETATM    8  H5  UNL     1       0.603   9.640  -7.589  1.00  0.00     0.124 HD
HETATM    9  H6  UNL     1       2.050   9.698  -8.453  1.00  0.00     0.124 HD
ENDBRANCH   6   7
BRANCH   3  10
HETATM   10  O1  UNL     1       4.178   6.919  -3.583  1.00  0.00    -0.361 OA
HETATM   11  H7  UNL     1       4.764   6.287  -4.028  1.00  0.00     0.217 HD
ENDBRANCH   3  10
TORSDOF 2
ENDMDL
MODEL 17
REMARK VINA RESULT:      -4.0      2.424      3.366
REMARK  2 active torsions:
REMARK  status: ('A' for Active; 'I' for Inactive)
REMARK    1  A    between atoms: C3_3  and  O1_8 
REMARK    2  A    between atoms: C6_6  and  N1_7 
ROOT
HETATM    1  C1  UNL     1       3.323   9.610  -4.972  1.00  0.00     0.026 A 
HETATM    2  C2  UNL     1       2.269   8.770  -4.606  1.00  0.00     0.038 A 
HETATM    3  C3  UNL     1       2.524   7.441  -4.300  1.00  0.00     0.065 A 
HETATM    4  C4  UNL     1       3.821   6.942  -4.338  1.00  0.00     0.038 A 
HETATM    5  C5  UNL     1       4.871   7.789  -4.707  1.00  0.00     0.026 A 
HETATM    6  C6  UNL     1       4.626   9.115  -5.075  1.00  0.00     0.005 A 
ENDROOT
BRANCH   6   7
HETATM    7  N1  UNL     1       5.693   9.985  -5.327  1.00  0.00    -0.303 NA
HETATM    8  H5  UNL     1       6.605   9.576  -5.144  1.00  0.00     0.124 HD
HETATM    9  H6  UNL     1       5.587  10.899  -4.898  1.00  0.00     0.124 HD
ENDBRANCH   6   7
BRANCH   3  10
HETATM   10  O1  UNL     1       1.470   6.654  -3.945  1.00  0.00    -0.361 OA
HETATM   11  H7  UNL     1       0.674   6.982  -4.392  1.00  0.00     0.217 HD
ENDBRANCH   3  10
TORSDOF 2
ENDMDL
MODEL 18
REMARK VINA RESULT:      -4.0      3.077      3.906
REMARK  2 active torsions:
REMARK  status: ('A' for Active; 'I' for Inactive)
REMARK    1  A    between atoms: C3_3  and  O1_8 
REMARK    2  A    between atoms: C6_6  and  N1_7 
ROOT
HETATM    1  C1  UNL     1       1.878   9.490  -7.088  1.00  0.00     0.026 A 
HETATM    2  C2  UNL     1       1.643   8.659  -5.991  1.00  0.00     0.038 A 
HETATM    3  C3  UNL     1       2.315   8.887  -4.799  1.00  0.00     0.065 A 
HETATM    4  C4  UNL     1       3.208   9.947  -4.681  1.00  0.00     0.038 A 
HETATM    5  C5  UNL     1       3.438  10.775  -5.784  1.00  0.00     0.026 A 
HETATM    6  C6  UNL     1       2.815  10.525  -7.011  1.00  0.00     0.005 A 
ENDROOT
BRANCH   6   7
HETATM    7  N1  UNL     1       2.960  11.426  -8.072  1.00  0.00    -0.303 NA
HETATM    8  H5  UNL     1       3.660  12.142  -7.906  1.00  0.00     0.124 HD
HETATM    9  H6  UNL     1       2.083  11.813  -8.405  1.00  0.00     0.124 HD
ENDBRANCH   6   7
BRANCH   3  10
HETATM   10  O1  UNL     1       2.057   8.056  -3.750  1.00  0.00    -0.361 OA
HETATM   11  H7  UNL     1       1.707   8.584  -3.015  1.00  0.00     0.217 HD
ENDBRANCH   3  10
TORSDOF 2
ENDMDL
MODEL 19
REMARK VINA RESULT:      -3.9      2.109      2.982
REMARK  2 active torsions:
REMARK  status: ('A' for Active; 'I' for Inactive)
REMARK    1  A    between atoms: C3_3  and  O1_8 
REMARK    2  A    between atoms: C6_6  and  N1_7 
ROOT
HETATM    1  C1  UNL     1       4.087   8.673  -5.828  1.00  0.00     0.026 A 
HETATM    2  C2  UNL     1       3.270   9.149  -6.856  1.00  0.00     0.038 A 
HETATM    3  C3  UNL     1       1.892   9.155  -6.693  1.00  0.00     0.065 A 
HETATM    4  C4  UNL     1       1.317   8.707  -5.509  1.00  0.00     0.038 A 
HETATM    5  C5  UNL     1       2.141   8.230  -4.485  1.00  0.00     0.026 A 
HETATM    6  C6  UNL     1       3.528   8.161  -4.653  1.00  0.00     0.005 A 
ENDROOT
BRANCH   6   7
HETATM    7  N1  UNL     1       4.350   7.795  -3.581  1.00  0.00    -0.303 NA
HETATM    8  H5  UNL     1       3.867   7.764  -2.689  1.00  0.00     0.124 HD
HETATM    9  H6  UNL     1       5.218   8.319  -3.532  1.00  0.00     0.124 HD
ENDBRANCH   6   7
BRANCH   3  10
HETATM   10  O1  UNL     1       1.130   9.630  -7.718  1.00  0.00    -0.361 OA
HETATM   11  H7  UNL     1       0.616  10.388  -7.396  1.00  0.00     0.217 HD
ENDBRANCH   3  10
TORSDOF 2
ENDMDL
MODEL 20
REMARK VINA RESULT:      -3.9      3.244      3.983
REMARK  2 active torsions:
REMARK  status: ('A' for Active; 'I' for Inactive)
REMARK    1  A    between atoms: C3_3  and  O1_8 
REMARK    2  A    between atoms: C6_6  and  N1_7 
ROOT
HETATM    1  C1  UNL     1       2.388   8.709  -4.260  1.00  0.00     0.026 A 
HETATM    2  C2  UNL     1       3.454   9.570  -4.531  1.00  0.00     0.038 A 
HETATM    3  C3  UNL     1       3.553  10.170  -5.778  1.00  0.00     0.065 A 
HETATM    4  C4  UNL     1       2.593   9.935  -6.756  1.00  0.00     0.038 A 
HETATM    5  C5  UNL     1       1.529   9.072  -6.478  1.00  0.00     0.026 A 
HETATM    6  C6  UNL     1       1.443   8.412  -5.247  1.00  0.00     0.005 A 
ENDROOT
BRANCH   6   7
HETATM    7  N1  UNL     1       0.315   7.645  -4.936  1.00  0.00    -0.303 NA
HETATM    8  H5  UNL     1       0.536   6.722  -4.576  1.00  0.00     0.124 HD
HETATM    9  H6  UNL     1      -0.378   7.615  -5.677  1.00  0.00     0.124 HD
ENDBRANCH   6   7
BRANCH   3  10
HETATM   10  O1  UNL     1       4.607  11.005  -6.003  1.00  0.00    -0.361 OA
HETATM   11  H7  UNL     1       4.667  11.633  -5.265  1.00  0.00     0.217 HD
ENDBRANCH   3  10
TORSDOF 2
ENDMDL
