MODEL 1
REMARK VINA RESULT:      -3.6      0.000      0.000
REMARK  2 active torsions:
REMARK  status: ('A' for Active; 'I' for Inactive)
REMARK    1  A    between atoms: C3_3  and  O1_8 
REMARK    2  A    between atoms: C6_6  and  N1_7 
ROOT
HETATM    1  C1  UNL     1       9.605  14.175   1.068  1.00  0.00     0.026 A 
HETATM    2  C2  UNL     1       9.309  12.813   1.148  1.00  0.00     0.038 A 
HETATM    3  C3  UNL     1       9.664  11.969   0.105  1.00  0.00     0.065 A 
HETATM    4  C4  UNL     1      10.326  12.464  -1.012  1.00  0.00     0.038 A 
HETATM    5  C5  UNL     1      10.618  13.830  -1.087  1.00  0.00     0.026 A 
HETATM    6  C6  UNL     1      10.216  14.705  -0.073  1.00  0.00     0.005 A 
ENDROOT
BRANCH   6   7
HETATM    7  N1  UNL     1      10.616  16.046  -0.100  1.00  0.00    -0.303 NA
HETATM    8  H5  UNL     1       9.844  16.701  -0.168  1.00  0.00     0.124 HD
HETATM    9  H6  UNL     1      11.349  16.242  -0.774  1.00  0.00     0.124 HD
ENDBRANCH   6   7
BRANCH   3  10
HETATM   10  O1  UNL     1       9.360  10.646   0.223  1.00  0.00    -0.361 OA
HETATM   11  H7  UNL     1      10.016  10.132  -0.274  1.00  0.00     0.217 HD
ENDBRANCH   3  10
TORSDOF 2
ENDMDL
MODEL 2
REMARK VINA RESULT:      -3.6      2.778      3.262
REMARK  2 active torsions:
REMARK  status: ('A' for Active; 'I' for Inactive)
REMARK    1  A    between atoms: C3_3  and  O1_8 
REMARK    2  A    between atoms: C6_6  and  N1_7 
ROOT
HETATM    1  C1  UNL     1       9.314  12.952   1.135  1.00  0.00     0.026 A 
HETATM    2  C2  UNL     1       9.662  14.294   0.961  1.00  0.00     0.038 A 
HETATM    3  C3  UNL     1      10.333  14.686  -0.189  1.00  0.00     0.065 A 
HETATM    4  C4  UNL     1      10.647  13.759  -1.177  1.00  0.00     0.038 A 
HETATM    5  C5  UNL     1      10.297  12.418  -0.994  1.00  0.00     0.026 A 
HETATM    6  C6  UNL     1       9.674  11.993   0.184  1.00  0.00     0.005 A 
ENDROOT
BRANCH   6   7
HETATM    7  N1  UNL     1       9.222  10.674   0.305  1.00  0.00    -0.303 NA
HETATM    8  H5  UNL     1       8.507  10.424  -0.371  1.00  0.00     0.124 HD
HETATM    9  H6  UNL     1       8.966  10.414   1.252  1.00  0.00     0.124 HD
ENDBRANCH   6   7
BRANCH   3  10
HETATM   10  O1  UNL     1      10.652  16.004  -0.324  1.00  0.00    -0.361 OA
HETATM   11  H7  UNL     1       9.872  16.536  -0.096  1.00  0.00     0.217 HD
ENDBRANCH   3  10
TORSDOF 2
ENDMDL
MODEL 3
REMARK VINA RESULT:      -3.5      2.779      3.677
REMARK  2 active torsions:
REMARK  status: ('A' for Active; 'I' for Inactive)
REMARK    1  A    between atoms: C3_3  and  O1_8 
REMARK    2  A    between atoms: C6_6  and  N1_7 
ROOT
HETATM    1  C1  UNL     1      10.355  12.432  -1.016  1.00  0.00     0.026 A 
HETATM    2  C2  UNL     1      10.691  13.766  -1.254  1.00  0.00     0.038 A 
HETATM    3  C3  UNL     1      10.356  14.737  -0.320  1.00  0.00     0.065 A 
HETATM    4  C4  UNL     1       9.704  14.390   0.858  1.00  0.00     0.038 A 
HETATM    5  C5  UNL     1       9.370  13.052   1.089  1.00  0.00     0.026 A 
HETATM    6  C6  UNL     1       9.647  12.069   0.133  1.00  0.00     0.005 A 
ENDROOT
BRANCH   6   7
HETATM    7  N1  UNL     1       9.417  10.719   0.424  1.00  0.00    -0.303 NA
HETATM    8  H5  UNL     1       9.186  10.160  -0.392  1.00  0.00     0.124 HD
HETATM    9  H6  UNL     1       8.771  10.569   1.191  1.00  0.00     0.124 HD
ENDBRANCH   6   7
BRANCH   3  10
HETATM   10  O1  UNL     1      10.703  16.027  -0.587  1.00  0.00    -0.361 OA
HETATM   11  H7  UNL     1      10.536  16.204  -1.527  1.00  0.00     0.217 HD
ENDBRANCH   3  10
TORSDOF 2
ENDMDL
MODEL 4
REMARK VINA RESULT:      -3.2      3.249      4.185
REMARK  2 active torsions:
REMARK  status: ('A' for Active; 'I' for Inactive)
REMARK    1  A    between atoms: C3_3  and  O1_8 
REMARK    2  A    between atoms: C6_6  and  N1_7 
ROOT
HETATM    1  C1  UNL     1      10.139  12.567  -2.816  1.00  0.00     0.026 A 
HETATM    2  C2  UNL     1       9.861  13.662  -3.638  1.00  0.00     0.038 A 
HETATM    3  C3  UNL     1       9.862  14.942  -3.101  1.00  0.00     0.065 A 
HETATM    4  C4  UNL     1      10.153  15.146  -1.757  1.00  0.00     0.038 A 
HETATM    5  C5  UNL     1      10.428  14.045  -0.940  1.00  0.00     0.026 A 
HETATM    6  C6  UNL     1      10.374  12.743  -1.449  1.00  0.00     0.005 A 
ENDROOT
BRANCH   6   7
HETATM    7  N1  UNL     1      10.767  11.660  -0.656  1.00  0.00    -0.303 NA
HETATM    8  H5  UNL     1      11.772  11.595  -0.523  1.00  0.00     0.124 HD
HETATM    9  H6  UNL     1      10.357  10.775  -0.936  1.00  0.00     0.124 HD
ENDBRANCH   6   7
BRANCH   3  10
HETATM   10  O1  UNL     1       9.589  15.984  -3.936  1.00  0.00    -0.361 OA
HETATM   11  H7  UNL     1       9.710  15.687  -4.852  1.00  0.00     0.217 HD
ENDBRANCH   3  10
TORSDOF 2
ENDMDL
MODEL 5
REMARK VINA RESULT:      -3.2      2.048      2.954
REMARK  2 active torsions:
REMARK  status: ('A' for Active; 'I' for Inactive)
REMARK    1  A    between atoms: C3_3  and  O1_8 
REMARK    2  A    between atoms: C6_6  and  N1_7 
ROOT
HETATM    1  C1  UNL     1      10.010  13.604  -3.477  1.00  0.00     0.026 A 
HETATM    2  C2  UNL     1      10.267  12.498  -2.664  1.00  0.00     0.038 A 
HETATM    3  C3  UNL     1      10.471  12.676  -1.303  1.00  0.00     0.065 A 
HETATM    4  C4  UNL     1      10.406  13.945  -0.738  1.00  0.00     0.038 A 
HETATM    5  C5  UNL     1      10.150  15.048  -1.558  1.00  0.00     0.026 A 
HETATM    6  C6  UNL     1      10.000  14.895  -2.940  1.00  0.00     0.005 A 
ENDROOT
BRANCH   6   7
HETATM    7  N1  UNL     1       9.626  15.986  -3.733  1.00  0.00    -0.303 NA
HETATM    8  H5  UNL     1      10.413  16.500  -4.117  1.00  0.00     0.124 HD
HETATM    9  H6  UNL     1       8.943  16.596  -3.297  1.00  0.00     0.124 HD
ENDBRANCH   6   7
BRANCH   3  10
HETATM   10  O1  UNL     1      10.717  11.571  -0.544  1.00  0.00    -0.361 OA
HETATM   11  H7  UNL     1      11.164  11.849   0.271  1.00  0.00     0.217 HD
ENDBRANCH   3  10
TORSDOF 2
ENDMDL
MODEL 6
REMARK VINA RESULT:      -3.1      2.626      3.322
REMARK  2 active torsions:
REMARK  status: ('A' for Active; 'I' for Inactive)
REMARK    1  A    between atoms: C3_3  and  O1_8 
REMARK    2  A    between atoms: C6_6  and  N1_7 
ROOT
HETATM    1  C1  UNL     1       9.993  15.169  -1.491  1.00  0.00     0.026 A 
HETATM    2  C2  UNL     1       9.895  15.015  -2.875  1.00  0.00     0.038 A 
HETATM    3  C3  UNL     1      10.058  13.759  -3.441  1.00  0.00     0.065 A 
HETATM    4  C4  UNL     1      10.301  12.648  -2.641  1.00  0.00     0.038 A 
HETATM    5  C5  UNL     1      10.400  12.810  -1.256  1.00  0.00     0.026 A 
HETATM    6  C6  UNL     1      10.297  14.077  -0.672  1.00  0.00     0.005 A 
ENDROOT
BRANCH   6   7
HETATM    7  N1  UNL     1      10.278  14.212   0.720  1.00  0.00    -0.303 NA
HETATM    8  H5  UNL     1       9.497  13.740   1.165  1.00  0.00     0.124 HD
HETATM    9  H6  UNL     1      10.385  15.168   1.041  1.00  0.00     0.124 HD
ENDBRANCH   6   7
BRANCH   3  10
HETATM   10  O1  UNL     1       9.952  13.650  -4.795  1.00  0.00    -0.361 OA
HETATM   11  H7  UNL     1      10.743  13.200  -5.133  1.00  0.00     0.217 HD
ENDBRANCH   3  10
TORSDOF 2
ENDMDL
MODEL 7
REMARK VINA RESULT:      -3.1      1.944      2.431
REMARK  2 active torsions:
REMARK  status: ('A' for Active; 'I' for Inactive)
REMARK    1  A    between atoms: C3_3  and  O1_8 
REMARK    2  A    between atoms: C6_6  and  N1_7 
ROOT
HETATM    1  C1  UNL     1      10.053  14.667  -0.253  1.00  0.00     0.026 A 
HETATM    2  C2  UNL     1      10.392  13.451  -0.852  1.00  0.00     0.038 A 
HETATM    3  C3  UNL     1      10.341  13.327  -2.233  1.00  0.00     0.065 A 
HETATM    4  C4  UNL     1       9.970  14.406  -3.027  1.00  0.00     0.038 A 
HETATM    5  C5  UNL     1       9.631  15.619  -2.421  1.00  0.00     0.026 A 
HETATM    6  C6  UNL     1       9.620  15.747  -1.028  1.00  0.00     0.005 A 
ENDROOT
BRANCH   6   7
HETATM    7  N1  UNL     1       9.395  16.995  -0.436  1.00  0.00    -0.303 NA
HETATM    8  H5  UNL     1       9.250  16.950   0.568  1.00  0.00     0.124 HD
HETATM    9  H6  UNL     1       8.687  17.549  -0.904  1.00  0.00     0.124 HD
ENDBRANCH   6   7
BRANCH   3  10
HETATM   10  O1  UNL     1      10.682  12.126  -2.779  1.00  0.00    -0.361 OA
HETATM   11  H7  UNL     1      11.392  11.734  -2.246  1.00  0.00     0.217 HD
ENDBRANCH   3  10
TORSDOF 2
ENDMDL
MODEL 8
REMARK VINA RESULT:      -3.1      3.083      3.904
REMARK  2 active torsions:
REMARK  status: ('A' for Active; 'I' for Inactive)
REMARK    1  A    between atoms: C3_3  and  O1_8 
REMARK    2  A    between atoms: C6_6  and  N1_7 
ROOT
HETATM    1  C1  UNL     1       9.882  13.179  -3.728  1.00  0.00     0.026 A 
HETATM    2  C2  UNL     1      10.274  12.919  -2.413  1.00  0.00     0.038 A 
HETATM    3  C3  UNL     1      10.312  13.954  -1.489  1.00  0.00     0.065 A 
HETATM    4  C4  UNL     1       9.949  15.244  -1.857  1.00  0.00     0.038 A 
HETATM    5  C5  UNL     1       9.559  15.498  -3.175  1.00  0.00     0.026 A 
HETATM    6  C6  UNL     1       9.570  14.480  -4.135  1.00  0.00     0.005 A 
ENDROOT
BRANCH   6   7
HETATM    7  N1  UNL     1       9.065  14.716  -5.418  1.00  0.00    -0.303 NA
HETATM    8  H5  UNL     1       8.479  15.543  -5.481  1.00  0.00     0.124 HD
HETATM    9  H6  UNL     1       8.633  13.903  -5.846  1.00  0.00     0.124 HD
ENDBRANCH   6   7
BRANCH   3  10
HETATM   10  O1  UNL     1      10.698  13.659  -0.216  1.00  0.00    -0.361 OA
HETATM   11  H7  UNL     1      11.104  14.448   0.175  1.00  0.00     0.217 HD
ENDBRANCH   3  10
TORSDOF 2
ENDMDL
MODEL 9
REMARK VINA RESULT:      -2.3      9.674     10.447
REMARK  2 active torsions:
REMARK  status: ('A' for Active; 'I' for Inactive)
REMARK    1  A    between atoms: C3_3  and  O1_8 
REMARK    2  A    between atoms: C6_6  and  N1_7 
ROOT
HETATM    1  C1  UNL     1       8.277  15.503  -8.383  1.00  0.00     0.026 A 
HETATM    2  C2  UNL     1       7.307  15.997  -9.258  1.00  0.00     0.038 A 
HETATM    3  C3  UNL     1       7.586  16.086 -10.615  1.00  0.00     0.065 A 
HETATM    4  C4  UNL     1       8.817  15.674 -11.113  1.00  0.00     0.038 A 
HETATM    5  C5  UNL     1       9.784  15.182 -10.231  1.00  0.00     0.026 A 
HETATM    6  C6  UNL     1       9.543  15.139  -8.854  1.00  0.00     0.005 A 
ENDROOT
BRANCH   6   7
HETATM    7  N1  UNL     1      10.468  14.536  -7.995  1.00  0.00    -0.303 NA
HETATM    8  H5  UNL     1      10.865  15.172  -7.311  1.00  0.00     0.124 HD
HETATM    9  H6  UNL     1      11.178  13.991  -8.473  1.00  0.00     0.124 HD
ENDBRANCH   6   7
BRANCH   3  10
HETATM   10  O1  UNL     1       6.613  16.571 -11.436  1.00  0.00    -0.361 OA
HETATM   11  H7  UNL     1       6.182  15.823 -11.880  1.00  0.00     0.217 HD
ENDBRANCH   3  10
TORSDOF 2
ENDMDL
MODEL 10
REMARK VINA RESULT:      -2.3      2.428      3.122
REMARK  2 active torsions:
REMARK  status: ('A' for Active; 'I' for Inactive)
REMARK    1  A    between atoms: C3_3  and  O1_8 
REMARK    2  A    between atoms: C6_6  and  N1_7 
ROOT
HETATM    1  C1  UNL     1       9.711  11.957  -0.732  1.00  0.00     0.026 A 
HETATM    2  C2  UNL     1      10.021  12.116  -2.084  1.00  0.00     0.038 A 
HETATM    3  C3  UNL     1      10.472  13.344  -2.547  1.00  0.00     0.065 A 
HETATM    4  C4  UNL     1      10.633  14.413  -1.673  1.00  0.00     0.038 A 
HETATM    5  C5  UNL     1      10.320  14.247  -0.321  1.00  0.00     0.026 A 
HETATM    6  C6  UNL     1       9.808  13.035   0.153  1.00  0.00     0.005 A 
ENDROOT
BRANCH   6   7
HETATM    7  N1  UNL     1       9.611  12.841   1.525  1.00  0.00    -0.303 NA
HETATM    8  H5  UNL     1       8.659  12.585   1.768  1.00  0.00     0.124 HD
HETATM    9  H6  UNL     1       9.967  13.596   2.101  1.00  0.00     0.124 HD
ENDBRANCH   6   7
BRANCH   3  10
HETATM   10  O1  UNL     1      10.767  13.458  -3.872  1.00  0.00    -0.361 OA
HETATM   11  H7  UNL     1      11.327  12.709  -4.131  1.00  0.00     0.217 HD
ENDBRANCH   3  10
TORSDOF 2
ENDMDL
MODEL 11
REMARK VINA RESULT:      -2.2      9.714     10.602
REMARK  2 active torsions:
REMARK  status: ('A' for Active; 'I' for Inactive)
REMARK    1  A    between atoms: C3_3  and  O1_8 
REMARK    2  A    between atoms: C6_6  and  N1_7 
ROOT
HETATM    1  C1  UNL     1       8.862  15.619 -11.212  1.00  0.00     0.026 A 
HETATM    2  C2  UNL     1       9.863  15.254 -10.309  1.00  0.00     0.038 A 
HETATM    3  C3  UNL     1       9.598  15.264  -8.947  1.00  0.00     0.065 A 
HETATM    4  C4  UNL     1       8.339  15.618  -8.474  1.00  0.00     0.038 A 
HETATM    5  C5  UNL     1       7.343  15.983  -9.384  1.00  0.00     0.026 A 
HETATM    6  C6  UNL     1       7.608  16.036 -10.756  1.00  0.00     0.005 A 
ENDROOT
BRANCH   6   7
HETATM    7  N1  UNL     1       6.574  16.286 -11.665  1.00  0.00    -0.303 NA
HETATM    8  H5  UNL     1       5.674  15.922 -11.369  1.00  0.00     0.124 HD
HETATM    9  H6  UNL     1       6.798  16.033 -12.621  1.00  0.00     0.124 HD
ENDBRANCH   6   7
BRANCH   3  10
HETATM   10  O1  UNL     1      10.600  14.899  -8.098  1.00  0.00    -0.361 OA
HETATM   11  H7  UNL     1      11.015  14.091  -8.439  1.00  0.00     0.217 HD
ENDBRANCH   3  10
TORSDOF 2
ENDMDL
MODEL 12
REMARK VINA RESULT:      -2.1      9.664     10.449
REMARK  2 active torsions:
REMARK  status: ('A' for Active; 'I' for Inactive)
REMARK    1  A    between atoms: C3_3  and  O1_8 
REMARK    2  A    between atoms: C6_6  and  N1_7 
ROOT
HETATM    1  C1  UNL     1       7.554  16.118 -10.281  1.00  0.00     0.026 A 
HETATM    2  C2  UNL     1       7.761  15.843  -8.927  1.00  0.00     0.038 A 
HETATM    3  C3  UNL     1       8.968  15.298  -8.513  1.00  0.00     0.065 A 
HETATM    4  C4  UNL     1       9.979  15.036  -9.431  1.00  0.00     0.038 A 
HETATM    5  C5  UNL     1       9.764  15.312 -10.784  1.00  0.00     0.026 A 
HETATM    6  C6  UNL     1       8.534  15.807 -11.229  1.00  0.00     0.005 A 
ENDROOT
BRANCH   6   7
HETATM    7  N1  UNL     1       8.370  16.192 -12.565  1.00  0.00    -0.303 NA
HETATM    8  H5  UNL     1       9.222  16.131 -13.114  1.00  0.00     0.124 HD
HETATM    9  H6  UNL     1       7.898  17.082 -12.681  1.00  0.00     0.124 HD
ENDBRANCH   6   7
BRANCH   3  10
HETATM   10  O1  UNL     1       9.132  15.047  -7.183  1.00  0.00    -0.361 OA
HETATM   11  H7  UNL     1       9.776  14.328  -7.081  1.00  0.00     0.217 HD
ENDBRANCH   3  10
TORSDOF 2
ENDMDL
MODEL 13
REMARK VINA RESULT:      -2.0     11.290     12.117
REMARK  2 active torsions:
REMARK  status: ('A' for Active; 'I' for Inactive)
REMARK    1  A    between atoms: C3_3  and  O1_8 
REMARK    2  A    between atoms: C6_6  and  N1_7 
ROOT
HETATM    1  C1  UNL     1       7.048  15.802 -12.015  1.00  0.00     0.026 A 
HETATM    2  C2  UNL     1       7.958  15.060 -12.771  1.00  0.00     0.038 A 
HETATM    3  C3  UNL     1       9.236  14.832 -12.279  1.00  0.00     0.065 A 
HETATM    4  C4  UNL     1       9.612  15.322 -11.033  1.00  0.00     0.038 A 
HETATM    5  C5  UNL     1       8.696  16.064 -10.283  1.00  0.00     0.026 A 
HETATM    6  C6  UNL     1       7.424  16.354 -10.787  1.00  0.00     0.005 A 
ENDROOT
BRANCH   6   7
HETATM    7  N1  UNL     1       6.475  16.995  -9.982  1.00  0.00    -0.303 NA
HETATM    8  H5  UNL     1       5.672  17.343 -10.496  1.00  0.00     0.124 HD
HETATM    9  H6  UNL     1       6.869  17.694  -9.361  1.00  0.00     0.124 HD
ENDBRANCH   6   7
BRANCH   3  10
HETATM   10  O1  UNL     1      10.094  14.101 -13.045  1.00  0.00    -0.361 OA
HETATM   11  H7  UNL     1      10.996  14.425 -12.893  1.00  0.00     0.217 HD
ENDBRANCH   3  10
TORSDOF 2
ENDMDL
MODEL 14
REMARK VINA RESULT:      -2.0     12.106     12.910
REMARK  2 active torsions:
REMARK  status: ('A' for Active; 'I' for Inactive)
REMARK    1  A    between atoms: C3_3  and  O1_8 
REMARK    2  A    between atoms: C6_6  and  N1_7 
ROOT
HETATM    1  C1  UNL     1       8.869  14.372 -13.132  1.00  0.00     0.026 A 
HETATM    2  C2  UNL     1       7.497  14.372 -13.396  1.00  0.00     0.038 A 
HETATM    3  C3  UNL     1       6.641  15.102 -12.583  1.00  0.00     0.065 A 
HETATM    4  C4  UNL     1       7.138  15.845 -11.518  1.00  0.00     0.038 A 
HETATM    5  C5  UNL     1       8.512  15.839 -11.260  1.00  0.00     0.026 A 
HETATM    6  C6  UNL     1       9.383  15.064 -12.031  1.00  0.00     0.005 A 
ENDROOT
BRANCH   6   7
HETATM    7  N1  UNL     1      10.766  15.157 -11.840  1.00  0.00    -0.303 NA
HETATM    8  H5  UNL     1      11.029  15.679 -11.010  1.00  0.00     0.124 HD
HETATM    9  H6  UNL     1      11.275  15.460 -12.664  1.00  0.00     0.124 HD
ENDBRANCH   6   7
BRANCH   3  10
HETATM   10  O1  UNL     1       5.310  15.079 -12.875  1.00  0.00    -0.361 OA
HETATM   11  H7  UNL     1       4.978  14.177 -12.737  1.00  0.00     0.217 HD
ENDBRANCH   3  10
TORSDOF 2
ENDMDL
MODEL 15
REMARK VINA RESULT:      -1.9     12.135     12.990
REMARK  2 active torsions:
REMARK  status: ('A' for Active; 'I' for Inactive)
REMARK    1  A    between atoms: C3_3  and  O1_8 
REMARK    2  A    between atoms: C6_6  and  N1_7 
ROOT
HETATM    1  C1  UNL     1       7.584  14.356 -13.435  1.00  0.00     0.026 A 
HETATM    2  C2  UNL     1       8.944  14.293 -13.123  1.00  0.00     0.038 A 
HETATM    3  C3  UNL     1       9.435  15.003 -12.037  1.00  0.00     0.065 A 
HETATM    4  C4  UNL     1       8.582  15.766 -11.246  1.00  0.00     0.038 A 
HETATM    5  C5  UNL     1       7.223  15.826 -11.565  1.00  0.00     0.026 A 
HETATM    6  C6  UNL     1       6.720  15.164 -12.690  1.00  0.00     0.005 A 
ENDROOT
BRANCH   6   7
HETATM    7  N1  UNL     1       5.341  15.133 -12.931  1.00  0.00    -0.303 NA
HETATM    8  H5  UNL     1       5.007  14.237 -13.272  1.00  0.00     0.124 HD
HETATM    9  H6  UNL     1       5.005  15.909 -13.491  1.00  0.00     0.124 HD
ENDBRANCH   6   7
BRANCH   3  10
HETATM   10  O1  UNL     1      10.767  14.913 -11.764  1.00  0.00    -0.361 OA
HETATM   11  H7  UNL     1      11.219  14.550 -12.543  1.00  0.00     0.217 HD
ENDBRANCH   3  10
TORSDOF 2
ENDMDL
MODEL 16
REMARK VINA RESULT:      -1.9     12.318     12.873
REMARK  2 active torsions:
REMARK  status: ('A' for Active; 'I' for Inactive)
REMARK    1  A    between atoms: C3_3  and  O1_8 
REMARK    2  A    between atoms: C6_6  and  N1_7 
ROOT
HETATM    1  C1  UNL     1       8.866  13.797 -13.475  1.00  0.00     0.026 A 
HETATM    2  C2  UNL     1       8.512  12.446 -13.473  1.00  0.00     0.038 A 
HETATM    3  C3  UNL     1       9.279  11.535 -12.761  1.00  0.00     0.065 A 
HETATM    4  C4  UNL     1      10.387  11.957 -12.035  1.00  0.00     0.038 A 
HETATM    5  C5  UNL     1      10.737  13.311 -12.043  1.00  0.00     0.026 A 
HETATM    6  C6  UNL     1      10.011  14.234 -12.802  1.00  0.00     0.005 A 
ENDROOT
BRANCH   6   7
HETATM    7  N1  UNL     1      10.296  15.602 -12.709  1.00  0.00    -0.303 NA
HETATM    8  H5  UNL     1      10.366  15.939 -11.754  1.00  0.00     0.124 HD
HETATM    9  H6  UNL     1       9.696  16.186 -13.282  1.00  0.00     0.124 HD
ENDBRANCH   6   7
BRANCH   3  10
HETATM   10  O1  UNL     1       8.899  10.227 -12.782  1.00  0.00    -0.361 OA
HETATM   11  H7  UNL     1       9.690   9.676 -12.898  1.00  0.00     0.217 HD
ENDBRANCH   3  10
TORSDOF 2
ENDMDL
MODEL 17
REMARK VINA RESULT:      -1.8      8.592      9.517
REMARK  2 active torsions:
REMARK  status: ('A' for Active; 'I' for Inactive)
REMARK    1  A    between atoms: C3_3  and  O1_8 
REMARK    2  A    between atoms: C6_6  and  N1_7 
ROOT
HETATM    1  C1  UNL     1      10.597  14.811  -8.037  1.00  0.00     0.026 A 
HETATM    2  C2  UNL     1      10.768  14.974  -9.413  1.00  0.00     0.038 A 
HETATM    3  C3  UNL     1       9.739  15.509 -10.175  1.00  0.00     0.065 A 
HETATM    4  C4  UNL     1       8.546  15.900  -9.579  1.00  0.00     0.038 A 
HETATM    5  C5  UNL     1       8.381  15.732  -8.200  1.00  0.00     0.026 A 
HETATM    6  C6  UNL     1       9.384  15.141  -7.425  1.00  0.00     0.005 A 
ENDROOT
BRANCH   6   7
HETATM    7  N1  UNL     1       9.258  15.087  -6.032  1.00  0.00    -0.303 NA
HETATM    8  H5  UNL     1      10.133  14.899  -5.551  1.00  0.00     0.124 HD
HETATM    9  H6  UNL     1       8.505  14.489  -5.711  1.00  0.00     0.124 HD
ENDBRANCH   6   7
BRANCH   3  10
HETATM   10  O1  UNL     1       9.946  15.655 -11.514  1.00  0.00    -0.361 OA
HETATM   11  H7  UNL     1      10.894  15.552 -11.695  1.00  0.00     0.217 HD
ENDBRANCH   3  10
TORSDOF 2
ENDMDL
MODEL 18
REMARK VINA RESULT:      -1.8     11.496     12.297
REMARK  2 active torsions:
REMARK  status: ('A' for Active; 'I' for Inactive)
REMARK    1  A    between atoms: C3_3  and  O1_8 
REMARK    2  A    between atoms: C6_6  and  N1_7 
ROOT
HETATM    1  C1  UNL     1       7.283  15.980 -10.722  1.00  0.00     0.026 A 
HETATM    2  C2  UNL     1       8.484  16.467 -10.203  1.00  0.00     0.038 A 
HETATM    3  C3  UNL     1       9.615  16.505 -11.006  1.00  0.00     0.065 A 
HETATM    4  C4  UNL     1       9.559  16.078 -12.328  1.00  0.00     0.038 A 
HETATM    5  C5  UNL     1       8.353  15.590 -12.840  1.00  0.00     0.026 A 
HETATM    6  C6  UNL     1       7.218  15.490 -12.030  1.00  0.00     0.005 A 
ENDROOT
BRANCH   6   7
HETATM    7  N1  UNL     1       5.988  15.114 -12.582  1.00  0.00    -0.303 NA
HETATM    8  H5  UNL     1       5.444  14.498 -11.985  1.00  0.00     0.124 HD
HETATM    9  H6  UNL     1       6.054  14.770 -13.534  1.00  0.00     0.124 HD
ENDBRANCH   6   7
BRANCH   3  10
HETATM   10  O1  UNL     1      10.768  16.990 -10.464  1.00  0.00    -0.361 OA
HETATM   11  H7  UNL     1      10.787  17.952 -10.587  1.00  0.00     0.217 HD
ENDBRANCH   3  10
TORSDOF 2
ENDMDL
