MODEL 1
REMARK VINA RESULT:      -7.5      0.000      0.000
REMARK  27 active torsions:
REMARK  status: ('A' for Active; 'I' for Inactive)
REMARK    1  A    between atoms: C2_2  and  S1_4 
REMARK    2  A    between atoms: S1_4  and  C3_5 
REMARK    3  A    between atoms: C3_5  and  C4_6 
REMARK    4  A    between atoms: C4_6  and  N1_7 
REMARK       I    between atoms: N1_7  and  C5_8 
REMARK    5  A    between atoms: C5_8  and  C6_10 
REMARK    6  A    between atoms: C6_10  and  C7_11 
REMARK    7  A    between atoms: C7_11  and  N2_12 
REMARK       I    between atoms: N2_12  and  C8_13 
REMARK    8  A    between atoms: C8_13  and  C9_15 
REMARK    9  A    between atoms: C9_15  and  C10_16 
REMARK   10  A    between atoms: C9_15  and  O17_54 
REMARK   11  A    between atoms: C10_16  and  C13_19 
REMARK   12  A    between atoms: C13_19  and  O4_20 
REMARK   13  A    between atoms: O4_20  and  P1_21 
REMARK   14  A    between atoms: P1_21  and  O6_23 
REMARK   15  A    between atoms: P1_21  and  O7_24 
REMARK   16  A    between atoms: O7_24  and  P2_25 
REMARK   17  A    between atoms: P2_25  and  O9_27 
REMARK   18  A    between atoms: P2_25  and  O10_28 
REMARK   19  A    between atoms: O10_28  and  C14_29 
REMARK   20  A    between atoms: C14_29  and  C15_30 
REMARK   21  A    between atoms: C16_31  and  O13_49 
REMARK   22  A    between atoms: C17_32  and  O12_48 
REMARK   23  A    between atoms: C18_33  and  N3_35 
REMARK   24  A    between atoms: C21_40  and  N7_47 
REMARK   25  A    between atoms: O13_49  and  P3_50 
REMARK   26  A    between atoms: P3_50  and  O15_52 
REMARK   27  A    between atoms: P3_50  and  O16_53 
ROOT
HETATM    1  C1  UNL     1       2.067   9.247  -6.835  1.00  0.00     0.104 C 
HETATM    2  C2  UNL     1       3.268   9.496  -5.975  1.00  0.00     0.182 C 
HETATM    3  O1  UNL     1       4.348   9.880  -6.418  1.00  0.00    -0.286 OA
ENDROOT
BRANCH   2   4
HETATM    4  S1  UNL     1       3.021   9.153  -4.268  1.00  0.00    -0.091 SA
BRANCH   4   5
HETATM    5  C3  UNL     1       3.228   7.343  -4.268  1.00  0.00     0.102 C 
BRANCH   5   6
HETATM    6  C4  UNL     1       4.654   6.932  -3.893  1.00  0.00     0.133 C 
BRANCH   6   7
HETATM    7  N1  UNL     1       5.658   7.614  -4.683  1.00  0.00    -0.360 N 
HETATM    8  C5  UNL     1       6.761   8.198  -4.105  1.00  0.00     0.219 C 
HETATM    9  O2  UNL     1       6.920   8.249  -2.891  1.00  0.00    -0.274 OA
HETATM   10  H8  UNL     1       5.544   7.651  -5.687  1.00  0.00     0.162 HD
BRANCH   8  11
HETATM   11  C6  UNL     1       7.713   8.807  -5.111  1.00  0.00     0.122 C 
BRANCH  11  12
HETATM   12  C7  UNL     1       7.902  10.307  -4.883  1.00  0.00     0.132 C 
BRANCH  12  13
HETATM   13  N2  UNL     1       7.079  11.120  -5.754  1.00  0.00    -0.358 N 
HETATM   14  C8  UNL     1       7.657  11.850  -6.776  1.00  0.00     0.247 C 
HETATM   15  O3  UNL     1       8.871  11.934  -6.911  1.00  0.00    -0.271 OA
HETATM   16  H13 UNL     1       6.130  10.782  -5.902  1.00  0.00     0.162 HD
BRANCH  14  17
HETATM   17  C9  UNL     1       6.659  12.525  -7.730  1.00  0.00     0.219 C 
BRANCH  17  18
HETATM   18  C10 UNL     1       6.485  11.804  -9.092  1.00  0.00     0.009 C 
HETATM   19  C11 UNL     1       7.430  12.361 -10.167  1.00  0.00     0.020 C 
HETATM   20  C12 UNL     1       6.748  10.289  -8.968  1.00  0.00     0.020 C 
BRANCH  18  21
HETATM   21  C13 UNL     1       5.008  12.047  -9.518  1.00  0.00     0.192 C 
BRANCH  21  22
HETATM   22  O4  UNL     1       4.843  13.265 -10.214  1.00  0.00    -0.296 OA
BRANCH  22  23
HETATM   23  P1  UNL     1       3.617  14.263  -9.944  1.00  0.00     0.401 P 
HETATM   24  O5  UNL     1       3.909  15.694 -10.268  1.00  0.00    -0.631 OA
BRANCH  23  25
HETATM   25  O6  UNL     1       3.149  14.024  -8.422  1.00  0.00    -0.307 OA
HETATM   26  H23 UNL     1       2.295  13.577  -8.372  1.00  0.00     0.222 HD
ENDBRANCH  23  25
BRANCH  23  27
HETATM   27  O7  UNL     1       2.393  13.637 -10.745  1.00  0.00    -0.195 OA
BRANCH  27  28
HETATM   28  P2  UNL     1       1.214  12.942  -9.930  1.00  0.00     0.401 P 
HETATM   29  O8  UNL     1       1.583  11.784  -9.060  1.00  0.00    -0.631 OA
BRANCH  28  30
HETATM   30  O9  UNL     1       0.545  14.160  -9.143  1.00  0.00    -0.307 OA
HETATM   31  H24 UNL     1       0.904  14.298  -8.233  1.00  0.00     0.222 HD
ENDBRANCH  28  30
BRANCH  28  32
HETATM   32  O10 UNL     1       0.096  12.657 -11.034  1.00  0.00    -0.294 OA
BRANCH  32  33
HETATM   33  C14 UNL     1      -1.199  12.284 -10.643  1.00  0.00     0.215 C 
BRANCH  33  34
HETATM   34  C15 UNL     1      -1.724  11.355 -11.736  1.00  0.00     0.180 C 
HETATM   35  C16 UNL     1      -0.621  10.402 -12.177  1.00  0.00     0.197 C 
HETATM   36  C17 UNL     1      -0.395  10.726 -13.641  1.00  0.00     0.199 C 
HETATM   37  C18 UNL     1      -1.746  11.313 -14.055  1.00  0.00     0.262 C 
HETATM   38  O11 UNL     1      -2.180  12.060 -12.897  1.00  0.00    -0.353 OA
BRANCH  35  39
HETATM   39  O13 UNL     1      -1.088   9.070 -11.988  1.00  0.00    -0.286 OA
BRANCH  39  40
HETATM   40  P3  UNL     1      -0.177   8.146 -11.054  1.00  0.00     0.391 P 
HETATM   41  O14 UNL     1      -0.955   7.307 -10.093  1.00  0.00    -0.632 OA
BRANCH  40  42
HETATM   42  O15 UNL     1       0.826   9.233 -10.445  1.00  0.00    -0.307 OA
HETATM   43  H36 UNL     1       0.368  10.098 -10.319  1.00  0.00     0.222 HD
ENDBRANCH  40  42
BRANCH  40  44
HETATM   44  O16 UNL     1       0.717   7.393 -12.133  1.00  0.00    -0.307 OA
HETATM   45  H37 UNL     1       1.645   7.677 -12.116  1.00  0.00     0.222 HD
ENDBRANCH  40  44
ENDBRANCH  39  40
ENDBRANCH  35  39
BRANCH  36  46
HETATM   46  O12 UNL     1       0.059   9.565 -14.342  1.00  0.00    -0.388 OA
HETATM   47  H35 UNL     1      -0.660   8.894 -14.263  1.00  0.00     0.210 HD
ENDBRANCH  36  46
BRANCH  37  48
HETATM   48  N3  UNL     1      -1.638  12.219 -15.181  1.00  0.00    -0.297 N 
HETATM   49  C19 UNL     1      -0.519  12.475 -15.937  1.00  0.00     0.188 A 
HETATM   50  N4  UNL     1      -0.779  13.250 -16.967  1.00  0.00    -0.346 N 
HETATM   51  C20 UNL     1      -2.136  13.506 -16.877  1.00  0.00     0.116 A 
HETATM   52  H4  UNL     1      -0.127  13.588 -17.675  1.00  0.00     0.167 HD
HETATM   53  C21 UNL     1      -3.026  14.228 -17.691  1.00  0.00     0.109 A 
HETATM   54  C23 UNL     1      -2.673  12.905 -15.753  1.00  0.00     0.142 A 
HETATM   55  N5  UNL     1      -4.327  14.305 -17.320  1.00  0.00    -0.341 N 
HETATM   56  C22 UNL     1      -4.705  13.688 -16.183  1.00  0.00     0.183 A 
HETATM   57  H5  UNL     1      -5.003  14.817 -17.887  1.00  0.00     0.167 HD
HETATM   58  N6  UNL     1      -3.949  12.964 -15.332  1.00  0.00    -0.336 N 
HETATM   59  H6  UNL     1      -4.299  12.519 -14.483  1.00  0.00     0.168 HD
BRANCH  53  60
HETATM   60  N7  UNL     1      -2.640  14.877 -18.853  1.00  0.00    -0.287 NA
HETATM   61  H33 UNL     1      -2.023  15.673 -18.703  1.00  0.00     0.125 HD
HETATM   62  H34 UNL     1      -3.403  15.008 -19.503  1.00  0.00     0.125 HD
ENDBRANCH  53  60
ENDBRANCH  37  48
ENDBRANCH  33  34
ENDBRANCH  32  33
ENDBRANCH  28  32
ENDBRANCH  27  28
ENDBRANCH  23  27
ENDBRANCH  22  23
ENDBRANCH  21  22
ENDBRANCH  18  21
ENDBRANCH  17  18
BRANCH  17  63
HETATM   63  O17 UNL     1       5.375  12.632  -7.105  1.00  0.00    -0.385 OA
HETATM   64  H38 UNL     1       4.916  11.782  -7.212  1.00  0.00     0.210 HD
ENDBRANCH  17  63
ENDBRANCH  14  17
ENDBRANCH  12  13
ENDBRANCH  11  12
ENDBRANCH   8  11
ENDBRANCH   6   7
ENDBRANCH   5   6
ENDBRANCH   4   5
ENDBRANCH   2   4
TORSDOF 27
ENDMDL
MODEL 2
REMARK VINA RESULT:      -6.9      5.222      9.973
REMARK  27 active torsions:
REMARK  status: ('A' for Active; 'I' for Inactive)
REMARK    1  A    between atoms: C2_2  and  S1_4 
REMARK    2  A    between atoms: S1_4  and  C3_5 
REMARK    3  A    between atoms: C3_5  and  C4_6 
REMARK    4  A    between atoms: C4_6  and  N1_7 
REMARK       I    between atoms: N1_7  and  C5_8 
REMARK    5  A    between atoms: C5_8  and  C6_10 
REMARK    6  A    between atoms: C6_10  and  C7_11 
REMARK    7  A    between atoms: C7_11  and  N2_12 
REMARK       I    between atoms: N2_12  and  C8_13 
REMARK    8  A    between atoms: C8_13  and  C9_15 
REMARK    9  A    between atoms: C9_15  and  C10_16 
REMARK   10  A    between atoms: C9_15  and  O17_54 
REMARK   11  A    between atoms: C10_16  and  C13_19 
REMARK   12  A    between atoms: C13_19  and  O4_20 
REMARK   13  A    between atoms: O4_20  and  P1_21 
REMARK   14  A    between atoms: P1_21  and  O6_23 
REMARK   15  A    between atoms: P1_21  and  O7_24 
REMARK   16  A    between atoms: O7_24  and  P2_25 
REMARK   17  A    between atoms: P2_25  and  O9_27 
REMARK   18  A    between atoms: P2_25  and  O10_28 
REMARK   19  A    between atoms: O10_28  and  C14_29 
REMARK   20  A    between atoms: C14_29  and  C15_30 
REMARK   21  A    between atoms: C16_31  and  O13_49 
REMARK   22  A    between atoms: C17_32  and  O12_48 
REMARK   23  A    between atoms: C18_33  and  N3_35 
REMARK   24  A    between atoms: C21_40  and  N7_47 
REMARK   25  A    between atoms: O13_49  and  P3_50 
REMARK   26  A    between atoms: P3_50  and  O15_52 
REMARK   27  A    between atoms: P3_50  and  O16_53 
ROOT
HETATM    1  C1  UNL     1       5.576   7.984  -7.892  1.00  0.00     0.104 C 
HETATM    2  C2  UNL     1       7.027   8.354  -7.848  1.00  0.00     0.182 C 
HETATM    3  O1  UNL     1       7.762   8.324  -8.832  1.00  0.00    -0.286 OA
ENDROOT
BRANCH   2   4
HETATM    4  S1  UNL     1       7.612   8.803  -6.251  1.00  0.00    -0.091 SA
BRANCH   4   5
HETATM    5  C3  UNL     1       6.163   9.708  -5.618  1.00  0.00     0.102 C 
BRANCH   5   6
HETATM    6  C4  UNL     1       5.710   9.177  -4.256  1.00  0.00     0.133 C 
BRANCH   6   7
HETATM    7  N1  UNL     1       4.304   8.831  -4.230  1.00  0.00    -0.360 N 
HETATM    8  C5  UNL     1       3.873   7.539  -4.420  1.00  0.00     0.219 C 
HETATM    9  O2  UNL     1       4.637   6.623  -4.701  1.00  0.00    -0.274 OA
HETATM   10  H8  UNL     1       3.626   9.562  -4.060  1.00  0.00     0.162 HD
BRANCH   8  11
HETATM   11  C6  UNL     1       2.372   7.384  -4.299  1.00  0.00     0.122 C 
BRANCH  11  12
HETATM   12  C7  UNL     1       1.625   8.582  -4.883  1.00  0.00     0.132 C 
BRANCH  12  13
HETATM   13  N2  UNL     1       1.546   8.553  -6.328  1.00  0.00    -0.358 N 
HETATM   14  C8  UNL     1       2.206   9.507  -7.081  1.00  0.00     0.247 C 
HETATM   15  O3  UNL     1       2.772  10.464  -6.570  1.00  0.00    -0.271 OA
HETATM   16  H13 UNL     1       1.432   7.630  -6.741  1.00  0.00     0.162 HD
BRANCH  14  17
HETATM   17  C9  UNL     1       2.186   9.257  -8.597  1.00  0.00     0.219 C 
BRANCH  17  18
HETATM   18  C10 UNL     1       0.833   9.580  -9.284  1.00  0.00     0.009 C 
HETATM   19  C11 UNL     1       0.844   9.226 -10.778  1.00  0.00     0.020 C 
HETATM   20  C12 UNL     1      -0.333   8.815  -8.624  1.00  0.00     0.020 C 
BRANCH  18  21
HETATM   21  C13 UNL     1       0.621  11.111  -9.111  1.00  0.00     0.192 C 
BRANCH  21  22
HETATM   22  O4  UNL     1       0.974  11.838 -10.270  1.00  0.00    -0.296 OA
BRANCH  22  23
HETATM   23  P1  UNL     1       1.821  13.198 -10.221  1.00  0.00     0.401 P 
HETATM   24  O5  UNL     1       1.278  14.223  -9.277  1.00  0.00    -0.631 OA
BRANCH  23  25
HETATM   25  O6  UNL     1       1.954  13.719 -11.739  1.00  0.00    -0.307 OA
HETATM   26  H23 UNL     1       1.126  14.094 -12.066  1.00  0.00     0.222 HD
ENDBRANCH  23  25
BRANCH  23  27
HETATM   27  O7  UNL     1       3.315  12.741  -9.920  1.00  0.00    -0.195 OA
BRANCH  27  28
HETATM   28  P2  UNL     1       4.109  13.441  -8.729  1.00  0.00     0.401 P 
HETATM   29  O8  UNL     1       4.624  14.821  -8.978  1.00  0.00    -0.631 OA
BRANCH  28  30
HETATM   30  O9  UNL     1       3.094  13.337  -7.501  1.00  0.00    -0.307 OA
HETATM   31  H24 UNL     1       2.885  12.410  -7.228  1.00  0.00     0.222 HD
ENDBRANCH  28  30
BRANCH  28  32
HETATM   32  O10 UNL     1       5.200  12.356  -8.302  1.00  0.00    -0.294 OA
BRANCH  32  33
HETATM   33  C14 UNL     1       6.037  11.783  -9.271  1.00  0.00     0.215 C 
BRANCH  33  34
HETATM   34  C15 UNL     1       7.362  12.540  -9.193  1.00  0.00     0.180 C 
HETATM   35  C16 UNL     1       8.520  11.578  -9.425  1.00  0.00     0.197 C 
HETATM   36  C17 UNL     1       9.314  11.615  -8.133  1.00  0.00     0.199 C 
HETATM   37  C18 UNL     1       8.958  12.994  -7.574  1.00  0.00     0.262 C 
HETATM   38  O11 UNL     1       7.569  13.174  -7.926  1.00  0.00    -0.353 OA
BRANCH  35  39
HETATM   39  O13 UNL     1       9.275  12.056 -10.533  1.00  0.00    -0.286 OA
BRANCH  39  40
HETATM   40  P3  UNL     1       9.432  11.034 -11.752  1.00  0.00     0.391 P 
HETATM   41  O14 UNL     1       9.306  11.675 -13.096  1.00  0.00    -0.632 OA
BRANCH  40  42
HETATM   42  O15 UNL     1       8.348   9.926 -11.356  1.00  0.00    -0.307 OA
HETATM   43  H36 UNL     1       7.438  10.228 -11.591  1.00  0.00     0.222 HD
ENDBRANCH  40  42
BRANCH  40  44
HETATM   44  O16 UNL     1      10.813  10.331 -11.398  1.00  0.00    -0.307 OA
HETATM   45  H37 UNL     1      11.439  10.334 -12.140  1.00  0.00     0.222 HD
ENDBRANCH  40  44
ENDBRANCH  39  40
ENDBRANCH  35  39
BRANCH  36  46
HETATM   46  O12 UNL     1      10.695  11.347  -8.392  1.00  0.00    -0.388 OA
HETATM   47  H35 UNL     1      11.139  11.300  -7.512  1.00  0.00     0.210 HD
ENDBRANCH  36  46
BRANCH  37  48
HETATM   48  N3  UNL     1       9.087  13.061  -6.132  1.00  0.00    -0.297 N 
HETATM   49  C19 UNL     1       8.919  12.032  -5.235  1.00  0.00     0.188 A 
HETATM   50  N4  UNL     1       9.230  12.386  -4.007  1.00  0.00    -0.346 N 
HETATM   51  C20 UNL     1       9.624  13.708  -4.114  1.00  0.00     0.116 A 
HETATM   52  H4  UNL     1       9.190  11.814  -3.164  1.00  0.00     0.167 HD
HETATM   53  C21 UNL     1      10.110  14.637  -3.178  1.00  0.00     0.109 A 
HETATM   54  C23 UNL     1       9.503  14.150  -5.419  1.00  0.00     0.142 A 
HETATM   55  N5  UNL     1      10.407  15.890  -3.600  1.00  0.00    -0.341 N 
HETATM   56  C22 UNL     1      10.216  16.187  -4.901  1.00  0.00     0.183 A 
HETATM   57  H5  UNL     1      10.765  16.590  -2.950  1.00  0.00     0.167 HD
HETATM   58  N6  UNL     1       9.767  15.383  -5.886  1.00  0.00    -0.336 N 
HETATM   59  H6  UNL     1       9.644  15.672  -6.857  1.00  0.00     0.168 HD
BRANCH  53  60
HETATM   60  N7  UNL     1      10.295  14.341  -1.836  1.00  0.00    -0.287 NA
HETATM   61  H33 UNL     1      10.329  15.156  -1.228  1.00  0.00     0.125 HD
HETATM   62  H34 UNL     1      10.995  13.628  -1.682  1.00  0.00     0.125 HD
ENDBRANCH  53  60
ENDBRANCH  37  48
ENDBRANCH  33  34
ENDBRANCH  32  33
ENDBRANCH  28  32
ENDBRANCH  27  28
ENDBRANCH  23  27
ENDBRANCH  22  23
ENDBRANCH  21  22
ENDBRANCH  18  21
ENDBRANCH  17  18
BRANCH  17  63
HETATM   63  O17 UNL     1       3.214  10.022  -9.236  1.00  0.00    -0.385 OA
HETATM   64  H38 UNL     1       3.581  10.640  -8.582  1.00  0.00     0.210 HD
ENDBRANCH  17  63
ENDBRANCH  14  17
ENDBRANCH  12  13
ENDBRANCH  11  12
ENDBRANCH   8  11
ENDBRANCH   6   7
ENDBRANCH   5   6
ENDBRANCH   4   5
ENDBRANCH   2   4
TORSDOF 27
ENDMDL
MODEL 3
REMARK VINA RESULT:      -6.9      3.473     11.370
REMARK  27 active torsions:
REMARK  status: ('A' for Active; 'I' for Inactive)
REMARK    1  A    between atoms: C2_2  and  S1_4 
REMARK    2  A    between atoms: S1_4  and  C3_5 
REMARK    3  A    between atoms: C3_5  and  C4_6 
REMARK    4  A    between atoms: C4_6  and  N1_7 
REMARK       I    between atoms: N1_7  and  C5_8 
REMARK    5  A    between atoms: C5_8  and  C6_10 
REMARK    6  A    between atoms: C6_10  and  C7_11 
REMARK    7  A    between atoms: C7_11  and  N2_12 
REMARK       I    between atoms: N2_12  and  C8_13 
REMARK    8  A    between atoms: C8_13  and  C9_15 
REMARK    9  A    between atoms: C9_15  and  C10_16 
REMARK   10  A    between atoms: C9_15  and  O17_54 
REMARK   11  A    between atoms: C10_16  and  C13_19 
REMARK   12  A    between atoms: C13_19  and  O4_20 
REMARK   13  A    between atoms: O4_20  and  P1_21 
REMARK   14  A    between atoms: P1_21  and  O6_23 
REMARK   15  A    between atoms: P1_21  and  O7_24 
REMARK   16  A    between atoms: O7_24  and  P2_25 
REMARK   17  A    between atoms: P2_25  and  O9_27 
REMARK   18  A    between atoms: P2_25  and  O10_28 
REMARK   19  A    between atoms: O10_28  and  C14_29 
REMARK   20  A    between atoms: C14_29  and  C15_30 
REMARK   21  A    between atoms: C16_31  and  O13_49 
REMARK   22  A    between atoms: C17_32  and  O12_48 
REMARK   23  A    between atoms: C18_33  and  N3_35 
REMARK   24  A    between atoms: C21_40  and  N7_47 
REMARK   25  A    between atoms: O13_49  and  P3_50 
REMARK   26  A    between atoms: P3_50  and  O15_52 
REMARK   27  A    between atoms: P3_50  and  O16_53 
ROOT
HETATM    1  C1  UNL     1       2.501  16.924 -13.951  1.00  0.00     0.104 C 
HETATM    2  C2  UNL     1       2.912  15.504 -13.710  1.00  0.00     0.182 C 
HETATM    3  O1  UNL     1       2.607  14.876 -12.699  1.00  0.00    -0.286 OA
ENDROOT
BRANCH   2   4
HETATM    4  S1  UNL     1       3.908  14.811 -14.983  1.00  0.00    -0.091 SA
BRANCH   4   5
HETATM    5  C3  UNL     1       2.672  13.783 -15.839  1.00  0.00     0.102 C 
BRANCH   5   6
HETATM    6  C4  UNL     1       2.516  14.184 -17.307  1.00  0.00     0.133 C 
BRANCH   6   7
HETATM    7  N1  UNL     1       1.617  15.305 -17.489  1.00  0.00    -0.360 N 
HETATM    8  C5  UNL     1       0.303  15.128 -17.855  1.00  0.00     0.219 C 
HETATM    9  O2  UNL     1      -0.164  14.028 -18.126  1.00  0.00    -0.274 OA
HETATM   10  H8  UNL     1       1.969  16.241 -17.335  1.00  0.00     0.162 HD
BRANCH   8  11
HETATM   11  C6  UNL     1      -0.476  16.423 -17.936  1.00  0.00     0.122 C 
BRANCH  11  12
HETATM   12  C7  UNL     1      -1.281  16.686 -16.664  1.00  0.00     0.132 C 
BRANCH  12  13
HETATM   13  N2  UNL     1      -1.741  15.472 -16.023  1.00  0.00    -0.358 N 
HETATM   14  C8  UNL     1      -3.093  15.190 -15.953  1.00  0.00     0.247 C 
HETATM   15  O3  UNL     1      -3.946  15.992 -16.314  1.00  0.00    -0.271 OA
HETATM   16  H13 UNL     1      -1.103  14.680 -16.074  1.00  0.00     0.162 HD
BRANCH  14  17
HETATM   17  C9  UNL     1      -3.434  13.794 -15.410  1.00  0.00     0.219 C 
BRANCH  17  18
HETATM   18  C10 UNL     1      -3.543  12.691 -16.495  1.00  0.00     0.009 C 
HETATM   19  C11 UNL     1      -4.762  11.783 -16.275  1.00  0.00     0.020 C 
HETATM   20  C12 UNL     1      -3.651  13.298 -17.909  1.00  0.00     0.020 C 
BRANCH  18  21
HETATM   21  C13 UNL     1      -2.239  11.851 -16.383  1.00  0.00     0.192 C 
BRANCH  21  22
HETATM   22  O4  UNL     1      -2.383  10.747 -15.513  1.00  0.00    -0.296 OA
BRANCH  22  23
HETATM   23  P1  UNL     1      -1.132   9.966 -14.883  1.00  0.00     0.401 P 
HETATM   24  O5  UNL     1       0.112  10.791 -14.773  1.00  0.00    -0.631 OA
BRANCH  23  25
HETATM   25  O6  UNL     1      -0.944   8.619 -15.743  1.00  0.00    -0.307 OA
HETATM   26  H23 UNL     1      -1.425   8.653 -16.580  1.00  0.00     0.222 HD
ENDBRANCH  23  25
BRANCH  23  27
HETATM   27  O7  UNL     1      -1.665   9.380 -13.503  1.00  0.00    -0.195 OA
BRANCH  27  28
HETATM   28  P2  UNL     1      -0.928   8.121 -12.865  1.00  0.00     0.401 P 
HETATM   29  O8  UNL     1      -1.379   6.771 -13.318  1.00  0.00    -0.631 OA
BRANCH  28  30
HETATM   30  O9  UNL     1       0.615   8.419 -13.144  1.00  0.00    -0.307 OA
HETATM   31  H24 UNL     1       0.978   9.182 -12.631  1.00  0.00     0.222 HD
ENDBRANCH  28  30
BRANCH  28  32
HETATM   32  O10 UNL     1      -0.999   8.388 -11.292  1.00  0.00    -0.294 OA
BRANCH  32  33
HETATM   33  C14 UNL     1       0.098   8.071 -10.476  1.00  0.00     0.215 C 
BRANCH  33  34
HETATM   34  C15 UNL     1       0.084   9.081  -9.330  1.00  0.00     0.180 C 
HETATM   35  C16 UNL     1       0.513  10.449  -9.843  1.00  0.00     0.197 C 
HETATM   36  C17 UNL     1       1.783  10.766  -9.076  1.00  0.00     0.199 C 
HETATM   37  C18 UNL     1       1.608   9.932  -7.804  1.00  0.00     0.262 C 
HETATM   38  O11 UNL     1       0.962   8.722  -8.257  1.00  0.00    -0.353 OA
BRANCH  35  39
HETATM   39  O13 UNL     1      -0.530  11.374  -9.559  1.00  0.00    -0.286 OA
BRANCH  39  40
HETATM   40  P3  UNL     1      -1.309  11.946 -10.833  1.00  0.00     0.391 P 
HETATM   41  O14 UNL     1      -2.653  11.328 -11.045  1.00  0.00    -0.632 OA
BRANCH  40  42
HETATM   42  O15 UNL     1      -0.209  11.738 -11.975  1.00  0.00    -0.307 OA
HETATM   43  H36 UNL     1       0.443  12.479 -11.971  1.00  0.00     0.222 HD
ENDBRANCH  40  42
BRANCH  40  44
HETATM   44  O16 UNL     1      -1.254  13.512 -10.559  1.00  0.00    -0.307 OA
HETATM   45  H37 UNL     1      -1.076  13.725  -9.630  1.00  0.00     0.222 HD
ENDBRANCH  40  44
ENDBRANCH  39  40
ENDBRANCH  35  39
BRANCH  36  46
HETATM   46  O12 UNL     1       1.928  12.180  -8.919  1.00  0.00    -0.388 OA
HETATM   47  H35 UNL     1       1.919  12.354  -7.948  1.00  0.00     0.210 HD
ENDBRANCH  36  46
BRANCH  37  48
HETATM   48  N3  UNL     1       2.874   9.583  -7.190  1.00  0.00    -0.297 N 
HETATM   49  C19 UNL     1       4.127  10.002  -7.571  1.00  0.00     0.188 A 
HETATM   50  N4  UNL     1       5.061   9.610  -6.732  1.00  0.00    -0.346 N 
HETATM   51  C20 UNL     1       4.379   8.906  -5.755  1.00  0.00     0.116 A 
HETATM   52  H4  UNL     1       6.064   9.786  -6.788  1.00  0.00     0.167 HD
HETATM   53  C21 UNL     1       4.794   8.275  -4.570  1.00  0.00     0.109 A 
HETATM   54  C23 UNL     1       3.028   8.848  -6.047  1.00  0.00     0.142 A 
HETATM   55  N5  UNL     1       3.866   7.645  -3.810  1.00  0.00    -0.341 N 
HETATM   56  C22 UNL     1       2.586   7.650  -4.232  1.00  0.00     0.183 A 
HETATM   57  H5  UNL     1       4.129   7.179  -2.942  1.00  0.00     0.167 HD
HETATM   58  N6  UNL     1       2.071   8.224  -5.338  1.00  0.00    -0.336 N 
HETATM   59  H6  UNL     1       1.086   8.191  -5.603  1.00  0.00     0.168 HD
BRANCH  53  60
HETATM   60  N7  UNL     1       6.111   8.255  -4.139  1.00  0.00    -0.287 NA
HETATM   61  H33 UNL     1       6.769   7.879  -4.819  1.00  0.00     0.125 HD
HETATM   62  H34 UNL     1       6.209   7.934  -3.185  1.00  0.00     0.125 HD
ENDBRANCH  53  60
ENDBRANCH  37  48
ENDBRANCH  33  34
ENDBRANCH  32  33
ENDBRANCH  28  32
ENDBRANCH  27  28
ENDBRANCH  23  27
ENDBRANCH  22  23
ENDBRANCH  21  22
ENDBRANCH  18  21
ENDBRANCH  17  18
BRANCH  17  63
HETATM   63  O17 UNL     1      -2.455  13.388 -14.447  1.00  0.00    -0.385 OA
HETATM   64  H38 UNL     1      -2.904  13.266 -13.593  1.00  0.00     0.210 HD
ENDBRANCH  17  63
ENDBRANCH  14  17
ENDBRANCH  12  13
ENDBRANCH  11  12
ENDBRANCH   8  11
ENDBRANCH   6   7
ENDBRANCH   5   6
ENDBRANCH   4   5
ENDBRANCH   2   4
TORSDOF 27
ENDMDL
MODEL 4
REMARK VINA RESULT:      -6.7      4.234     10.121
REMARK  27 active torsions:
REMARK  status: ('A' for Active; 'I' for Inactive)
REMARK    1  A    between atoms: C2_2  and  S1_4 
REMARK    2  A    between atoms: S1_4  and  C3_5 
REMARK    3  A    between atoms: C3_5  and  C4_6 
REMARK    4  A    between atoms: C4_6  and  N1_7 
REMARK       I    between atoms: N1_7  and  C5_8 
REMARK    5  A    between atoms: C5_8  and  C6_10 
REMARK    6  A    between atoms: C6_10  and  C7_11 
REMARK    7  A    between atoms: C7_11  and  N2_12 
REMARK       I    between atoms: N2_12  and  C8_13 
REMARK    8  A    between atoms: C8_13  and  C9_15 
REMARK    9  A    between atoms: C9_15  and  C10_16 
REMARK   10  A    between atoms: C9_15  and  O17_54 
REMARK   11  A    between atoms: C10_16  and  C13_19 
REMARK   12  A    between atoms: C13_19  and  O4_20 
REMARK   13  A    between atoms: O4_20  and  P1_21 
REMARK   14  A    between atoms: P1_21  and  O6_23 
REMARK   15  A    between atoms: P1_21  and  O7_24 
REMARK   16  A    between atoms: O7_24  and  P2_25 
REMARK   17  A    between atoms: P2_25  and  O9_27 
REMARK   18  A    between atoms: P2_25  and  O10_28 
REMARK   19  A    between atoms: O10_28  and  C14_29 
REMARK   20  A    between atoms: C14_29  and  C15_30 
REMARK   21  A    between atoms: C16_31  and  O13_49 
REMARK   22  A    between atoms: C17_32  and  O12_48 
REMARK   23  A    between atoms: C18_33  and  N3_35 
REMARK   24  A    between atoms: C21_40  and  N7_47 
REMARK   25  A    between atoms: O13_49  and  P3_50 
REMARK   26  A    between atoms: P3_50  and  O15_52 
REMARK   27  A    between atoms: P3_50  and  O16_53 
ROOT
HETATM    1  C1  UNL     1      10.070  14.575 -17.021  1.00  0.00     0.104 C 
HETATM    2  C2  UNL     1       9.123  13.605 -16.383  1.00  0.00     0.182 C 
HETATM    3  O1  UNL     1       7.908  13.780 -16.335  1.00  0.00    -0.286 OA
ENDROOT
BRANCH   2   4
HETATM    4  S1  UNL     1       9.900  12.199 -15.667  1.00  0.00    -0.091 SA
BRANCH   4   5
HETATM    5  C3  UNL     1       8.461  11.397 -14.888  1.00  0.00     0.102 C 
BRANCH   5   6
HETATM    6  C4  UNL     1       7.802  10.380 -15.821  1.00  0.00     0.133 C 
BRANCH   6   7
HETATM    7  N1  UNL     1       6.648  10.919 -16.511  1.00  0.00    -0.360 N 
HETATM    8  C5  UNL     1       5.406  10.336 -16.411  1.00  0.00     0.219 C 
HETATM    9  O2  UNL     1       5.216   9.288 -15.804  1.00  0.00    -0.274 OA
HETATM   10  H8  UNL     1       6.763  11.751 -17.074  1.00  0.00     0.162 HD
BRANCH   8  11
HETATM   11  C6  UNL     1       4.329  11.087 -17.163  1.00  0.00     0.122 C 
BRANCH  11  12
HETATM   12  C7  UNL     1       3.484  11.956 -16.232  1.00  0.00     0.132 C 
BRANCH  12  13
HETATM   13  N2  UNL     1       2.114  11.501 -16.118  1.00  0.00    -0.358 N 
HETATM   14  C8  UNL     1       1.258  12.088 -15.205  1.00  0.00     0.247 C 
HETATM   15  O3  UNL     1       1.643  12.916 -14.390  1.00  0.00    -0.271 OA
HETATM   16  H13 UNL     1       1.702  11.134 -16.974  1.00  0.00     0.162 HD
BRANCH  14  17
HETATM   17  C9  UNL     1      -0.206  11.635 -15.311  1.00  0.00     0.219 C 
BRANCH  17  18
HETATM   18  C10 UNL     1      -0.613  10.533 -14.298  1.00  0.00     0.009 C 
HETATM   19  C11 UNL     1      -2.132  10.480 -14.080  1.00  0.00     0.020 C 
HETATM   20  C12 UNL     1      -0.150   9.138 -14.764  1.00  0.00     0.020 C 
BRANCH  18  21
HETATM   21  C13 UNL     1       0.093  10.901 -12.961  1.00  0.00     0.192 C 
BRANCH  21  22
HETATM   22  O4  UNL     1      -0.620  11.874 -12.225  1.00  0.00    -0.296 OA
BRANCH  22  23
HETATM   23  P1  UNL     1      -0.574  11.961 -10.625  1.00  0.00     0.401 P 
HETATM   24  O5  UNL     1      -1.571  11.084  -9.935  1.00  0.00    -0.631 OA
BRANCH  23  25
HETATM   25  O6  UNL     1      -0.705  13.519 -10.240  1.00  0.00    -0.307 OA
HETATM   26  H23 UNL     1      -1.604  13.753  -9.978  1.00  0.00     0.222 HD
ENDBRANCH  23  25
BRANCH  23  27
HETATM   27  O7  UNL     1       0.943  11.674 -10.241  1.00  0.00    -0.195 OA
BRANCH  27  28
HETATM   28  P2  UNL     1       1.952  12.901 -10.119  1.00  0.00     0.401 P 
HETATM   29  O8  UNL     1       1.887  13.939 -11.191  1.00  0.00    -0.631 OA
BRANCH  28  30
HETATM   30  O9  UNL     1       1.670  13.463  -8.651  1.00  0.00    -0.307 OA
HETATM   31  H24 UNL     1       0.977  12.963  -8.154  1.00  0.00     0.222 HD
ENDBRANCH  28  30
BRANCH  28  32
HETATM   32  O10 UNL     1       3.375  12.210  -9.901  1.00  0.00    -0.294 OA
BRANCH  32  33
HETATM   33  C14 UNL     1       4.312  12.791  -9.032  1.00  0.00     0.215 C 
BRANCH  33  34
HETATM   34  C15 UNL     1       4.602  11.745  -7.957  1.00  0.00     0.180 C 
HETATM   35  C16 UNL     1       5.211  10.504  -8.596  1.00  0.00     0.197 C 
HETATM   36  C17 UNL     1       4.216   9.395  -8.308  1.00  0.00     0.199 C 
HETATM   37  C18 UNL     1       3.519   9.908  -7.046  1.00  0.00     0.262 C 
HETATM   38  O11 UNL     1       3.429  11.337  -7.243  1.00  0.00    -0.353 OA
BRANCH  35  39
HETATM   39  O13 UNL     1       6.473  10.266  -7.983  1.00  0.00    -0.286 OA
BRANCH  39  40
HETATM   40  P3  UNL     1       7.611   9.690  -8.947  1.00  0.00     0.391 P 
HETATM   41  O14 UNL     1       7.755   8.204  -8.889  1.00  0.00    -0.632 OA
BRANCH  40  42
HETATM   42  O15 UNL     1       8.864  10.574  -8.493  1.00  0.00    -0.307 OA
HETATM   43  H36 UNL     1       9.618   9.998  -8.221  1.00  0.00     0.222 HD
ENDBRANCH  40  42
BRANCH  40  44
HETATM   44  O16 UNL     1       7.199  10.337 -10.341  1.00  0.00    -0.307 OA
HETATM   45  H37 UNL     1       7.056  11.295 -10.284  1.00  0.00     0.222 HD
ENDBRANCH  40  44
ENDBRANCH  39  40
ENDBRANCH  35  39
BRANCH  36  46
HETATM   46  O12 UNL     1       4.889   8.136  -8.221  1.00  0.00    -0.388 OA
HETATM   47  H35 UNL     1       4.377   7.508  -8.784  1.00  0.00     0.210 HD
ENDBRANCH  36  46
BRANCH  37  48
HETATM   48  N3  UNL     1       2.180   9.374  -6.894  1.00  0.00    -0.297 N 
HETATM   49  C19 UNL     1       1.144   9.460  -7.794  1.00  0.00     0.188 A 
HETATM   50  N4  UNL     1       0.095   8.763  -7.415  1.00  0.00    -0.346 N 
HETATM   51  C20 UNL     1       0.471   8.194  -6.211  1.00  0.00     0.116 A 
HETATM   52  H4  UNL     1      -0.797   8.664  -7.900  1.00  0.00     0.167 HD
HETATM   53  C21 UNL     1      -0.180   7.314  -5.329  1.00  0.00     0.109 A 
HETATM   54  C23 UNL     1       1.746   8.596  -5.857  1.00  0.00     0.142 A 
HETATM   55  N5  UNL     1       0.464   6.936  -4.197  1.00  0.00    -0.341 N 
HETATM   56  C22 UNL     1       1.698   7.428  -3.970  1.00  0.00     0.183 A 
HETATM   57  H5  UNL     1       0.025   6.297  -3.535  1.00  0.00     0.167 HD
HETATM   58  N6  UNL     1       2.421   8.265  -4.742  1.00  0.00    -0.336 N 
HETATM   59  H6  UNL     1       3.356   8.601  -4.512  1.00  0.00     0.168 HD
BRANCH  53  60
HETATM   60  N7  UNL     1      -1.454   6.817  -5.550  1.00  0.00    -0.287 NA
HETATM   61  H33 UNL     1      -1.821   6.250  -4.788  1.00  0.00     0.125 HD
HETATM   62  H34 UNL     1      -1.582   6.459  -6.487  1.00  0.00     0.125 HD
ENDBRANCH  53  60
ENDBRANCH  37  48
ENDBRANCH  33  34
ENDBRANCH  32  33
ENDBRANCH  28  32
ENDBRANCH  27  28
ENDBRANCH  23  27
ENDBRANCH  22  23
ENDBRANCH  21  22
ENDBRANCH  18  21
ENDBRANCH  17  18
BRANCH  17  63
HETATM   63  O17 UNL     1      -1.082  12.755 -15.141  1.00  0.00    -0.385 OA
HETATM   64  H38 UNL     1      -1.151  13.216 -15.994  1.00  0.00     0.210 HD
ENDBRANCH  17  63
ENDBRANCH  14  17
ENDBRANCH  12  13
ENDBRANCH  11  12
ENDBRANCH   8  11
ENDBRANCH   6   7
ENDBRANCH   5   6
ENDBRANCH   4   5
ENDBRANCH   2   4
TORSDOF 27
ENDMDL
MODEL 5
REMARK VINA RESULT:      -6.5      5.812      9.049
REMARK  27 active torsions:
REMARK  status: ('A' for Active; 'I' for Inactive)
REMARK    1  A    between atoms: C2_2  and  S1_4 
REMARK    2  A    between atoms: S1_4  and  C3_5 
REMARK    3  A    between atoms: C3_5  and  C4_6 
REMARK    4  A    between atoms: C4_6  and  N1_7 
REMARK       I    between atoms: N1_7  and  C5_8 
REMARK    5  A    between atoms: C5_8  and  C6_10 
REMARK    6  A    between atoms: C6_10  and  C7_11 
REMARK    7  A    between atoms: C7_11  and  N2_12 
REMARK       I    between atoms: N2_12  and  C8_13 
REMARK    8  A    between atoms: C8_13  and  C9_15 
REMARK    9  A    between atoms: C9_15  and  C10_16 
REMARK   10  A    between atoms: C9_15  and  O17_54 
REMARK   11  A    between atoms: C10_16  and  C13_19 
REMARK   12  A    between atoms: C13_19  and  O4_20 
REMARK   13  A    between atoms: O4_20  and  P1_21 
REMARK   14  A    between atoms: P1_21  and  O6_23 
REMARK   15  A    between atoms: P1_21  and  O7_24 
REMARK   16  A    between atoms: O7_24  and  P2_25 
REMARK   17  A    between atoms: P2_25  and  O9_27 
REMARK   18  A    between atoms: P2_25  and  O10_28 
REMARK   19  A    between atoms: O10_28  and  C14_29 
REMARK   20  A    between atoms: C14_29  and  C15_30 
REMARK   21  A    between atoms: C16_31  and  O13_49 
REMARK   22  A    between atoms: C17_32  and  O12_48 
REMARK   23  A    between atoms: C18_33  and  N3_35 
REMARK   24  A    between atoms: C21_40  and  N7_47 
REMARK   25  A    between atoms: O13_49  and  P3_50 
REMARK   26  A    between atoms: P3_50  and  O15_52 
REMARK   27  A    between atoms: P3_50  and  O16_53 
ROOT
HETATM    1  C1  UNL     1       7.670   9.601  -9.892  1.00  0.00     0.104 C 
HETATM    2  C2  UNL     1       8.920  10.421  -9.791  1.00  0.00     0.182 C 
HETATM    3  O1  UNL     1       9.487  10.658  -8.727  1.00  0.00    -0.286 OA
ENDROOT
BRANCH   2   4
HETATM    4  S1  UNL     1       9.495  11.057 -11.326  1.00  0.00    -0.091 SA
BRANCH   4   5
HETATM    5  C3  UNL     1      10.443  12.500 -10.744  1.00  0.00     0.102 C 
BRANCH   5   6
HETATM    6  C4  UNL     1      10.043  13.780 -11.481  1.00  0.00     0.133 C 
BRANCH   6   7
HETATM    7  N1  UNL     1      10.240  14.971 -10.681  1.00  0.00    -0.360 N 
HETATM    8  C5  UNL     1       9.190  15.613 -10.068  1.00  0.00     0.219 C 
HETATM    9  O2  UNL     1       8.024  15.269 -10.224  1.00  0.00    -0.274 OA
HETATM   10  H8  UNL     1      11.178  15.331 -10.569  1.00  0.00     0.162 HD
BRANCH   8  11
HETATM   11  C6  UNL     1       9.618  16.803  -9.236  1.00  0.00     0.122 C 
BRANCH  11  12
HETATM   12  C7  UNL     1       9.217  16.648  -7.770  1.00  0.00     0.132 C 
BRANCH  12  13
HETATM   13  N2  UNL     1       9.470  15.321  -7.249  1.00  0.00    -0.358 N 
HETATM   14  C8  UNL     1      10.433  15.126  -6.277  1.00  0.00     0.247 C 
HETATM   15  O3  UNL     1      11.180  16.025  -5.909  1.00  0.00    -0.271 OA
HETATM   16  H13 UNL     1       8.669  14.693  -7.244  1.00  0.00     0.162 HD
BRANCH  14  17
HETATM   17  C9  UNL     1      10.476  13.708  -5.688  1.00  0.00     0.219 C 
BRANCH  17  18
HETATM   18  C10 UNL     1       9.471  13.462  -4.531  1.00  0.00     0.009 C 
HETATM   19  C11 UNL     1      10.126  12.749  -3.339  1.00  0.00     0.020 C 
HETATM   20  C12 UNL     1       8.865  14.784  -4.019  1.00  0.00     0.020 C 
BRANCH  18  21
HETATM   21  C13 UNL     1       8.348  12.564  -5.125  1.00  0.00     0.192 C 
BRANCH  21  22
HETATM   22  O4  UNL     1       7.389  13.310  -5.847  1.00  0.00    -0.296 OA
BRANCH  22  23
HETATM   23  P1  UNL     1       6.757  12.805  -7.232  1.00  0.00     0.401 P 
HETATM   24  O5  UNL     1       6.326  11.373  -7.222  1.00  0.00    -0.631 OA
BRANCH  23  25
HETATM   25  O6  UNL     1       7.825  13.154  -8.385  1.00  0.00    -0.307 OA
HETATM   26  H23 UNL     1       7.641  12.677  -9.204  1.00  0.00     0.222 HD
ENDBRANCH  23  25
BRANCH  23  27
HETATM   27  O7  UNL     1       5.599  13.846  -7.558  1.00  0.00    -0.195 OA
BRANCH  27  28
HETATM   28  P2  UNL     1       4.682  13.602  -8.838  1.00  0.00     0.401 P 
HETATM   29  O8  UNL     1       4.276  14.808  -9.620  1.00  0.00    -0.631 OA
BRANCH  28  30
HETATM   30  O9  UNL     1       5.510  12.528  -9.682  1.00  0.00    -0.307 OA
HETATM   31  H24 UNL     1       6.488  12.666  -9.661  1.00  0.00     0.222 HD
ENDBRANCH  28  30
BRANCH  28  32
HETATM   32  O10 UNL     1       3.490  12.691  -8.292  1.00  0.00    -0.294 OA
BRANCH  32  33
HETATM   33  C14 UNL     1       2.629  12.045  -9.193  1.00  0.00     0.215 C 
BRANCH  33  34
HETATM   34  C15 UNL     1       2.749  10.551  -8.902  1.00  0.00     0.180 C 
HETATM   35  C16 UNL     1       1.372   9.972  -8.604  1.00  0.00     0.197 C 
HETATM   36  C17 UNL     1       1.468   9.467  -7.177  1.00  0.00     0.199 C 
HETATM   37  C18 UNL     1       2.968   9.203  -7.027  1.00  0.00     0.262 C 
HETATM   38  O11 UNL     1       3.593  10.265  -7.781  1.00  0.00    -0.353 OA
BRANCH  35  39
HETATM   39  O13 UNL     1       1.127   8.918  -9.530  1.00  0.00    -0.286 OA
BRANCH  39  40
HETATM   40  P3  UNL     1      -0.181   9.086 -10.435  1.00  0.00     0.391 P 
HETATM   41  O14 UNL     1      -0.964  10.324 -10.137  1.00  0.00    -0.632 OA
BRANCH  40  42
HETATM   42  O15 UNL     1      -0.898   7.678 -10.188  1.00  0.00    -0.307 OA
HETATM   43  H36 UNL     1      -0.230   6.962 -10.071  1.00  0.00     0.222 HD
ENDBRANCH  40  42
BRANCH  40  44
HETATM   44  O16 UNL     1       0.426   8.932 -11.897  1.00  0.00    -0.307 OA
HETATM   45  H37 UNL     1       1.258   9.418 -12.012  1.00  0.00     0.222 HD
ENDBRANCH  40  44
ENDBRANCH  39  40
ENDBRANCH  35  39
BRANCH  36  46
HETATM   46  O12 UNL     1       0.583   8.360  -6.982  1.00  0.00    -0.388 OA
HETATM   47  H35 UNL     1       1.156   7.566  -6.858  1.00  0.00     0.210 HD
ENDBRANCH  36  46
BRANCH  37  48
HETATM   48  N3  UNL     1       3.412   9.284  -5.650  1.00  0.00    -0.297 N 
HETATM   49  C19 UNL     1       2.638   9.523  -4.539  1.00  0.00     0.188 A 
HETATM   50  N4  UNL     1       3.320   9.408  -3.421  1.00  0.00    -0.346 N 
HETATM   51  C20 UNL     1       4.600   9.074  -3.827  1.00  0.00     0.116 A 
HETATM   52  H4  UNL     1       2.982   9.537  -2.468  1.00  0.00     0.167 HD
HETATM   53  C21 UNL     1       5.777   8.775  -3.118  1.00  0.00     0.109 A 
HETATM   54  C23 UNL     1       4.681   9.032  -5.207  1.00  0.00     0.142 A 
HETATM   55  N5  UNL     1       6.902   8.489  -3.819  1.00  0.00    -0.341 N 
HETATM   56  C22 UNL     1       6.837   8.509  -5.165  1.00  0.00     0.183 A 
HETATM   57  H5  UNL     1       7.773   8.264  -3.339  1.00  0.00     0.167 HD
HETATM   58  N6  UNL     1       5.771   8.771  -5.949  1.00  0.00    -0.336 N 
HETATM   59  H6  UNL     1       5.789   8.770  -6.969  1.00  0.00     0.168 HD
BRANCH  53  60
HETATM   60  N7  UNL     1       5.852   8.768  -1.734  1.00  0.00    -0.287 NA
HETATM   61  H33 UNL     1       6.800   8.721  -1.367  1.00  0.00     0.125 HD
HETATM   62  H34 UNL     1       5.167   8.161  -1.305  1.00  0.00     0.125 HD
ENDBRANCH  53  60
ENDBRANCH  37  48
ENDBRANCH  33  34
ENDBRANCH  32  33
ENDBRANCH  28  32
ENDBRANCH  27  28
ENDBRANCH  23  27
ENDBRANCH  22  23
ENDBRANCH  21  22
ENDBRANCH  18  21
ENDBRANCH  17  18
BRANCH  17  63
HETATM   63  O17 UNL     1      10.233  12.740  -6.714  1.00  0.00    -0.385 OA
HETATM   64  H38 UNL     1       9.513  13.072  -7.278  1.00  0.00     0.210 HD
ENDBRANCH  17  63
ENDBRANCH  14  17
ENDBRANCH  12  13
ENDBRANCH  11  12
ENDBRANCH   8  11
ENDBRANCH   6   7
ENDBRANCH   5   6
ENDBRANCH   4   5
ENDBRANCH   2   4
TORSDOF 27
ENDMDL
MODEL 6
REMARK VINA RESULT:      -6.5      3.344      6.543
REMARK  27 active torsions:
REMARK  status: ('A' for Active; 'I' for Inactive)
REMARK    1  A    between atoms: C2_2  and  S1_4 
REMARK    2  A    between atoms: S1_4  and  C3_5 
REMARK    3  A    between atoms: C3_5  and  C4_6 
REMARK    4  A    between atoms: C4_6  and  N1_7 
REMARK       I    between atoms: N1_7  and  C5_8 
REMARK    5  A    between atoms: C5_8  and  C6_10 
REMARK    6  A    between atoms: C6_10  and  C7_11 
REMARK    7  A    between atoms: C7_11  and  N2_12 
REMARK       I    between atoms: N2_12  and  C8_13 
REMARK    8  A    between atoms: C8_13  and  C9_15 
REMARK    9  A    between atoms: C9_15  and  C10_16 
REMARK   10  A    between atoms: C9_15  and  O17_54 
REMARK   11  A    between atoms: C10_16  and  C13_19 
REMARK   12  A    between atoms: C13_19  and  O4_20 
REMARK   13  A    between atoms: O4_20  and  P1_21 
REMARK   14  A    between atoms: P1_21  and  O6_23 
REMARK   15  A    between atoms: P1_21  and  O7_24 
REMARK   16  A    between atoms: O7_24  and  P2_25 
REMARK   17  A    between atoms: P2_25  and  O9_27 
REMARK   18  A    between atoms: P2_25  and  O10_28 
REMARK   19  A    between atoms: O10_28  and  C14_29 
REMARK   20  A    between atoms: C14_29  and  C15_30 
REMARK   21  A    between atoms: C16_31  and  O13_49 
REMARK   22  A    between atoms: C17_32  and  O12_48 
REMARK   23  A    between atoms: C18_33  and  N3_35 
REMARK   24  A    between atoms: C21_40  and  N7_47 
REMARK   25  A    between atoms: O13_49  and  P3_50 
REMARK   26  A    between atoms: P3_50  and  O15_52 
REMARK   27  A    between atoms: P3_50  and  O16_53 
ROOT
HETATM    1  C1  UNL     1      11.847  17.433  -9.044  1.00  0.00     0.104 C 
HETATM    2  C2  UNL     1      10.618  16.651  -9.399  1.00  0.00     0.182 C 
HETATM    3  O1  UNL     1      10.578  15.839 -10.320  1.00  0.00    -0.286 OA
ENDROOT
BRANCH   2   4
HETATM    4  S1  UNL     1       9.213  17.021  -8.409  1.00  0.00    -0.091 SA
BRANCH   4   5
HETATM    5  C3  UNL     1       7.889  16.845  -9.648  1.00  0.00     0.102 C 
BRANCH   5   6
HETATM    6  C4  UNL     1       7.125  15.529  -9.483  1.00  0.00     0.133 C 
BRANCH   6   7
HETATM    7  N1  UNL     1       7.814  14.404 -10.082  1.00  0.00    -0.360 N 
HETATM    8  C5  UNL     1       8.337  13.386  -9.318  1.00  0.00     0.219 C 
HETATM    9  O2  UNL     1       8.325  13.407  -8.093  1.00  0.00    -0.274 OA
HETATM   10  H8  UNL     1       7.903  14.368 -11.088  1.00  0.00     0.162 HD
BRANCH   8  11
HETATM   11  C6  UNL     1       8.965  12.282 -10.141  1.00  0.00     0.122 C 
BRANCH  11  12
HETATM   12  C7  UNL     1       7.977  11.153 -10.431  1.00  0.00     0.132 C 
BRANCH  12  13
HETATM   13  N2  UNL     1       7.223  10.746  -9.264  1.00  0.00    -0.358 N 
HETATM   14  C8  UNL     1       7.132   9.408  -8.925  1.00  0.00     0.247 C 
HETATM   15  O3  UNL     1       7.572   8.522  -9.647  1.00  0.00    -0.271 OA
HETATM   16  H13 UNL     1       7.194  11.421  -8.503  1.00  0.00     0.162 HD
BRANCH  14  17
HETATM   17  C9  UNL     1       6.457   9.130  -7.574  1.00  0.00     0.219 C 
BRANCH  17  18
HETATM   18  C10 UNL     1       7.385   9.304  -6.344  1.00  0.00     0.009 C 
HETATM   19  C11 UNL     1       8.813   8.813  -6.623  1.00  0.00     0.020 C 
HETATM   20  C12 UNL     1       7.468  10.780  -5.903  1.00  0.00     0.020 C 
BRANCH  18  21
HETATM   21  C13 UNL     1       6.752   8.452  -5.207  1.00  0.00     0.192 C 
BRANCH  21  22
HETATM   22  O4  UNL     1       5.841   9.193  -4.421  1.00  0.00    -0.296 OA
BRANCH  22  23
HETATM   23  P1  UNL     1       4.368   8.667  -4.067  1.00  0.00     0.401 P 
HETATM   24  O5  UNL     1       3.604   9.564  -3.144  1.00  0.00    -0.631 OA
BRANCH  23  25
HETATM   25  O6  UNL     1       4.531   7.161  -3.522  1.00  0.00    -0.307 OA
HETATM   26  H23 UNL     1       5.167   7.105  -2.797  1.00  0.00     0.222 HD
ENDBRANCH  23  25
BRANCH  23  27
HETATM   27  O7  UNL     1       3.673   8.413  -5.475  1.00  0.00    -0.195 OA
BRANCH  27  28
HETATM   28  P2  UNL     1       2.331   9.198  -5.823  1.00  0.00     0.401 P 
HETATM   29  O8  UNL     1       1.085   8.747  -5.133  1.00  0.00    -0.631 OA
BRANCH  28  30
HETATM   30  O9  UNL     1       2.714  10.722  -5.544  1.00  0.00    -0.307 OA
HETATM   31  H24 UNL     1       1.984  11.256  -5.145  1.00  0.00     0.222 HD
ENDBRANCH  28  30
BRANCH  28  32
HETATM   32  O10 UNL     1       2.284   9.194  -7.419  1.00  0.00    -0.294 OA
BRANCH  32  33
HETATM   33  C14 UNL     1       1.108   9.564  -8.089  1.00  0.00     0.215 C 
BRANCH  33  34
HETATM   34  C15 UNL     1       1.548  10.206  -9.403  1.00  0.00     0.180 C 
HETATM   35  C16 UNL     1       1.656  11.716  -9.229  1.00  0.00     0.197 C 
HETATM   36  C17 UNL     1       0.632  12.288 -10.191  1.00  0.00     0.199 C 
HETATM   37  C18 UNL     1       0.520  11.179 -11.240  1.00  0.00     0.262 C 
HETATM   38  O11 UNL     1       0.638   9.956 -10.480  1.00  0.00    -0.353 OA
BRANCH  35  39
HETATM   39  O13 UNL     1       2.984  12.105  -9.564  1.00  0.00    -0.286 OA
BRANCH  39  40
HETATM   40  P3  UNL     1       3.717  13.042  -8.497  1.00  0.00     0.391 P 
HETATM   41  O14 UNL     1       3.200  12.888  -7.103  1.00  0.00    -0.632 OA
BRANCH  40  42
HETATM   42  O15 UNL     1       3.555  14.473  -9.194  1.00  0.00    -0.307 OA
HETATM   43  H36 UNL     1       4.059  15.162  -8.699  1.00  0.00     0.222 HD
ENDBRANCH  40  42
BRANCH  40  44
HETATM   44  O16 UNL     1       5.244  12.684  -8.759  1.00  0.00    -0.307 OA
HETATM   45  H37 UNL     1       5.665  12.250  -8.000  1.00  0.00     0.222 HD
ENDBRANCH  40  44
ENDBRANCH  39  40
ENDBRANCH  35  39
BRANCH  36  46
HETATM   46  O12 UNL     1       1.044  13.580 -10.643  1.00  0.00    -0.388 OA
HETATM   47  H35 UNL     1       1.882  13.788 -10.165  1.00  0.00     0.210 HD
ENDBRANCH  36  46
BRANCH  37  48
HETATM   48  N3  UNL     1      -0.759  11.183 -11.920  1.00  0.00    -0.297 N 
HETATM   49  C19 UNL     1      -1.976  11.558 -11.400  1.00  0.00     0.188 A 
HETATM   50  N4  UNL     1      -2.925  11.570 -12.310  1.00  0.00    -0.346 N 
HETATM   51  C20 UNL     1      -2.292  11.189 -13.480  1.00  0.00     0.116 A 
HETATM   52  H4  UNL     1      -3.909  11.808 -12.182  1.00  0.00     0.167 HD
HETATM   53  C21 UNL     1      -2.741  11.050 -14.804  1.00  0.00     0.109 A 
HETATM   54  C23 UNL     1      -0.958  10.909 -13.244  1.00  0.00     0.142 A 
HETATM   55  N5  UNL     1      -1.859  10.639 -15.749  1.00  0.00    -0.341 N 
HETATM   56  C22 UNL     1      -0.593  10.379 -15.368  1.00  0.00     0.183 A 
HETATM   57  H5  UNL     1      -2.147  10.530 -16.721  1.00  0.00     0.167 HD
HETATM   58  N6  UNL     1      -0.049  10.483 -14.139  1.00  0.00    -0.336 N 
HETATM   59  H6  UNL     1       0.924  10.269 -13.916  1.00  0.00     0.168 HD
BRANCH  53  60
HETATM   60  N7  UNL     1      -4.045  11.303 -15.198  1.00  0.00    -0.287 NA
HETATM   61  H33 UNL     1      -4.161  11.445 -16.199  1.00  0.00     0.125 HD
HETATM   62  H34 UNL     1      -4.523  11.953 -14.587  1.00  0.00     0.125 HD
ENDBRANCH  53  60
ENDBRANCH  37  48
ENDBRANCH  33  34
ENDBRANCH  32  33
ENDBRANCH  28  32
ENDBRANCH  27  28
ENDBRANCH  23  27
ENDBRANCH  22  23
ENDBRANCH  21  22
ENDBRANCH  18  21
ENDBRANCH  17  18
BRANCH  17  63
HETATM   63  O17 UNL     1       5.317   9.981  -7.408  1.00  0.00    -0.385 OA
HETATM   64  H38 UNL     1       4.667   9.752  -8.093  1.00  0.00     0.210 HD
ENDBRANCH  17  63
ENDBRANCH  14  17
ENDBRANCH  12  13
ENDBRANCH  11  12
ENDBRANCH   8  11
ENDBRANCH   6   7
ENDBRANCH   5   6
ENDBRANCH   4   5
ENDBRANCH   2   4
TORSDOF 27
ENDMDL
MODEL 7
REMARK VINA RESULT:      -6.5      3.317     11.128
REMARK  27 active torsions:
REMARK  status: ('A' for Active; 'I' for Inactive)
REMARK    1  A    between atoms: C2_2  and  S1_4 
REMARK    2  A    between atoms: S1_4  and  C3_5 
REMARK    3  A    between atoms: C3_5  and  C4_6 
REMARK    4  A    between atoms: C4_6  and  N1_7 
REMARK       I    between atoms: N1_7  and  C5_8 
REMARK    5  A    between atoms: C5_8  and  C6_10 
REMARK    6  A    between atoms: C6_10  and  C7_11 
REMARK    7  A    between atoms: C7_11  and  N2_12 
REMARK       I    between atoms: N2_12  and  C8_13 
REMARK    8  A    between atoms: C8_13  and  C9_15 
REMARK    9  A    between atoms: C9_15  and  C10_16 
REMARK   10  A    between atoms: C9_15  and  O17_54 
REMARK   11  A    between atoms: C10_16  and  C13_19 
REMARK   12  A    between atoms: C13_19  and  O4_20 
REMARK   13  A    between atoms: O4_20  and  P1_21 
REMARK   14  A    between atoms: P1_21  and  O6_23 
REMARK   15  A    between atoms: P1_21  and  O7_24 
REMARK   16  A    between atoms: O7_24  and  P2_25 
REMARK   17  A    between atoms: P2_25  and  O9_27 
REMARK   18  A    between atoms: P2_25  and  O10_28 
REMARK   19  A    between atoms: O10_28  and  C14_29 
REMARK   20  A    between atoms: C14_29  and  C15_30 
REMARK   21  A    between atoms: C16_31  and  O13_49 
REMARK   22  A    between atoms: C17_32  and  O12_48 
REMARK   23  A    between atoms: C18_33  and  N3_35 
REMARK   24  A    between atoms: C21_40  and  N7_47 
REMARK   25  A    between atoms: O13_49  and  P3_50 
REMARK   26  A    between atoms: P3_50  and  O15_52 
REMARK   27  A    between atoms: P3_50  and  O16_53 
ROOT
HETATM    1  C1  UNL     1       0.563  16.660 -16.137  1.00  0.00     0.104 C 
HETATM    2  C2  UNL     1       1.866  16.176 -15.579  1.00  0.00     0.182 C 
HETATM    3  O1  UNL     1       2.047  15.952 -14.384  1.00  0.00    -0.286 OA
ENDROOT
BRANCH   2   4
HETATM    4  S1  UNL     1       3.143  15.989 -16.774  1.00  0.00    -0.091 SA
BRANCH   4   5
HETATM    5  C3  UNL     1       2.148  15.893 -18.297  1.00  0.00     0.102 C 
BRANCH   5   6
HETATM    6  C4  UNL     1       2.215  14.504 -18.935  1.00  0.00     0.133 C 
BRANCH   6   7
HETATM    7  N1  UNL     1       1.183  13.613 -18.447  1.00  0.00    -0.360 N 
HETATM    8  C5  UNL     1       1.472  12.561 -17.609  1.00  0.00     0.219 C 
HETATM    9  O2  UNL     1       2.618  12.265 -17.293  1.00  0.00    -0.274 OA
HETATM   10  H8  UNL     1       0.225  13.779 -18.726  1.00  0.00     0.162 HD
BRANCH   8  11
HETATM   11  C6  UNL     1       0.246  11.789 -17.172  1.00  0.00     0.122 C 
BRANCH  11  12
HETATM   12  C7  UNL     1       0.466  11.075 -15.838  1.00  0.00     0.132 C 
BRANCH  12  13
HETATM   13  N2  UNL     1      -0.444  11.515 -14.802  1.00  0.00    -0.358 N 
HETATM   14  C8  UNL     1      -1.238  10.599 -14.137  1.00  0.00     0.247 C 
HETATM   15  O3  UNL     1      -1.292   9.422 -14.469  1.00  0.00    -0.271 OA
HETATM   16  H13 UNL     1      -0.151  12.341 -14.284  1.00  0.00     0.162 HD
BRANCH  14  17
HETATM   17  C9  UNL     1      -2.022  11.171 -12.946  1.00  0.00     0.219 C 
BRANCH  17  18
HETATM   18  C10 UNL     1      -1.338  10.965 -11.568  1.00  0.00     0.009 C 
HETATM   19  C11 UNL     1      -2.222  11.446 -10.407  1.00  0.00     0.020 C 
HETATM   20  C12 UNL     1      -0.997   9.482 -11.322  1.00  0.00     0.020 C 
BRANCH  18  21
HETATM   21  C13 UNL     1      -0.030  11.805 -11.612  1.00  0.00     0.192 C 
BRANCH  21  22
HETATM   22  O4  UNL     1       0.329  12.309 -10.341  1.00  0.00    -0.296 OA
BRANCH  22  23
HETATM   23  P1  UNL     1       1.553  13.322 -10.119  1.00  0.00     0.401 P 
HETATM   24  O5  UNL     1       1.254  14.446  -9.179  1.00  0.00    -0.631 OA
BRANCH  23  25
HETATM   25  O6  UNL     1       2.027  13.805 -11.580  1.00  0.00    -0.307 OA
HETATM   26  H23 UNL     1       2.452  13.093 -12.076  1.00  0.00     0.222 HD
ENDBRANCH  23  25
BRANCH  23  27
HETATM   27  O7  UNL     1       2.775  12.400  -9.687  1.00  0.00    -0.195 OA
BRANCH  27  28
HETATM   28  P2  UNL     1       4.187  13.079  -9.399  1.00  0.00     0.401 P 
HETATM   29  O8  UNL     1       4.906  13.667 -10.569  1.00  0.00    -0.631 OA
BRANCH  28  30
HETATM   30  O9  UNL     1       3.860  14.129  -8.241  1.00  0.00    -0.307 OA
HETATM   31  H24 UNL     1       3.934  13.759  -7.328  1.00  0.00     0.222 HD
ENDBRANCH  28  30
BRANCH  28  32
HETATM   32  O10 UNL     1       4.987  11.971  -8.573  1.00  0.00    -0.294 OA
BRANCH  32  33
HETATM   33  C14 UNL     1       5.316  12.200  -7.227  1.00  0.00     0.215 C 
BRANCH  33  34
HETATM   34  C15 UNL     1       6.182  11.018  -6.794  1.00  0.00     0.180 C 
HETATM   35  C16 UNL     1       6.389  10.071  -7.968  1.00  0.00     0.197 C 
HETATM   36  C17 UNL     1       5.752   8.767  -7.527  1.00  0.00     0.199 C 
HETATM   37  C18 UNL     1       5.836   8.866  -6.002  1.00  0.00     0.262 C 
HETATM   38  O11 UNL     1       5.603  10.264  -5.722  1.00  0.00    -0.353 OA
BRANCH  35  39
HETATM   39  O13 UNL     1       7.789   9.938  -8.187  1.00  0.00    -0.286 OA
BRANCH  39  40
HETATM   40  P3  UNL     1       8.294  10.301  -9.660  1.00  0.00     0.391 P 
HETATM   41  O14 UNL     1       9.775  10.471  -9.764  1.00  0.00    -0.632 OA
BRANCH  40  42
HETATM   42  O15 UNL     1       7.378  11.571  -9.986  1.00  0.00    -0.307 OA
HETATM   43  H36 UNL     1       7.428  11.800 -10.945  1.00  0.00     0.222 HD
ENDBRANCH  40  42
BRANCH  40  44
HETATM   44  O16 UNL     1       7.624   9.141 -10.517  1.00  0.00    -0.307 OA
HETATM   45  H37 UNL     1       8.276   8.574 -10.958  1.00  0.00     0.222 HD
ENDBRANCH  40  44
ENDBRANCH  39  40
ENDBRANCH  35  39
BRANCH  36  46
HETATM   46  O12 UNL     1       6.408   7.659  -8.150  1.00  0.00    -0.388 OA
HETATM   47  H35 UNL     1       7.308   7.976  -8.403  1.00  0.00     0.210 HD
ENDBRANCH  36  46
BRANCH  37  48
HETATM   48  N3  UNL     1       4.817   8.081  -5.336  1.00  0.00    -0.297 N 
HETATM   49  C19 UNL     1       5.006   7.117  -4.374  1.00  0.00     0.188 A 
HETATM   50  N4  UNL     1       3.870   6.678  -3.877  1.00  0.00    -0.346 N 
HETATM   51  C20 UNL     1       2.896   7.397  -4.547  1.00  0.00     0.116 A 
HETATM   52  H4  UNL     1       3.737   5.967  -3.159  1.00  0.00     0.167 HD
HETATM   53  C21 UNL     1       1.494   7.425  -4.445  1.00  0.00     0.109 A 
HETATM   54  C23 UNL     1       3.467   8.241  -5.481  1.00  0.00     0.142 A 
HETATM   55  N5  UNL     1       0.801   8.250  -5.268  1.00  0.00    -0.341 N 
HETATM   56  C22 UNL     1       1.491   9.001  -6.149  1.00  0.00     0.183 A 
HETATM   57  H5  UNL     1      -0.217   8.300  -5.221  1.00  0.00     0.167 HD
HETATM   58  N6  UNL     1       2.826   9.065  -6.330  1.00  0.00    -0.336 N 
HETATM   59  H6  UNL     1       3.288   9.658  -7.019  1.00  0.00     0.168 HD
BRANCH  53  60
HETATM   60  N7  UNL     1       0.779   6.644  -3.552  1.00  0.00    -0.287 NA
HETATM   61  H33 UNL     1       0.368   5.808  -3.962  1.00  0.00     0.125 HD
HETATM   62  H34 UNL     1       0.187   7.188  -2.938  1.00  0.00     0.125 HD
ENDBRANCH  53  60
ENDBRANCH  37  48
ENDBRANCH  33  34
ENDBRANCH  32  33
ENDBRANCH  28  32
ENDBRANCH  27  28
ENDBRANCH  23  27
ENDBRANCH  22  23
ENDBRANCH  21  22
ENDBRANCH  18  21
ENDBRANCH  17  18
BRANCH  17  63
HETATM   63  O17 UNL     1      -2.252  12.571 -13.134  1.00  0.00    -0.385 OA
HETATM   64  H38 UNL     1      -3.070  12.808 -12.665  1.00  0.00     0.210 HD
ENDBRANCH  17  63
ENDBRANCH  14  17
ENDBRANCH  12  13
ENDBRANCH  11  12
ENDBRANCH   8  11
ENDBRANCH   6   7
ENDBRANCH   5   6
ENDBRANCH   4   5
ENDBRANCH   2   4
TORSDOF 27
ENDMDL
MODEL 8
REMARK VINA RESULT:      -6.5      3.287     10.826
REMARK  27 active torsions:
REMARK  status: ('A' for Active; 'I' for Inactive)
REMARK    1  A    between atoms: C2_2  and  S1_4 
REMARK    2  A    between atoms: S1_4  and  C3_5 
REMARK    3  A    between atoms: C3_5  and  C4_6 
REMARK    4  A    between atoms: C4_6  and  N1_7 
REMARK       I    between atoms: N1_7  and  C5_8 
REMARK    5  A    between atoms: C5_8  and  C6_10 
REMARK    6  A    between atoms: C6_10  and  C7_11 
REMARK    7  A    between atoms: C7_11  and  N2_12 
REMARK       I    between atoms: N2_12  and  C8_13 
REMARK    8  A    between atoms: C8_13  and  C9_15 
REMARK    9  A    between atoms: C9_15  and  C10_16 
REMARK   10  A    between atoms: C9_15  and  O17_54 
REMARK   11  A    between atoms: C10_16  and  C13_19 
REMARK   12  A    between atoms: C13_19  and  O4_20 
REMARK   13  A    between atoms: O4_20  and  P1_21 
REMARK   14  A    between atoms: P1_21  and  O6_23 
REMARK   15  A    between atoms: P1_21  and  O7_24 
REMARK   16  A    between atoms: O7_24  and  P2_25 
REMARK   17  A    between atoms: P2_25  and  O9_27 
REMARK   18  A    between atoms: P2_25  and  O10_28 
REMARK   19  A    between atoms: O10_28  and  C14_29 
REMARK   20  A    between atoms: C14_29  and  C15_30 
REMARK   21  A    between atoms: C16_31  and  O13_49 
REMARK   22  A    between atoms: C17_32  and  O12_48 
REMARK   23  A    between atoms: C18_33  and  N3_35 
REMARK   24  A    between atoms: C21_40  and  N7_47 
REMARK   25  A    between atoms: O13_49  and  P3_50 
REMARK   26  A    between atoms: P3_50  and  O15_52 
REMARK   27  A    between atoms: P3_50  and  O16_53 
ROOT
HETATM    1  C1  UNL     1       6.282  15.391 -12.522  1.00  0.00     0.104 C 
HETATM    2  C2  UNL     1       5.802  16.512 -11.651  1.00  0.00     0.182 C 
HETATM    3  O1  UNL     1       5.547  16.377 -10.457  1.00  0.00    -0.286 OA
ENDROOT
BRANCH   2   4
HETATM    4  S1  UNL     1       5.592  18.043 -12.491  1.00  0.00    -0.091 SA
BRANCH   4   5
HETATM    5  C3  UNL     1       3.906  18.477 -11.954  1.00  0.00     0.102 C 
BRANCH   5   6
HETATM    6  C4  UNL     1       2.856  18.074 -12.991  1.00  0.00     0.133 C 
BRANCH   6   7
HETATM    7  N1  UNL     1       2.794  16.642 -13.197  1.00  0.00    -0.360 N 
HETATM    8  C5  UNL     1       3.011  16.079 -14.433  1.00  0.00     0.219 C 
HETATM    9  O2  UNL     1       3.188  16.750 -15.443  1.00  0.00    -0.274 OA
HETATM   10  H8  UNL     1       2.593  16.045 -12.406  1.00  0.00     0.162 HD
BRANCH   8  11
HETATM   11  C6  UNL     1       2.956  14.566 -14.420  1.00  0.00     0.122 C 
BRANCH  11  12
HETATM   12  C7  UNL     1       2.536  13.999 -15.776  1.00  0.00     0.132 C 
BRANCH  12  13
HETATM   13  N2  UNL     1       1.141  13.615 -15.824  1.00  0.00    -0.358 N 
HETATM   14  C8  UNL     1       0.776  12.376 -16.318  1.00  0.00     0.247 C 
HETATM   15  O3  UNL     1       1.585  11.617 -16.835  1.00  0.00    -0.271 OA
HETATM   16  H13 UNL     1       0.550  14.021 -15.101  1.00  0.00     0.162 HD
BRANCH  14  17
HETATM   17  C9  UNL     1      -0.710  12.028 -16.148  1.00  0.00     0.219 C 
BRANCH  17  18
HETATM   18  C10 UNL     1      -0.977  10.719 -15.359  1.00  0.00     0.009 C 
HETATM   19  C11 UNL     1      -2.402  10.668 -14.789  1.00  0.00     0.020 C 
HETATM   20  C12 UNL     1      -0.776   9.473 -16.246  1.00  0.00     0.020 C 
BRANCH  18  21
HETATM   21  C13 UNL     1       0.053  10.705 -14.194  1.00  0.00     0.192 C 
BRANCH  21  22
HETATM   22  O4  UNL     1       0.468   9.397 -13.857  1.00  0.00    -0.296 OA
BRANCH  22  23
HETATM   23  P1  UNL     1       0.214   8.747 -12.413  1.00  0.00     0.401 P 
HETATM   24  O5  UNL     1       0.946   7.463 -12.182  1.00  0.00    -0.631 OA
BRANCH  23  25
HETATM   25  O6  UNL     1      -1.381   8.627 -12.231  1.00  0.00    -0.307 OA
HETATM   26  H23 UNL     1      -1.643   7.758 -11.900  1.00  0.00     0.222 HD
ENDBRANCH  23  25
BRANCH  23  27
HETATM   27  O7  UNL     1       0.557   9.904 -11.376  1.00  0.00    -0.195 OA
BRANCH  27  28
HETATM   28  P2  UNL     1      -0.332  10.049 -10.062  1.00  0.00     0.401 P 
HETATM   29  O8  UNL     1      -1.613  10.805 -10.191  1.00  0.00    -0.631 OA
BRANCH  28  30
HETATM   30  O9  UNL     1      -0.513   8.539  -9.574  1.00  0.00    -0.307 OA
HETATM   31  H24 UNL     1      -1.320   8.094  -9.929  1.00  0.00     0.222 HD
ENDBRANCH  28  30
BRANCH  28  32
HETATM   32  O10 UNL     1       0.691  10.592  -8.962  1.00  0.00    -0.294 OA
BRANCH  32  33
HETATM   33  C14 UNL     1       1.975  10.034  -8.860  1.00  0.00     0.215 C 
BRANCH  33  34
HETATM   34  C15 UNL     1       2.860  11.111  -8.234  1.00  0.00     0.180 C 
HETATM   35  C16 UNL     1       3.451  11.992  -9.326  1.00  0.00     0.197 C 
HETATM   36  C17 UNL     1       4.950  11.791  -9.213  1.00  0.00     0.199 C 
HETATM   37  C18 UNL     1       5.111  11.380  -7.747  1.00  0.00     0.262 C 
HETATM   38  O11 UNL     1       3.947  10.569  -7.475  1.00  0.00    -0.353 OA
BRANCH  35  39
HETATM   39  O13 UNL     1       3.068  13.338  -9.062  1.00  0.00    -0.286 OA
BRANCH  39  40
HETATM   40  P3  UNL     1       1.997  13.961 -10.073  1.00  0.00     0.391 P 
HETATM   41  O14 UNL     1       1.622  13.045 -11.193  1.00  0.00    -0.632 OA
BRANCH  40  42
HETATM   42  O15 UNL     1       2.711  15.341 -10.452  1.00  0.00    -0.307 OA
HETATM   43  H36 UNL     1       2.089  15.934 -10.937  1.00  0.00     0.222 HD
ENDBRANCH  40  42
BRANCH  40  44
HETATM   44  O16 UNL     1       0.846  14.411  -9.073  1.00  0.00    -0.307 OA
HETATM   45  H37 UNL     1       0.021  14.642  -9.529  1.00  0.00     0.222 HD
ENDBRANCH  40  44
ENDBRANCH  39  40
ENDBRANCH  35  39
BRANCH  36  46
HETATM   46  O12 UNL     1       5.642  12.965  -9.645  1.00  0.00    -0.388 OA
HETATM   47  H35 UNL     1       5.293  13.710  -9.099  1.00  0.00     0.210 HD
ENDBRANCH  36  46
BRANCH  37  48
HETATM   48  N3  UNL     1       6.299  10.581  -7.521  1.00  0.00    -0.297 N 
HETATM   49  C19 UNL     1       7.403  10.483  -8.335  1.00  0.00     0.188 A 
HETATM   50  N4  UNL     1       8.366   9.775  -7.787  1.00  0.00    -0.346 N 
HETATM   51  C20 UNL     1       7.863   9.398  -6.554  1.00  0.00     0.116 A 
HETATM   52  H4  UNL     1       9.279   9.553  -8.182  1.00  0.00     0.167 HD
HETATM   53  C21 UNL     1       8.412   8.672  -5.483  1.00  0.00     0.109 A 
HETATM   54  C23 UNL     1       6.569   9.858  -6.393  1.00  0.00     0.142 A 
HETATM   55  N5  UNL     1       7.646   8.455  -4.386  1.00  0.00    -0.341 N 
HETATM   56  C22 UNL     1       6.390   8.943  -4.378  1.00  0.00     0.183 A 
HETATM   57  H5  UNL     1       8.011   7.935  -3.588  1.00  0.00     0.167 HD
HETATM   58  N6  UNL     1       5.762   9.657  -5.335  1.00  0.00    -0.336 N 
HETATM   59  H6  UNL     1       4.804  10.000  -5.267  1.00  0.00     0.168 HD
BRANCH  53  60
HETATM   60  N7  UNL     1       9.698   8.155  -5.492  1.00  0.00    -0.287 NA
HETATM   61  H33 UNL     1      10.212   8.296  -4.626  1.00  0.00     0.125 HD
HETATM   62  H34 UNL     1      10.194   8.346  -6.353  1.00  0.00     0.125 HD
ENDBRANCH  53  60
ENDBRANCH  37  48
ENDBRANCH  33  34
ENDBRANCH  32  33
ENDBRANCH  28  32
ENDBRANCH  27  28
ENDBRANCH  23  27
ENDBRANCH  22  23
ENDBRANCH  21  22
ENDBRANCH  18  21
ENDBRANCH  17  18
BRANCH  17  63
HETATM   63  O17 UNL     1      -1.396  13.101 -15.494  1.00  0.00    -0.385 OA
HETATM   64  H38 UNL     1      -1.401  12.918 -14.539  1.00  0.00     0.210 HD
ENDBRANCH  17  63
ENDBRANCH  14  17
ENDBRANCH  12  13
ENDBRANCH  11  12
ENDBRANCH   8  11
ENDBRANCH   6   7
ENDBRANCH   5   6
ENDBRANCH   4   5
ENDBRANCH   2   4
TORSDOF 27
ENDMDL
MODEL 9
REMARK VINA RESULT:      -6.4      3.337      6.613
REMARK  27 active torsions:
REMARK  status: ('A' for Active; 'I' for Inactive)
REMARK    1  A    between atoms: C2_2  and  S1_4 
REMARK    2  A    between atoms: S1_4  and  C3_5 
REMARK    3  A    between atoms: C3_5  and  C4_6 
REMARK    4  A    between atoms: C4_6  and  N1_7 
REMARK       I    between atoms: N1_7  and  C5_8 
REMARK    5  A    between atoms: C5_8  and  C6_10 
REMARK    6  A    between atoms: C6_10  and  C7_11 
REMARK    7  A    between atoms: C7_11  and  N2_12 
REMARK       I    between atoms: N2_12  and  C8_13 
REMARK    8  A    between atoms: C8_13  and  C9_15 
REMARK    9  A    between atoms: C9_15  and  C10_16 
REMARK   10  A    between atoms: C9_15  and  O17_54 
REMARK   11  A    between atoms: C10_16  and  C13_19 
REMARK   12  A    between atoms: C13_19  and  O4_20 
REMARK   13  A    between atoms: O4_20  and  P1_21 
REMARK   14  A    between atoms: P1_21  and  O6_23 
REMARK   15  A    between atoms: P1_21  and  O7_24 
REMARK   16  A    between atoms: O7_24  and  P2_25 
REMARK   17  A    between atoms: P2_25  and  O9_27 
REMARK   18  A    between atoms: P2_25  and  O10_28 
REMARK   19  A    between atoms: O10_28  and  C14_29 
REMARK   20  A    between atoms: C14_29  and  C15_30 
REMARK   21  A    between atoms: C16_31  and  O13_49 
REMARK   22  A    between atoms: C17_32  and  O12_48 
REMARK   23  A    between atoms: C18_33  and  N3_35 
REMARK   24  A    between atoms: C21_40  and  N7_47 
REMARK   25  A    between atoms: O13_49  and  P3_50 
REMARK   26  A    between atoms: P3_50  and  O15_52 
REMARK   27  A    between atoms: P3_50  and  O16_53 
ROOT
HETATM    1  C1  UNL     1       5.603  15.399 -13.936  1.00  0.00     0.104 C 
HETATM    2  C2  UNL     1       4.131  15.120 -13.971  1.00  0.00     0.182 C 
HETATM    3  O1  UNL     1       3.616  14.309 -14.737  1.00  0.00    -0.286 OA
ENDROOT
BRANCH   2   4
HETATM    4  S1  UNL     1       3.184  16.083 -12.845  1.00  0.00    -0.091 SA
BRANCH   4   5
HETATM    5  C3  UNL     1       3.619  15.268 -11.275  1.00  0.00     0.102 C 
BRANCH   5   6
HETATM    6  C4  UNL     1       4.188  16.259 -10.257  1.00  0.00     0.133 C 
BRANCH   6   7
HETATM    7  N1  UNL     1       5.319  15.723  -9.528  1.00  0.00    -0.360 N 
HETATM    8  C5  UNL     1       6.615  16.016  -9.884  1.00  0.00     0.219 C 
HETATM    9  O2  UNL     1       6.893  16.675 -10.880  1.00  0.00    -0.274 OA
HETATM   10  H8  UNL     1       5.145  15.125  -8.731  1.00  0.00     0.162 HD
BRANCH   8  11
HETATM   11  C6  UNL     1       7.644  15.403  -8.960  1.00  0.00     0.122 C 
BRANCH  11  12
HETATM   12  C7  UNL     1       8.360  14.219  -9.609  1.00  0.00     0.132 C 
BRANCH  12  13
HETATM   13  N2  UNL     1       8.071  12.957  -8.961  1.00  0.00    -0.358 N 
HETATM   14  C8  UNL     1       8.980  12.402  -8.079  1.00  0.00     0.247 C 
HETATM   15  O3  UNL     1      10.093  12.881  -7.903  1.00  0.00    -0.271 OA
HETATM   16  H13 UNL     1       7.085  12.765  -8.796  1.00  0.00     0.162 HD
BRANCH  14  17
HETATM   17  C9  UNL     1       8.475  11.159  -7.331  1.00  0.00     0.219 C 
BRANCH  17  18
HETATM   18  C10 UNL     1       8.020  11.427  -5.872  1.00  0.00     0.009 C 
HETATM   19  C11 UNL     1       9.188  11.853  -4.971  1.00  0.00     0.020 C 
HETATM   20  C12 UNL     1       6.945  12.532  -5.810  1.00  0.00     0.020 C 
BRANCH  18  21
HETATM   21  C13 UNL     1       7.424  10.086  -5.358  1.00  0.00     0.192 C 
BRANCH  21  22
HETATM   22  O4  UNL     1       6.079   9.907  -5.754  1.00  0.00    -0.296 OA
BRANCH  22  23
HETATM   23  P1  UNL     1       5.414   8.461  -5.949  1.00  0.00     0.401 P 
HETATM   24  O5  UNL     1       5.331   7.651  -4.694  1.00  0.00    -0.631 OA
BRANCH  23  25
HETATM   25  O6  UNL     1       6.220   7.735  -7.138  1.00  0.00    -0.307 OA
HETATM   26  H23 UNL     1       7.126   8.061  -7.213  1.00  0.00     0.222 HD
ENDBRANCH  23  25
BRANCH  23  27
HETATM   27  O7  UNL     1       4.015   8.744  -6.652  1.00  0.00    -0.195 OA
BRANCH  27  28
HETATM   28  P2  UNL     1       2.729   8.978  -5.741  1.00  0.00     0.401 P 
HETATM   29  O8  UNL     1       2.115   7.769  -5.113  1.00  0.00    -0.631 OA
BRANCH  28  30
HETATM   30  O9  UNL     1       3.217  10.079  -4.694  1.00  0.00    -0.307 OA
HETATM   31  H24 UNL     1       3.534   9.707  -3.834  1.00  0.00     0.222 HD
ENDBRANCH  28  30
BRANCH  28  32
HETATM   32  O10 UNL     1       1.760   9.855  -6.659  1.00  0.00    -0.294 OA
BRANCH  32  33
HETATM   33  C14 UNL     1       0.971   9.235  -7.641  1.00  0.00     0.215 C 
BRANCH  33  34
HETATM   34  C15 UNL     1       1.488   9.742  -8.986  1.00  0.00     0.180 C 
HETATM   35  C16 UNL     1       1.738  11.243  -8.909  1.00  0.00     0.197 C 
HETATM   36  C17 UNL     1       0.786  11.844  -9.926  1.00  0.00     0.199 C 
HETATM   37  C18 UNL     1       0.580  10.683 -10.902  1.00  0.00     0.262 C 
HETATM   38  O11 UNL     1       0.571   9.508 -10.061  1.00  0.00    -0.353 OA
BRANCH  35  39
HETATM   39  O13 UNL     1       3.101  11.480  -9.245  1.00  0.00    -0.286 OA
BRANCH  39  40
HETATM   40  P3  UNL     1       3.881  12.492  -8.284  1.00  0.00     0.391 P 
HETATM   41  O14 UNL     1       5.283  12.775  -8.718  1.00  0.00    -0.632 OA
BRANCH  40  42
HETATM   42  O15 UNL     1       3.674  11.779  -6.867  1.00  0.00    -0.307 OA
HETATM   43  H36 UNL     1       3.913  10.823  -6.919  1.00  0.00     0.222 HD
ENDBRANCH  40  42
BRANCH  40  44
HETATM   44  O16 UNL     1       2.868  13.716  -8.225  1.00  0.00    -0.307 OA
HETATM   45  H37 UNL     1       2.608  14.032  -9.105  1.00  0.00     0.222 HD
ENDBRANCH  40  44
ENDBRANCH  39  40
ENDBRANCH  35  39
BRANCH  36  46
HETATM   46  O12 UNL     1       1.326  13.058 -10.454  1.00  0.00    -0.388 OA
HETATM   47  H35 UNL     1       1.937  12.796 -11.184  1.00  0.00     0.210 HD
ENDBRANCH  36  46
BRANCH  37  48
HETATM   48  N3  UNL     1      -0.685  10.764 -11.604  1.00  0.00    -0.297 N 
HETATM   49  C19 UNL     1      -1.885  11.214 -11.105  1.00  0.00     0.188 A 
HETATM   50  N4  UNL     1      -2.816  11.282 -12.032  1.00  0.00    -0.346 N 
HETATM   51  C20 UNL     1      -2.187  10.860 -13.190  1.00  0.00     0.116 A 
HETATM   52  H4  UNL     1      -3.785  11.579 -11.922  1.00  0.00     0.167 HD
HETATM   53  C21 UNL     1      -2.620  10.746 -14.522  1.00  0.00     0.109 A 
HETATM   54  C23 UNL     1      -0.877  10.499 -12.931  1.00  0.00     0.142 A 
HETATM   55  N5  UNL     1      -1.749  10.280 -15.450  1.00  0.00    -0.341 N 
HETATM   56  C22 UNL     1      -0.508   9.943 -15.048  1.00  0.00     0.183 A 
HETATM   57  H5  UNL     1      -2.027  10.187 -16.427  1.00  0.00     0.167 HD
HETATM   58  N6  UNL     1       0.020  10.017 -13.809  1.00  0.00    -0.336 N 
HETATM   59  H6  UNL     1       0.974   9.745 -13.569  1.00  0.00     0.168 HD
BRANCH  53  60
HETATM   60  N7  UNL     1      -3.900  11.077 -14.938  1.00  0.00    -0.287 NA
HETATM   61  H33 UNL     1      -4.642  10.606 -14.425  1.00  0.00     0.125 HD
HETATM   62  H34 UNL     1      -3.992  11.109 -15.945  1.00  0.00     0.125 HD
ENDBRANCH  53  60
ENDBRANCH  37  48
ENDBRANCH  33  34
ENDBRANCH  32  33
ENDBRANCH  28  32
ENDBRANCH  27  28
ENDBRANCH  23  27
ENDBRANCH  22  23
ENDBRANCH  21  22
ENDBRANCH  18  21
ENDBRANCH  17  18
BRANCH  17  63
HETATM   63  O17 UNL     1       7.387  10.562  -8.045  1.00  0.00    -0.385 OA
HETATM   64  H38 UNL     1       7.330   9.628  -7.783  1.00  0.00     0.210 HD
ENDBRANCH  17  63
ENDBRANCH  14  17
ENDBRANCH  12  13
ENDBRANCH  11  12
ENDBRANCH   8  11
ENDBRANCH   6   7
ENDBRANCH   5   6
ENDBRANCH   4   5
ENDBRANCH   2   4
TORSDOF 27
ENDMDL
MODEL 10
REMARK VINA RESULT:      -6.2      4.260      9.505
REMARK  27 active torsions:
REMARK  status: ('A' for Active; 'I' for Inactive)
REMARK    1  A    between atoms: C2_2  and  S1_4 
REMARK    2  A    between atoms: S1_4  and  C3_5 
REMARK    3  A    between atoms: C3_5  and  C4_6 
REMARK    4  A    between atoms: C4_6  and  N1_7 
REMARK       I    between atoms: N1_7  and  C5_8 
REMARK    5  A    between atoms: C5_8  and  C6_10 
REMARK    6  A    between atoms: C6_10  and  C7_11 
REMARK    7  A    between atoms: C7_11  and  N2_12 
REMARK       I    between atoms: N2_12  and  C8_13 
REMARK    8  A    between atoms: C8_13  and  C9_15 
REMARK    9  A    between atoms: C9_15  and  C10_16 
REMARK   10  A    between atoms: C9_15  and  O17_54 
REMARK   11  A    between atoms: C10_16  and  C13_19 
REMARK   12  A    between atoms: C13_19  and  O4_20 
REMARK   13  A    between atoms: O4_20  and  P1_21 
REMARK   14  A    between atoms: P1_21  and  O6_23 
REMARK   15  A    between atoms: P1_21  and  O7_24 
REMARK   16  A    between atoms: O7_24  and  P2_25 
REMARK   17  A    between atoms: P2_25  and  O9_27 
REMARK   18  A    between atoms: P2_25  and  O10_28 
REMARK   19  A    between atoms: O10_28  and  C14_29 
REMARK   20  A    between atoms: C14_29  and  C15_30 
REMARK   21  A    between atoms: C16_31  and  O13_49 
REMARK   22  A    between atoms: C17_32  and  O12_48 
REMARK   23  A    between atoms: C18_33  and  N3_35 
REMARK   24  A    between atoms: C21_40  and  N7_47 
REMARK   25  A    between atoms: O13_49  and  P3_50 
REMARK   26  A    between atoms: P3_50  and  O15_52 
REMARK   27  A    between atoms: P3_50  and  O16_53 
ROOT
HETATM    1  C1  UNL     1       8.825  15.231 -16.039  1.00  0.00     0.104 C 
HETATM    2  C2  UNL     1       8.367  13.939 -15.433  1.00  0.00     0.182 C 
HETATM    3  O1  UNL     1       7.251  13.782 -14.945  1.00  0.00    -0.286 OA
ENDROOT
BRANCH   2   4
HETATM    4  S1  UNL     1       9.579  12.665 -15.439  1.00  0.00    -0.091 SA
BRANCH   4   5
HETATM    5  C3  UNL     1       8.631  11.313 -14.669  1.00  0.00     0.102 C 
BRANCH   5   6
HETATM    6  C4  UNL     1       8.065  10.348 -15.713  1.00  0.00     0.133 C 
BRANCH   6   7
HETATM    7  N1  UNL     1       6.928  10.897 -16.424  1.00  0.00    -0.360 N 
HETATM    8  C5  UNL     1       5.700  10.279 -16.412  1.00  0.00     0.219 C 
HETATM    9  O2  UNL     1       5.512   9.194 -15.872  1.00  0.00    -0.274 OA
HETATM   10  H8  UNL     1       7.045  11.762 -16.934  1.00  0.00     0.162 HD
BRANCH   8  11
HETATM   11  C6  UNL     1       4.636  11.044 -17.169  1.00  0.00     0.122 C 
BRANCH  11  12
HETATM   12  C7  UNL     1       3.760  11.880 -16.235  1.00  0.00     0.132 C 
BRANCH  12  13
HETATM   13  N2  UNL     1       2.346  11.744 -16.512  1.00  0.00    -0.358 N 
HETATM   14  C8  UNL     1       1.411  12.223 -15.613  1.00  0.00     0.247 C 
HETATM   15  O3  UNL     1       1.728  12.664 -14.516  1.00  0.00    -0.271 OA
HETATM   16  H13 UNL     1       2.090  11.750 -17.497  1.00  0.00     0.162 HD
BRANCH  14  17
HETATM   17  C9  UNL     1      -0.042  12.176 -16.108  1.00  0.00     0.219 C 
BRANCH  17  18
HETATM   18  C10 UNL     1      -0.744  10.806 -15.913  1.00  0.00     0.009 C 
HETATM   19  C11 UNL     1      -2.251  10.960 -15.656  1.00  0.00     0.020 C 
HETATM   20  C12 UNL     1      -0.562   9.897 -17.145  1.00  0.00     0.020 C 
BRANCH  18  21
HETATM   21  C13 UNL     1      -0.067  10.153 -14.674  1.00  0.00     0.192 C 
BRANCH  21  22
HETATM   22  O4  UNL     1      -0.969   9.373 -13.916  1.00  0.00    -0.296 OA
BRANCH  22  23
HETATM   23  P1  UNL     1      -0.491   8.330 -12.796  1.00  0.00     0.401 P 
HETATM   24  O5  UNL     1       0.982   8.065 -12.796  1.00  0.00    -0.631 OA
BRANCH  23  25
HETATM   25  O6  UNL     1      -1.388   7.006 -12.979  1.00  0.00    -0.307 OA
HETATM   26  H23 UNL     1      -1.124   6.494 -13.754  1.00  0.00     0.222 HD
ENDBRANCH  23  25
BRANCH  23  27
HETATM   27  O7  UNL     1      -1.063   8.904 -11.428  1.00  0.00    -0.195 OA
BRANCH  27  28
HETATM   28  P2  UNL     1      -0.191   9.957 -10.610  1.00  0.00     0.401 P 
HETATM   29  O8  UNL     1       0.466  11.046 -11.393  1.00  0.00    -0.631 OA
BRANCH  28  30
HETATM   30  O9  UNL     1      -1.202  10.479  -9.490  1.00  0.00    -0.307 OA
HETATM   31  H24 UNL     1      -0.953  11.351  -9.096  1.00  0.00     0.222 HD
ENDBRANCH  28  30
BRANCH  28  32
HETATM   32  O10 UNL     1       0.782   9.049  -9.727  1.00  0.00    -0.294 OA
BRANCH  32  33
HETATM   33  C14 UNL     1       0.898   9.279  -8.347  1.00  0.00     0.215 C 
BRANCH  33  34
HETATM   34  C15 UNL     1       2.385   9.162  -8.019  1.00  0.00     0.180 C 
HETATM   35  C16 UNL     1       2.638   9.642  -6.595  1.00  0.00     0.197 C 
HETATM   36  C17 UNL     1       3.560  10.836  -6.750  1.00  0.00     0.199 C 
HETATM   37  C18 UNL     1       4.247  10.542  -8.086  1.00  0.00     0.262 C 
HETATM   38  O11 UNL     1       3.213   9.937  -8.893  1.00  0.00    -0.353 OA
BRANCH  35  39
HETATM   39  O13 UNL     1       3.252   8.579  -5.874  1.00  0.00    -0.286 OA
BRANCH  39  40
HETATM   40  P3  UNL     1       2.531   8.166  -4.508  1.00  0.00     0.391 P 
HETATM   41  O14 UNL     1       1.051   8.002  -4.634  1.00  0.00    -0.632 OA
BRANCH  40  42
HETATM   42  O15 UNL     1       3.069   9.309  -3.528  1.00  0.00    -0.307 OA
HETATM   43  H36 UNL     1       4.026   9.487  -3.691  1.00  0.00     0.222 HD
ENDBRANCH  40  42
BRANCH  40  44
HETATM   44  O16 UNL     1       3.379   6.891  -4.078  1.00  0.00    -0.307 OA
HETATM   45  H37 UNL     1       4.281   7.116  -3.799  1.00  0.00     0.222 HD
ENDBRANCH  40  44
ENDBRANCH  39  40
ENDBRANCH  35  39
BRANCH  36  46
HETATM   46  O12 UNL     1       4.395  10.971  -5.597  1.00  0.00    -0.388 OA
HETATM   47  H35 UNL     1       5.093  10.278  -5.678  1.00  0.00     0.210 HD
ENDBRANCH  36  46
BRANCH  37  48
HETATM   48  N3  UNL     1       4.712  11.744  -8.749  1.00  0.00    -0.297 N 
HETATM   49  C19 UNL     1       6.016  12.138  -8.938  1.00  0.00     0.188 A 
HETATM   50  N4  UNL     1       6.109  13.214  -9.687  1.00  0.00    -0.346 N 
HETATM   51  C20 UNL     1       4.800  13.532 -10.004  1.00  0.00     0.116 A 
HETATM   52  H4  UNL     1       6.956  13.705  -9.972  1.00  0.00     0.167 HD
HETATM   53  C21 UNL     1       4.231  14.539 -10.803  1.00  0.00     0.109 A 
HETATM   54  C23 UNL     1       3.922  12.652  -9.397  1.00  0.00     0.142 A 
HETATM   55  N5  UNL     1       2.881  14.595 -10.911  1.00  0.00    -0.341 N 
HETATM   56  C22 UNL     1       2.148  13.684 -10.242  1.00  0.00     0.183 A 
HETATM   57  H5  UNL     1       2.431  15.310 -11.485  1.00  0.00     0.167 HD
HETATM   58  N6  UNL     1       2.579  12.674  -9.458  1.00  0.00    -0.336 N 
HETATM   59  H6  UNL     1       1.968  12.014  -8.976  1.00  0.00     0.168 HD
BRANCH  53  60
HETATM   60  N7  UNL     1       4.979  15.488 -11.482  1.00  0.00    -0.287 NA
HETATM   61  H33 UNL     1       4.790  15.533 -12.481  1.00  0.00     0.125 HD
HETATM   62  H34 UNL     1       5.950  15.500 -11.200  1.00  0.00     0.125 HD
ENDBRANCH  53  60
ENDBRANCH  37  48
ENDBRANCH  33  34
ENDBRANCH  32  33
ENDBRANCH  28  32
ENDBRANCH  27  28
ENDBRANCH  23  27
ENDBRANCH  22  23
ENDBRANCH  21  22
ENDBRANCH  18  21
ENDBRANCH  17  18
BRANCH  17  63
HETATM   63  O17 UNL     1      -0.820  13.183 -15.451  1.00  0.00    -0.385 OA
HETATM   64  H38 UNL     1      -1.595  12.753 -15.052  1.00  0.00     0.210 HD
ENDBRANCH  17  63
ENDBRANCH  14  17
ENDBRANCH  12  13
ENDBRANCH  11  12
ENDBRANCH   8  11
ENDBRANCH   6   7
ENDBRANCH   5   6
ENDBRANCH   4   5
ENDBRANCH   2   4
TORSDOF 27
ENDMDL
MODEL 11
REMARK VINA RESULT:      -6.1      3.425     10.858
REMARK  27 active torsions:
REMARK  status: ('A' for Active; 'I' for Inactive)
REMARK    1  A    between atoms: C2_2  and  S1_4 
REMARK    2  A    between atoms: S1_4  and  C3_5 
REMARK    3  A    between atoms: C3_5  and  C4_6 
REMARK    4  A    between atoms: C4_6  and  N1_7 
REMARK       I    between atoms: N1_7  and  C5_8 
REMARK    5  A    between atoms: C5_8  and  C6_10 
REMARK    6  A    between atoms: C6_10  and  C7_11 
REMARK    7  A    between atoms: C7_11  and  N2_12 
REMARK       I    between atoms: N2_12  and  C8_13 
REMARK    8  A    between atoms: C8_13  and  C9_15 
REMARK    9  A    between atoms: C9_15  and  C10_16 
REMARK   10  A    between atoms: C9_15  and  O17_54 
REMARK   11  A    between atoms: C10_16  and  C13_19 
REMARK   12  A    between atoms: C13_19  and  O4_20 
REMARK   13  A    between atoms: O4_20  and  P1_21 
REMARK   14  A    between atoms: P1_21  and  O6_23 
REMARK   15  A    between atoms: P1_21  and  O7_24 
REMARK   16  A    between atoms: O7_24  and  P2_25 
REMARK   17  A    between atoms: P2_25  and  O9_27 
REMARK   18  A    between atoms: P2_25  and  O10_28 
REMARK   19  A    between atoms: O10_28  and  C14_29 
REMARK   20  A    between atoms: C14_29  and  C15_30 
REMARK   21  A    between atoms: C16_31  and  O13_49 
REMARK   22  A    between atoms: C17_32  and  O12_48 
REMARK   23  A    between atoms: C18_33  and  N3_35 
REMARK   24  A    between atoms: C21_40  and  N7_47 
REMARK   25  A    between atoms: O13_49  and  P3_50 
REMARK   26  A    between atoms: P3_50  and  O15_52 
REMARK   27  A    between atoms: P3_50  and  O16_53 
ROOT
HETATM    1  C1  UNL     1       2.912  15.828 -14.302  1.00  0.00     0.104 C 
HETATM    2  C2  UNL     1       4.202  15.222 -13.842  1.00  0.00     0.182 C 
HETATM    3  O1  UNL     1       4.389  14.823 -12.695  1.00  0.00    -0.286 OA
ENDROOT
BRANCH   2   4
HETATM    4  S1  UNL     1       5.455  15.161 -15.075  1.00  0.00    -0.091 SA
BRANCH   4   5
HETATM    5  C3  UNL     1       4.751  16.302 -16.309  1.00  0.00     0.102 C 
BRANCH   5   6
HETATM    6  C4  UNL     1       4.520  15.614 -17.655  1.00  0.00     0.133 C 
BRANCH   6   7
HETATM    7  N1  UNL     1       3.167  15.118 -17.806  1.00  0.00    -0.360 N 
HETATM    8  C5  UNL     1       2.852  13.798 -17.586  1.00  0.00     0.219 C 
HETATM    9  O2  UNL     1       3.700  12.950 -17.330  1.00  0.00    -0.274 OA
HETATM   10  H8  UNL     1       2.438  15.766 -18.072  1.00  0.00     0.162 HD
BRANCH   8  11
HETATM   11  C6  UNL     1       1.376  13.500 -17.742  1.00  0.00     0.122 C 
BRANCH  11  12
HETATM   12  C7  UNL     1       0.655  13.466 -16.395  1.00  0.00     0.132 C 
BRANCH  12  13
HETATM   13  N2  UNL     1      -0.087  12.242 -16.179  1.00  0.00    -0.358 N 
HETATM   14  C8  UNL     1       0.487  11.191 -15.488  1.00  0.00     0.247 C 
HETATM   15  O3  UNL     1       1.662  11.204 -15.142  1.00  0.00    -0.271 OA
HETATM   16  H13 UNL     1      -1.097  12.348 -16.109  1.00  0.00     0.162 HD
BRANCH  14  17
HETATM   17  C9  UNL     1      -0.465  10.027 -15.177  1.00  0.00     0.219 C 
BRANCH  17  18
HETATM   18  C10 UNL     1      -0.773   9.834 -13.669  1.00  0.00     0.009 C 
HETATM   19  C11 UNL     1      -2.216   9.366 -13.429  1.00  0.00     0.020 C 
HETATM   20  C12 UNL     1       0.174   8.801 -13.026  1.00  0.00     0.020 C 
BRANCH  18  21
HETATM   21  C13 UNL     1      -0.559  11.226 -13.008  1.00  0.00     0.192 C 
BRANCH  21  22
HETATM   22  O4  UNL     1       0.165  11.141 -11.797  1.00  0.00    -0.296 OA
BRANCH  22  23
HETATM   23  P1  UNL     1      -0.426  11.641 -10.393  1.00  0.00     0.401 P 
HETATM   24  O5  UNL     1      -1.383  10.683  -9.756  1.00  0.00    -0.631 OA
BRANCH  23  25
HETATM   25  O6  UNL     1      -1.045  13.106 -10.644  1.00  0.00    -0.307 OA
HETATM   26  H23 UNL     1      -0.381  13.729 -10.964  1.00  0.00     0.222 HD
ENDBRANCH  23  25
BRANCH  23  27
HETATM   27  O7  UNL     1       0.850  11.992  -9.511  1.00  0.00    -0.195 OA
BRANCH  27  28
HETATM   28  P2  UNL     1       1.648  13.338  -9.811  1.00  0.00     0.401 P 
HETATM   29  O8  UNL     1       1.738  13.766 -11.240  1.00  0.00    -0.631 OA
BRANCH  28  30
HETATM   30  O9  UNL     1       0.941  14.403  -8.855  1.00  0.00    -0.307 OA
HETATM   31  H24 UNL     1       0.907  15.319  -9.227  1.00  0.00     0.222 HD
ENDBRANCH  28  30
BRANCH  28  32
HETATM   32  O10 UNL     1       3.039  13.140  -9.053  1.00  0.00    -0.294 OA
BRANCH  32  33
HETATM   33  C14 UNL     1       3.600  11.859  -8.937  1.00  0.00     0.215 C 
BRANCH  33  34
HETATM   34  C15 UNL     1       4.307  11.823  -7.584  1.00  0.00     0.180 C 
HETATM   35  C16 UNL     1       5.672  11.162  -7.732  1.00  0.00     0.197 C 
HETATM   36  C17 UNL     1       5.599   9.928  -6.854  1.00  0.00     0.199 C 
HETATM   37  C18 UNL     1       4.532  10.323  -5.830  1.00  0.00     0.262 C 
HETATM   38  O11 UNL     1       3.577  11.095  -6.590  1.00  0.00    -0.353 OA
BRANCH  35  39
HETATM   39  O13 UNL     1       6.659  12.084  -7.282  1.00  0.00    -0.286 OA
BRANCH  39  40
HETATM   40  P3  UNL     1       7.332  12.983  -8.420  1.00  0.00     0.391 P 
HETATM   41  O14 UNL     1       6.489  14.139  -8.852  1.00  0.00    -0.632 OA
BRANCH  40  42
HETATM   42  O15 UNL     1       7.680  11.870  -9.515  1.00  0.00    -0.307 OA
HETATM   43  H36 UNL     1       7.225  12.066 -10.368  1.00  0.00     0.222 HD
ENDBRANCH  40  42
BRANCH  40  44
HETATM   44  O16 UNL     1       8.747  13.306  -7.770  1.00  0.00    -0.307 OA
HETATM   45  H37 UNL     1       9.433  12.668  -8.024  1.00  0.00     0.222 HD
ENDBRANCH  40  44
ENDBRANCH  39  40
ENDBRANCH  35  39
BRANCH  36  46
HETATM   46  O12 UNL     1       6.897   9.597  -6.355  1.00  0.00    -0.388 OA
HETATM   47  H35 UNL     1       6.754   8.995  -5.586  1.00  0.00     0.210 HD
ENDBRANCH  36  46
BRANCH  37  48
HETATM   48  N3  UNL     1       3.855   9.175  -5.260  1.00  0.00    -0.297 N 
HETATM   49  C19 UNL     1       4.316   8.350  -4.260  1.00  0.00     0.188 A 
HETATM   50  N4  UNL     1       3.411   7.475  -3.880  1.00  0.00    -0.346 N 
HETATM   51  C20 UNL     1       2.308   7.748  -4.669  1.00  0.00     0.116 A 
HETATM   52  H4  UNL     1       3.502   6.755  -3.163  1.00  0.00     0.167 HD
HETATM   53  C21 UNL     1       1.015   7.199  -4.722  1.00  0.00     0.109 A 
HETATM   54  C23 UNL     1       2.583   8.773  -5.556  1.00  0.00     0.142 A 
HETATM   55  N5  UNL     1       0.139   7.687  -5.635  1.00  0.00    -0.341 N 
HETATM   56  C22 UNL     1       0.555   8.674  -6.453  1.00  0.00     0.183 A 
HETATM   57  H5  UNL     1      -0.809   7.316  -5.700  1.00  0.00     0.167 HD
HETATM   58  N6  UNL     1       1.759   9.282  -6.489  1.00  0.00    -0.336 N 
HETATM   59  H6  UNL     1       2.011  10.027  -7.138  1.00  0.00     0.168 HD
BRANCH  53  60
HETATM   60  N7  UNL     1       0.587   6.174  -3.893  1.00  0.00    -0.287 NA
HETATM   61  H33 UNL     1       1.013   5.271  -4.089  1.00  0.00     0.125 HD
HETATM   62  H34 UNL     1      -0.412   6.182  -3.738  1.00  0.00     0.125 HD
ENDBRANCH  53  60
ENDBRANCH  37  48
ENDBRANCH  33  34
ENDBRANCH  32  33
ENDBRANCH  28  32
ENDBRANCH  27  28
ENDBRANCH  23  27
ENDBRANCH  22  23
ENDBRANCH  21  22
ENDBRANCH  18  21
ENDBRANCH  17  18
BRANCH  17  63
HETATM   63  O17 UNL     1      -1.703  10.203 -15.875  1.00  0.00    -0.385 OA
HETATM   64  H38 UNL     1      -2.004   9.330 -16.181  1.00  0.00     0.210 HD
ENDBRANCH  17  63
ENDBRANCH  14  17
ENDBRANCH  12  13
ENDBRANCH  11  12
ENDBRANCH   8  11
ENDBRANCH   6   7
ENDBRANCH   5   6
ENDBRANCH   4   5
ENDBRANCH   2   4
TORSDOF 27
ENDMDL
MODEL 12
REMARK VINA RESULT:      -6.0      5.440      8.560
REMARK  27 active torsions:
REMARK  status: ('A' for Active; 'I' for Inactive)
REMARK    1  A    between atoms: C2_2  and  S1_4 
REMARK    2  A    between atoms: S1_4  and  C3_5 
REMARK    3  A    between atoms: C3_5  and  C4_6 
REMARK    4  A    between atoms: C4_6  and  N1_7 
REMARK       I    between atoms: N1_7  and  C5_8 
REMARK    5  A    between atoms: C5_8  and  C6_10 
REMARK    6  A    between atoms: C6_10  and  C7_11 
REMARK    7  A    between atoms: C7_11  and  N2_12 
REMARK       I    between atoms: N2_12  and  C8_13 
REMARK    8  A    between atoms: C8_13  and  C9_15 
REMARK    9  A    between atoms: C9_15  and  C10_16 
REMARK   10  A    between atoms: C9_15  and  O17_54 
REMARK   11  A    between atoms: C10_16  and  C13_19 
REMARK   12  A    between atoms: C13_19  and  O4_20 
REMARK   13  A    between atoms: O4_20  and  P1_21 
REMARK   14  A    between atoms: P1_21  and  O6_23 
REMARK   15  A    between atoms: P1_21  and  O7_24 
REMARK   16  A    between atoms: O7_24  and  P2_25 
REMARK   17  A    between atoms: P2_25  and  O9_27 
REMARK   18  A    between atoms: P2_25  and  O10_28 
REMARK   19  A    between atoms: O10_28  and  C14_29 
REMARK   20  A    between atoms: C14_29  and  C15_30 
REMARK   21  A    between atoms: C16_31  and  O13_49 
REMARK   22  A    between atoms: C17_32  and  O12_48 
REMARK   23  A    between atoms: C18_33  and  N3_35 
REMARK   24  A    between atoms: C21_40  and  N7_47 
REMARK   25  A    between atoms: O13_49  and  P3_50 
REMARK   26  A    between atoms: P3_50  and  O15_52 
REMARK   27  A    between atoms: P3_50  and  O16_53 
ROOT
HETATM    1  C1  UNL     1       8.045   9.931  -9.699  1.00  0.00     0.104 C 
HETATM    2  C2  UNL     1       9.345  10.676  -9.659  1.00  0.00     0.182 C 
HETATM    3  O1  UNL     1       9.889  11.028  -8.615  1.00  0.00    -0.286 OA
ENDROOT
BRANCH   2   4
HETATM    4  S1  UNL     1      10.017  11.047 -11.241  1.00  0.00    -0.091 SA
BRANCH   4   5
HETATM    5  C3  UNL     1      10.975  12.544 -10.843  1.00  0.00     0.102 C 
BRANCH   5   6
HETATM    6  C4  UNL     1      10.200  13.821 -11.171  1.00  0.00     0.133 C 
BRANCH   6   7
HETATM    7  N1  UNL     1      10.598  14.945 -10.348  1.00  0.00    -0.360 N 
HETATM    8  C5  UNL     1       9.684  15.666  -9.617  1.00  0.00     0.219 C 
HETATM    9  O2  UNL     1       8.477  15.458  -9.677  1.00  0.00    -0.274 OA
HETATM   10  H8  UNL     1      11.577  15.196 -10.309  1.00  0.00     0.162 HD
BRANCH   8  11
HETATM   11  C6  UNL     1      10.313  16.761  -8.783  1.00  0.00     0.122 C 
BRANCH  11  12
HETATM   12  C7  UNL     1       9.893  16.676  -7.316  1.00  0.00     0.132 C 
BRANCH  12  13
HETATM   13  N2  UNL     1      10.039  15.348  -6.760  1.00  0.00    -0.358 N 
HETATM   14  C8  UNL     1      10.975  15.106  -5.771  1.00  0.00     0.247 C 
HETATM   15  O3  UNL     1      11.782  15.955  -5.416  1.00  0.00    -0.271 OA
HETATM   16  H13 UNL     1       9.194  14.781  -6.750  1.00  0.00     0.162 HD
BRANCH  14  17
HETATM   17  C9  UNL     1      10.905  13.704  -5.147  1.00  0.00     0.219 C 
BRANCH  17  18
HETATM   18  C10 UNL     1       9.830  13.547  -4.040  1.00  0.00     0.009 C 
HETATM   19  C11 UNL     1      10.391  12.869  -2.781  1.00  0.00     0.020 C 
HETATM   20  C12 UNL     1       9.243  14.911  -3.623  1.00  0.00     0.020 C 
BRANCH  18  21
HETATM   21  C13 UNL     1       8.710  12.660  -4.656  1.00  0.00     0.192 C 
BRANCH  21  22
HETATM   22  O4  UNL     1       7.719  13.424  -5.313  1.00  0.00    -0.296 OA
BRANCH  22  23
HETATM   23  P1  UNL     1       7.099  13.008  -6.733  1.00  0.00     0.401 P 
HETATM   24  O5  UNL     1       6.521  11.629  -6.768  1.00  0.00    -0.631 OA
BRANCH  23  25
HETATM   25  O6  UNL     1       8.246  13.260  -7.833  1.00  0.00    -0.307 OA
HETATM   26  H23 UNL     1       7.876  13.461  -8.703  1.00  0.00     0.222 HD
ENDBRANCH  23  25
BRANCH  23  27
HETATM   27  O7  UNL     1       6.070  14.169  -7.087  1.00  0.00    -0.195 OA
BRANCH  27  28
HETATM   28  P2  UNL     1       5.248  14.080  -8.449  1.00  0.00     0.401 P 
HETATM   29  O8  UNL     1       5.116  15.338  -9.243  1.00  0.00    -0.631 OA
BRANCH  28  30
HETATM   30  O9  UNL     1       5.964  12.887  -9.232  1.00  0.00    -0.307 OA
HETATM   31  H24 UNL     1       6.933  13.021  -9.373  1.00  0.00     0.222 HD
ENDBRANCH  28  30
BRANCH  28  32
HETATM   32  O10 UNL     1       3.879  13.374  -8.027  1.00  0.00    -0.294 OA
BRANCH  32  33
HETATM   33  C14 UNL     1       2.776  13.407  -8.894  1.00  0.00     0.215 C 
BRANCH  33  34
HETATM   34  C15 UNL     1       2.666  12.008  -9.499  1.00  0.00     0.180 C 
HETATM   35  C16 UNL     1       1.274  11.444  -9.244  1.00  0.00     0.197 C 
HETATM   36  C17 UNL     1       1.509  10.213  -8.390  1.00  0.00     0.199 C 
HETATM   37  C18 UNL     1       2.939   9.823  -8.771  1.00  0.00     0.262 C 
HETATM   38  O11 UNL     1       3.616  11.087  -8.951  1.00  0.00    -0.353 OA
BRANCH  35  39
HETATM   39  O13 UNL     1       0.692  11.122 -10.503  1.00  0.00    -0.286 OA
BRANCH  39  40
HETATM   40  P3  UNL     1      -0.684  11.864 -10.837  1.00  0.00     0.391 P 
HETATM   41  O14 UNL     1      -1.030  11.866 -12.290  1.00  0.00    -0.632 OA
BRANCH  40  42
HETATM   42  O15 UNL     1      -0.438  13.279 -10.132  1.00  0.00    -0.307 OA
HETATM   43  H36 UNL     1      -0.442  13.185  -9.150  1.00  0.00     0.222 HD
ENDBRANCH  40  42
BRANCH  40  44
HETATM   44  O16 UNL     1      -1.685  11.133  -9.841  1.00  0.00    -0.307 OA
HETATM   45  H37 UNL     1      -1.970  10.264 -10.165  1.00  0.00     0.222 HD
ENDBRANCH  40  44
ENDBRANCH  39  40
ENDBRANCH  35  39
BRANCH  36  46
HETATM   46  O12 UNL     1       0.481   9.245  -8.623  1.00  0.00    -0.388 OA
HETATM   47  H35 UNL     1       0.830   8.384  -8.289  1.00  0.00     0.210 HD
ENDBRANCH  36  46
BRANCH  37  48
HETATM   48  N3  UNL     1       3.611   9.080  -7.723  1.00  0.00    -0.297 N 
HETATM   49  C19 UNL     1       4.897   8.594  -7.743  1.00  0.00     0.188 A 
HETATM   50  N4  UNL     1       5.252   8.074  -6.588  1.00  0.00    -0.346 N 
HETATM   51  C20 UNL     1       4.142   8.235  -5.778  1.00  0.00     0.116 A 
HETATM   52  H4  UNL     1       6.145   7.647  -6.344  1.00  0.00     0.167 HD
HETATM   53  C21 UNL     1       3.895   7.930  -4.428  1.00  0.00     0.109 A 
HETATM   54  C23 UNL     1       3.105   8.821  -6.480  1.00  0.00     0.142 A 
HETATM   55  N5  UNL     1       2.672   8.206  -3.914  1.00  0.00    -0.341 N 
HETATM   56  C22 UNL     1       1.748   8.758  -4.725  1.00  0.00     0.183 A 
HETATM   57  H5  UNL     1       2.457   8.002  -2.938  1.00  0.00     0.167 HD
HETATM   58  N6  UNL     1       1.871   9.102  -6.023  1.00  0.00    -0.336 N 
HETATM   59  H6  UNL     1       1.128   9.518  -6.585  1.00  0.00     0.168 HD
BRANCH  53  60
HETATM   60  N7  UNL     1       4.836   7.348  -3.594  1.00  0.00    -0.287 NA
HETATM   61  H33 UNL     1       5.541   6.796  -4.078  1.00  0.00     0.125 HD
HETATM   62  H34 UNL     1       4.429   6.941  -2.763  1.00  0.00     0.125 HD
ENDBRANCH  53  60
ENDBRANCH  37  48
ENDBRANCH  33  34
ENDBRANCH  32  33
ENDBRANCH  28  32
ENDBRANCH  27  28
ENDBRANCH  23  27
ENDBRANCH  22  23
ENDBRANCH  21  22
ENDBRANCH  18  21
ENDBRANCH  17  18
BRANCH  17  63
HETATM   63  O17 UNL     1      10.659  12.725  -6.162  1.00  0.00    -0.385 OA
HETATM   64  H38 UNL     1      11.150  11.919  -5.928  1.00  0.00     0.210 HD
ENDBRANCH  17  63
ENDBRANCH  14  17
ENDBRANCH  12  13
ENDBRANCH  11  12
ENDBRANCH   8  11
ENDBRANCH   6   7
ENDBRANCH   5   6
ENDBRANCH   4   5
ENDBRANCH   2   4
TORSDOF 27
ENDMDL
MODEL 13
REMARK VINA RESULT:      -5.7      4.950      9.255
REMARK  27 active torsions:
REMARK  status: ('A' for Active; 'I' for Inactive)
REMARK    1  A    between atoms: C2_2  and  S1_4 
REMARK    2  A    between atoms: S1_4  and  C3_5 
REMARK    3  A    between atoms: C3_5  and  C4_6 
REMARK    4  A    between atoms: C4_6  and  N1_7 
REMARK       I    between atoms: N1_7  and  C5_8 
REMARK    5  A    between atoms: C5_8  and  C6_10 
REMARK    6  A    between atoms: C6_10  and  C7_11 
REMARK    7  A    between atoms: C7_11  and  N2_12 
REMARK       I    between atoms: N2_12  and  C8_13 
REMARK    8  A    between atoms: C8_13  and  C9_15 
REMARK    9  A    between atoms: C9_15  and  C10_16 
REMARK   10  A    between atoms: C9_15  and  O17_54 
REMARK   11  A    between atoms: C10_16  and  C13_19 
REMARK   12  A    between atoms: C13_19  and  O4_20 
REMARK   13  A    between atoms: O4_20  and  P1_21 
REMARK   14  A    between atoms: P1_21  and  O6_23 
REMARK   15  A    between atoms: P1_21  and  O7_24 
REMARK   16  A    between atoms: O7_24  and  P2_25 
REMARK   17  A    between atoms: P2_25  and  O9_27 
REMARK   18  A    between atoms: P2_25  and  O10_28 
REMARK   19  A    between atoms: O10_28  and  C14_29 
REMARK   20  A    between atoms: C14_29  and  C15_30 
REMARK   21  A    between atoms: C16_31  and  O13_49 
REMARK   22  A    between atoms: C17_32  and  O12_48 
REMARK   23  A    between atoms: C18_33  and  N3_35 
REMARK   24  A    between atoms: C21_40  and  N7_47 
REMARK   25  A    between atoms: O13_49  and  P3_50 
REMARK   26  A    between atoms: P3_50  and  O15_52 
REMARK   27  A    between atoms: P3_50  and  O16_53 
ROOT
HETATM    1  C1  UNL     1       6.742  13.147 -17.078  1.00  0.00     0.104 C 
HETATM    2  C2  UNL     1       5.284  13.050 -16.751  1.00  0.00     0.182 C 
HETATM    3  O1  UNL     1       4.575  14.030 -16.533  1.00  0.00    -0.286 OA
ENDROOT
BRANCH   2   4
HETATM    4  S1  UNL     1       4.668  11.405 -16.662  1.00  0.00    -0.091 SA
BRANCH   4   5
HETATM    5  C3  UNL     1       4.885  10.885 -18.395  1.00  0.00     0.102 C 
BRANCH   5   6
HETATM    6  C4  UNL     1       5.725   9.612 -18.507  1.00  0.00     0.133 C 
BRANCH   6   7
HETATM    7  N1  UNL     1       6.697   9.487 -17.440  1.00  0.00    -0.360 N 
HETATM    8  C5  UNL     1       8.040   9.692 -17.657  1.00  0.00     0.219 C 
HETATM    9  O2  UNL     1       8.503   9.909 -18.770  1.00  0.00    -0.274 OA
HETATM   10  H8  UNL     1       6.373   9.251 -16.512  1.00  0.00     0.162 HD
BRANCH   8  11
HETATM   11  C6  UNL     1       8.875   9.568 -16.401  1.00  0.00     0.122 C 
BRANCH  11  12
HETATM   12  C7  UNL     1       8.075   9.918 -15.146  1.00  0.00     0.132 C 
BRANCH  12  13
HETATM   13  N2  UNL     1       8.606  11.063 -14.436  1.00  0.00    -0.358 N 
HETATM   14  C8  UNL     1       8.785  11.011 -13.066  1.00  0.00     0.247 C 
HETATM   15  O3  UNL     1       8.401  10.062 -12.394  1.00  0.00    -0.271 OA
HETATM   16  H13 UNL     1       9.245  11.650 -14.967  1.00  0.00     0.162 HD
BRANCH  14  17
HETATM   17  C9  UNL     1       9.517  12.220 -12.466  1.00  0.00     0.219 C 
BRANCH  17  18
HETATM   18  C10 UNL     1       8.584  13.298 -11.854  1.00  0.00     0.009 C 
HETATM   19  C11 UNL     1       9.366  14.370 -11.082  1.00  0.00     0.020 C 
HETATM   20  C12 UNL     1       7.752  14.008 -12.942  1.00  0.00     0.020 C 
BRANCH  18  21
HETATM   21  C13 UNL     1       7.637  12.540 -10.881  1.00  0.00     0.192 C 
BRANCH  21  22
HETATM   22  O4  UNL     1       7.050  13.397  -9.923  1.00  0.00    -0.296 OA
BRANCH  22  23
HETATM   23  P1  UNL     1       5.532  13.245  -9.431  1.00  0.00     0.401 P 
HETATM   24  O5  UNL     1       5.234  13.938  -8.139  1.00  0.00    -0.631 OA
BRANCH  23  25
HETATM   25  O6  UNL     1       5.204  11.669  -9.413  1.00  0.00    -0.307 OA
HETATM   26  H23 UNL     1       5.757  11.178 -10.034  1.00  0.00     0.222 HD
ENDBRANCH  23  25
BRANCH  23  27
HETATM   27  O7  UNL     1       4.651  13.730 -10.664  1.00  0.00    -0.195 OA
BRANCH  27  28
HETATM   28  P2  UNL     1       3.285  14.498 -10.379  1.00  0.00     0.401 P 
HETATM   29  O8  UNL     1       3.386  15.939  -9.999  1.00  0.00    -0.631 OA
BRANCH  28  30
HETATM   30  O9  UNL     1       2.432  14.232 -11.702  1.00  0.00    -0.307 OA
HETATM   31  H24 UNL     1       2.895  14.483 -12.538  1.00  0.00     0.222 HD
ENDBRANCH  28  30
BRANCH  28  32
HETATM   32  O10 UNL     1       2.520  13.555  -9.342  1.00  0.00    -0.294 OA
BRANCH  32  33
HETATM   33  C14 UNL     1       1.279  12.995  -9.685  1.00  0.00     0.215 C 
BRANCH  33  34
HETATM   34  C15 UNL     1       1.529  11.503  -9.899  1.00  0.00     0.180 C 
HETATM   35  C16 UNL     1       0.206  10.750  -9.872  1.00  0.00     0.197 C 
HETATM   36  C17 UNL     1       0.324   9.808  -8.689  1.00  0.00     0.199 C 
HETATM   37  C18 UNL     1       1.839   9.630  -8.567  1.00  0.00     0.262 C 
HETATM   38  O11 UNL     1       2.378  10.929  -8.899  1.00  0.00    -0.353 OA
BRANCH  35  39
HETATM   39  O13 UNL     1       0.072  10.049 -11.104  1.00  0.00    -0.286 OA
BRANCH  39  40
HETATM   40  P3  UNL     1      -1.169  10.485 -12.013  1.00  0.00     0.391 P 
HETATM   41  O14 UNL     1      -1.660   9.404 -12.921  1.00  0.00    -0.632 OA
BRANCH  40  42
HETATM   42  O15 UNL     1      -0.592  11.815 -12.690  1.00  0.00    -0.307 OA
HETATM   43  H36 UNL     1      -1.121  12.059 -13.486  1.00  0.00     0.222 HD
ENDBRANCH  40  42
BRANCH  40  44
HETATM   44  O16 UNL     1      -2.180  11.044 -10.920  1.00  0.00    -0.307 OA
HETATM   45  H37 UNL     1      -3.077  10.691 -11.022  1.00  0.00     0.222 HD
ENDBRANCH  40  44
ENDBRANCH  39  40
ENDBRANCH  35  39
BRANCH  36  46
HETATM   46  O12 UNL     1      -0.460   8.632  -8.911  1.00  0.00    -0.388 OA
HETATM   47  H35 UNL     1      -0.068   8.181  -9.696  1.00  0.00     0.210 HD
ENDBRANCH  36  46
BRANCH  37  48
HETATM   48  N3  UNL     1       2.252   9.283  -7.223  1.00  0.00    -0.297 N 
HETATM   49  C19 UNL     1       1.442   8.936  -6.167  1.00  0.00     0.188 A 
HETATM   50  N4  UNL     1       2.130   8.553  -5.114  1.00  0.00    -0.346 N 
HETATM   51  C20 UNL     1       3.453   8.653  -5.507  1.00  0.00     0.116 A 
HETATM   52  H4  UNL     1       1.770   8.251  -4.209  1.00  0.00     0.167 HD
HETATM   53  C21 UNL     1       4.665   8.353  -4.861  1.00  0.00     0.109 A 
HETATM   54  C23 UNL     1       3.544   9.142  -6.798  1.00  0.00     0.142 A 
HETATM   55  N5  UNL     1       5.826   8.575  -5.523  1.00  0.00    -0.341 N 
HETATM   56  C22 UNL     1       5.763   9.078  -6.772  1.00  0.00     0.183 A 
HETATM   57  H5  UNL     1       6.725   8.367  -5.088  1.00  0.00     0.167 HD
HETATM   58  N6  UNL     1       4.667   9.394  -7.493  1.00  0.00    -0.336 N 
HETATM   59  H6  UNL     1       4.688   9.774  -8.440  1.00  0.00     0.168 HD
BRANCH  53  60
HETATM   60  N7  UNL     1       4.737   7.850  -3.572  1.00  0.00    -0.287 NA
HETATM   61  H33 UNL     1       3.832   7.704  -3.128  1.00  0.00     0.125 HD
HETATM   62  H34 UNL     1       5.451   8.297  -3.013  1.00  0.00     0.125 HD
ENDBRANCH  53  60
ENDBRANCH  37  48
ENDBRANCH  33  34
ENDBRANCH  32  33
ENDBRANCH  28  32
ENDBRANCH  27  28
ENDBRANCH  23  27
ENDBRANCH  22  23
ENDBRANCH  21  22
ENDBRANCH  18  21
ENDBRANCH  17  18
BRANCH  17  63
HETATM   63  O17 UNL     1      10.436  11.789 -11.456  1.00  0.00    -0.385 OA
HETATM   64  H38 UNL     1      10.908  11.008 -11.791  1.00  0.00     0.210 HD
ENDBRANCH  17  63
ENDBRANCH  14  17
ENDBRANCH  12  13
ENDBRANCH  11  12
ENDBRANCH   8  11
ENDBRANCH   6   7
ENDBRANCH   5   6
ENDBRANCH   4   5
ENDBRANCH   2   4
TORSDOF 27
ENDMDL
MODEL 14
REMARK VINA RESULT:      -5.5      5.507      8.297
REMARK  27 active torsions:
REMARK  status: ('A' for Active; 'I' for Inactive)
REMARK    1  A    between atoms: C2_2  and  S1_4 
REMARK    2  A    between atoms: S1_4  and  C3_5 
REMARK    3  A    between atoms: C3_5  and  C4_6 
REMARK    4  A    between atoms: C4_6  and  N1_7 
REMARK       I    between atoms: N1_7  and  C5_8 
REMARK    5  A    between atoms: C5_8  and  C6_10 
REMARK    6  A    between atoms: C6_10  and  C7_11 
REMARK    7  A    between atoms: C7_11  and  N2_12 
REMARK       I    between atoms: N2_12  and  C8_13 
REMARK    8  A    between atoms: C8_13  and  C9_15 
REMARK    9  A    between atoms: C9_15  and  C10_16 
REMARK   10  A    between atoms: C9_15  and  O17_54 
REMARK   11  A    between atoms: C10_16  and  C13_19 
REMARK   12  A    between atoms: C13_19  and  O4_20 
REMARK   13  A    between atoms: O4_20  and  P1_21 
REMARK   14  A    between atoms: P1_21  and  O6_23 
REMARK   15  A    between atoms: P1_21  and  O7_24 
REMARK   16  A    between atoms: O7_24  and  P2_25 
REMARK   17  A    between atoms: P2_25  and  O9_27 
REMARK   18  A    between atoms: P2_25  and  O10_28 
REMARK   19  A    between atoms: O10_28  and  C14_29 
REMARK   20  A    between atoms: C14_29  and  C15_30 
REMARK   21  A    between atoms: C16_31  and  O13_49 
REMARK   22  A    between atoms: C17_32  and  O12_48 
REMARK   23  A    between atoms: C18_33  and  N3_35 
REMARK   24  A    between atoms: C21_40  and  N7_47 
REMARK   25  A    between atoms: O13_49  and  P3_50 
REMARK   26  A    between atoms: P3_50  and  O15_52 
REMARK   27  A    between atoms: P3_50  and  O16_53 
ROOT
HETATM    1  C1  UNL     1       7.882   9.899 -10.290  1.00  0.00     0.104 C 
HETATM    2  C2  UNL     1       9.079  10.680 -10.741  1.00  0.00     0.182 C 
HETATM    3  O1  UNL     1      10.136  10.715 -10.116  1.00  0.00    -0.286 OA
ENDROOT
BRANCH   2   4
HETATM    4  S1  UNL     1       8.835  11.583 -12.230  1.00  0.00    -0.091 SA
BRANCH   4   5
HETATM    5  C3  UNL     1      10.001  12.959 -11.968  1.00  0.00     0.102 C 
BRANCH   5   6
HETATM    6  C4  UNL     1       9.306  14.319 -12.054  1.00  0.00     0.133 C 
BRANCH   6   7
HETATM    7  N1  UNL     1       9.655  15.196 -10.955  1.00  0.00    -0.360 N 
HETATM    8  C5  UNL     1       8.864  15.304  -9.835  1.00  0.00     0.219 C 
HETATM    9  O2  UNL     1       7.785  14.732  -9.733  1.00  0.00    -0.274 OA
HETATM   10  H8  UNL     1      10.508  15.736 -11.016  1.00  0.00     0.162 HD
BRANCH   8  11
HETATM   11  C6  UNL     1       9.436  16.230  -8.784  1.00  0.00     0.122 C 
BRANCH  11  12
HETATM   12  C7  UNL     1       9.374  15.614  -7.387  1.00  0.00     0.132 C 
BRANCH  12  13
HETATM   13  N2  UNL     1       9.490  14.171  -7.396  1.00  0.00    -0.358 N 
HETATM   14  C8  UNL     1      10.666  13.564  -6.998  1.00  0.00     0.247 C 
HETATM   15  O3  UNL     1      11.677  14.206  -6.741  1.00  0.00    -0.271 OA
HETATM   16  H13 UNL     1       8.624  13.662  -7.233  1.00  0.00     0.162 HD
BRANCH  14  17
HETATM   17  C9  UNL     1      10.595  12.034  -6.886  1.00  0.00     0.219 C 
BRANCH  17  18
HETATM   18  C10 UNL     1      10.712  11.489  -5.438  1.00  0.00     0.009 C 
HETATM   19  C11 UNL     1      12.169  11.218  -5.038  1.00  0.00     0.020 C 
HETATM   20  C12 UNL     1      10.112  12.473  -4.414  1.00  0.00     0.020 C 
BRANCH  18  21
HETATM   21  C13 UNL     1       9.908  10.157  -5.418  1.00  0.00     0.192 C 
BRANCH  21  22
HETATM   22  O4  UNL     1       8.685  10.277  -4.721  1.00  0.00    -0.296 OA
BRANCH  22  23
HETATM   23  P1  UNL     1       7.407   9.361  -5.040  1.00  0.00     0.401 P 
HETATM   24  O5  UNL     1       7.487   8.633  -6.345  1.00  0.00    -0.631 OA
BRANCH  23  25
HETATM   25  O6  UNL     1       6.112  10.307  -4.902  1.00  0.00    -0.307 OA
HETATM   26  H23 UNL     1       6.310  11.125  -4.429  1.00  0.00     0.222 HD
ENDBRANCH  23  25
BRANCH  23  27
HETATM   27  O7  UNL     1       7.244   8.425  -3.765  1.00  0.00    -0.195 OA
BRANCH  27  28
HETATM   28  P2  UNL     1       5.833   7.737  -3.490  1.00  0.00     0.401 P 
HETATM   29  O8  UNL     1       5.852   6.380  -2.865  1.00  0.00    -0.631 OA
BRANCH  28  30
HETATM   30  O9  UNL     1       5.049   8.836  -2.638  1.00  0.00    -0.307 OA
HETATM   31  H24 UNL     1       5.595   9.267  -1.936  1.00  0.00     0.222 HD
ENDBRANCH  28  30
BRANCH  28  32
HETATM   32  O10 UNL     1       5.070   7.850  -4.889  1.00  0.00    -0.294 OA
BRANCH  32  33
HETATM   33  C14 UNL     1       3.763   7.355  -5.017  1.00  0.00     0.215 C 
BRANCH  33  34
HETATM   34  C15 UNL     1       2.860   8.575  -5.191  1.00  0.00     0.180 C 
HETATM   35  C16 UNL     1       1.800   8.286  -6.245  1.00  0.00     0.197 C 
HETATM   36  C17 UNL     1       2.067   9.294  -7.347  1.00  0.00     0.199 C 
HETATM   37  C18 UNL     1       2.765  10.425  -6.587  1.00  0.00     0.262 C 
HETATM   38  O11 UNL     1       3.576   9.746  -5.603  1.00  0.00    -0.353 OA
BRANCH  35  39
HETATM   39  O13 UNL     1       0.521   8.471  -5.646  1.00  0.00    -0.286 OA
BRANCH  39  40
HETATM   40  P3  UNL     1      -0.402   7.168  -5.576  1.00  0.00     0.391 P 
HETATM   41  O14 UNL     1       0.325   5.937  -5.138  1.00  0.00    -0.632 OA
BRANCH  40  42
HETATM   42  O15 UNL     1      -1.037   7.170  -7.044  1.00  0.00    -0.307 OA
HETATM   43  H36 UNL     1      -1.812   6.562  -7.090  1.00  0.00     0.222 HD
ENDBRANCH  40  42
BRANCH  40  44
HETATM   44  O16 UNL     1      -1.600   7.679  -4.663  1.00  0.00    -0.307 OA
HETATM   45  H37 UNL     1      -1.412   7.596  -3.715  1.00  0.00     0.222 HD
ENDBRANCH  40  44
ENDBRANCH  39  40
ENDBRANCH  35  39
BRANCH  36  46
HETATM   46  O12 UNL     1       0.852   9.614  -8.031  1.00  0.00    -0.388 OA
HETATM   47  H35 UNL     1       0.331  10.185  -7.418  1.00  0.00     0.210 HD
ENDBRANCH  36  46
BRANCH  37  48
HETATM   48  N3  UNL     1       3.630  11.216  -7.439  1.00  0.00    -0.297 N 
HETATM   49  C19 UNL     1       4.968  11.013  -7.683  1.00  0.00     0.188 A 
HETATM   50  N4  UNL     1       5.437  11.828  -8.602  1.00  0.00    -0.346 N 
HETATM   51  C20 UNL     1       4.348  12.595  -8.977  1.00  0.00     0.116 A 
HETATM   52  H4  UNL     1       6.391  11.883  -8.959  1.00  0.00     0.167 HD
HETATM   53  C21 UNL     1       4.180  13.608  -9.937  1.00  0.00     0.109 A 
HETATM   54  C23 UNL     1       3.231  12.252  -8.236  1.00  0.00     0.142 A 
HETATM   55  N5  UNL     1       2.962  14.188 -10.062  1.00  0.00    -0.341 N 
HETATM   56  C22 UNL     1       1.969  13.768  -9.254  1.00  0.00     0.183 A 
HETATM   57  H5  UNL     1       2.802  14.924 -10.750  1.00  0.00     0.167 HD
HETATM   58  N6  UNL     1       2.007  12.806  -8.310  1.00  0.00    -0.336 N 
HETATM   59  H6  UNL     1       1.215  12.534  -7.728  1.00  0.00     0.168 HD
BRANCH  53  60
HETATM   60  N7  UNL     1       5.202  14.054 -10.760  1.00  0.00    -0.287 NA
HETATM   61  H33 UNL     1       5.918  14.596 -10.282  1.00  0.00     0.125 HD
HETATM   62  H34 UNL     1       4.868  14.418 -11.642  1.00  0.00     0.125 HD
ENDBRANCH  53  60
ENDBRANCH  37  48
ENDBRANCH  33  34
ENDBRANCH  32  33
ENDBRANCH  28  32
ENDBRANCH  27  28
ENDBRANCH  23  27
ENDBRANCH  22  23
ENDBRANCH  21  22
ENDBRANCH  18  21
ENDBRANCH  17  18
BRANCH  17  63
HETATM   63  O17 UNL     1       9.372  11.554  -7.455  1.00  0.00    -0.385 OA
HETATM   64  H38 UNL     1       9.509  11.437  -8.410  1.00  0.00     0.210 HD
ENDBRANCH  17  63
ENDBRANCH  14  17
ENDBRANCH  12  13
ENDBRANCH  11  12
ENDBRANCH   8  11
ENDBRANCH   6   7
ENDBRANCH   5   6
ENDBRANCH   4   5
ENDBRANCH   2   4
TORSDOF 27
ENDMDL
MODEL 15
REMARK VINA RESULT:      -5.5      3.758     10.715
REMARK  27 active torsions:
REMARK  status: ('A' for Active; 'I' for Inactive)
REMARK    1  A    between atoms: C2_2  and  S1_4 
REMARK    2  A    between atoms: S1_4  and  C3_5 
REMARK    3  A    between atoms: C3_5  and  C4_6 
REMARK    4  A    between atoms: C4_6  and  N1_7 
REMARK       I    between atoms: N1_7  and  C5_8 
REMARK    5  A    between atoms: C5_8  and  C6_10 
REMARK    6  A    between atoms: C6_10  and  C7_11 
REMARK    7  A    between atoms: C7_11  and  N2_12 
REMARK       I    between atoms: N2_12  and  C8_13 
REMARK    8  A    between atoms: C8_13  and  C9_15 
REMARK    9  A    between atoms: C9_15  and  C10_16 
REMARK   10  A    between atoms: C9_15  and  O17_54 
REMARK   11  A    between atoms: C10_16  and  C13_19 
REMARK   12  A    between atoms: C13_19  and  O4_20 
REMARK   13  A    between atoms: O4_20  and  P1_21 
REMARK   14  A    between atoms: P1_21  and  O6_23 
REMARK   15  A    between atoms: P1_21  and  O7_24 
REMARK   16  A    between atoms: O7_24  and  P2_25 
REMARK   17  A    between atoms: P2_25  and  O9_27 
REMARK   18  A    between atoms: P2_25  and  O10_28 
REMARK   19  A    between atoms: O10_28  and  C14_29 
REMARK   20  A    between atoms: C14_29  and  C15_30 
REMARK   21  A    between atoms: C16_31  and  O13_49 
REMARK   22  A    between atoms: C17_32  and  O12_48 
REMARK   23  A    between atoms: C18_33  and  N3_35 
REMARK   24  A    between atoms: C21_40  and  N7_47 
REMARK   25  A    between atoms: O13_49  and  P3_50 
REMARK   26  A    between atoms: P3_50  and  O15_52 
REMARK   27  A    between atoms: P3_50  and  O16_53 
ROOT
HETATM    1  C1  UNL     1       8.294  15.686 -12.580  1.00  0.00     0.104 C 
HETATM    2  C2  UNL     1       6.825  15.975 -12.605  1.00  0.00     0.182 C 
HETATM    3  O1  UNL     1       5.976  15.194 -12.181  1.00  0.00    -0.286 OA
ENDROOT
BRANCH   2   4
HETATM    4  S1  UNL     1       6.402  17.520 -13.330  1.00  0.00    -0.091 SA
BRANCH   4   5
HETATM    5  C3  UNL     1       5.170  18.117 -12.128  1.00  0.00     0.102 C 
BRANCH   5   6
HETATM    6  C4  UNL     1       3.740  17.935 -12.639  1.00  0.00     0.133 C 
BRANCH   6   7
HETATM    7  N1  UNL     1       3.363  16.542 -12.763  1.00  0.00    -0.360 N 
HETATM    8  C5  UNL     1       3.035  15.986 -13.978  1.00  0.00     0.219 C 
HETATM    9  O2  UNL     1       2.963  16.646 -15.008  1.00  0.00    -0.274 OA
HETATM   10  H8  UNL     1       3.350  15.966 -11.933  1.00  0.00     0.162 HD
BRANCH   8  11
HETATM   11  C6  UNL     1       2.727  14.506 -13.896  1.00  0.00     0.122 C 
BRANCH  11  12
HETATM   12  C7  UNL     1       2.500  13.893 -15.278  1.00  0.00     0.132 C 
BRANCH  12  13
HETATM   13  N2  UNL     1       1.156  13.387 -15.461  1.00  0.00    -0.358 N 
HETATM   14  C8  UNL     1       0.921  12.024 -15.471  1.00  0.00     0.247 C 
HETATM   15  O3  UNL     1       1.831  11.205 -15.448  1.00  0.00    -0.271 OA
HETATM   16  H13 UNL     1       0.411  13.985 -15.110  1.00  0.00     0.162 HD
BRANCH  14  17
HETATM   17  C9  UNL     1      -0.563  11.627 -15.494  1.00  0.00     0.219 C 
BRANCH  17  18
HETATM   18  C10 UNL     1      -0.906  10.376 -14.643  1.00  0.00     0.009 C 
HETATM   19  C11 UNL     1      -2.378  10.364 -14.201  1.00  0.00     0.020 C 
HETATM   20  C12 UNL     1      -0.632   9.072 -15.418  1.00  0.00     0.020 C 
BRANCH  18  21
HETATM   21  C13 UNL     1       0.014  10.446 -13.390  1.00  0.00     0.192 C 
BRANCH  21  22
HETATM   22  O4  UNL     1       0.485   9.173 -12.997  1.00  0.00    -0.296 OA
BRANCH  22  23
HETATM   23  P1  UNL     1      -0.059   8.407 -11.698  1.00  0.00     0.401 P 
HETATM   24  O5  UNL     1      -0.384   6.965 -11.929  1.00  0.00    -0.631 OA
BRANCH  23  25
HETATM   25  O6  UNL     1      -1.296   9.269 -11.133  1.00  0.00    -0.307 OA
HETATM   26  H23 UNL     1      -1.626   8.921 -10.295  1.00  0.00     0.222 HD
ENDBRANCH  23  25
BRANCH  23  27
HETATM   27  O7  UNL     1       1.038   8.670 -10.576  1.00  0.00    -0.195 OA
BRANCH  27  28
HETATM   28  P2  UNL     1       0.629   9.500  -9.279  1.00  0.00     0.401 P 
HETATM   29  O8  UNL     1       0.209  10.918  -9.487  1.00  0.00    -0.631 OA
BRANCH  28  30
HETATM   30  O9  UNL     1      -0.485   8.584  -8.594  1.00  0.00    -0.307 OA
HETATM   31  H24 UNL     1      -0.700   7.763  -9.100  1.00  0.00     0.222 HD
ENDBRANCH  28  30
BRANCH  28  32
HETATM   32  O10 UNL     1       1.851   9.275  -8.276  1.00  0.00    -0.294 OA
BRANCH  32  33
HETATM   33  C14 UNL     1       3.148   9.660  -8.650  1.00  0.00     0.215 C 
BRANCH  33  34
HETATM   34  C15 UNL     1       4.104   8.808  -7.818  1.00  0.00     0.180 C 
HETATM   35  C16 UNL     1       4.011   9.212  -6.352  1.00  0.00     0.197 C 
HETATM   36  C17 UNL     1       5.397   9.720  -6.005  1.00  0.00     0.199 C 
HETATM   37  C18 UNL     1       6.275   8.987  -7.021  1.00  0.00     0.262 C 
HETATM   38  O11 UNL     1       5.471   8.945  -8.222  1.00  0.00    -0.353 OA
BRANCH  35  39
HETATM   39  O13 UNL     1       3.659   8.056  -5.598  1.00  0.00    -0.286 OA
BRANCH  39  40
HETATM   40  P3  UNL     1       2.408   8.229  -4.617  1.00  0.00     0.391 P 
HETATM   41  O14 UNL     1       1.816   6.934  -4.162  1.00  0.00    -0.632 OA
BRANCH  40  42
HETATM   42  O15 UNL     1       1.480   9.203  -5.483  1.00  0.00    -0.307 OA
HETATM   43  H36 UNL     1       0.535   9.116  -5.214  1.00  0.00     0.222 HD
ENDBRANCH  40  42
BRANCH  40  44
HETATM   44  O16 UNL     1       3.009   9.195  -3.506  1.00  0.00    -0.307 OA
HETATM   45  H37 UNL     1       3.978   9.157  -3.459  1.00  0.00     0.222 HD
ENDBRANCH  40  44
ENDBRANCH  39  40
ENDBRANCH  35  39
BRANCH  36  46
HETATM   46  O12 UNL     1       5.673   9.500  -4.619  1.00  0.00    -0.388 OA
HETATM   47  H35 UNL     1       5.153   8.705  -4.355  1.00  0.00     0.210 HD
ENDBRANCH  36  46
BRANCH  37  48
HETATM   48  N3  UNL     1       7.505   9.696  -7.309  1.00  0.00    -0.297 N 
HETATM   49  C19 UNL     1       8.483  10.060  -6.413  1.00  0.00     0.188 A 
HETATM   50  N4  UNL     1       9.535  10.580  -7.007  1.00  0.00    -0.346 N 
HETATM   51  C20 UNL     1       9.226  10.546  -8.355  1.00  0.00     0.116 A 
HETATM   52  H4  UNL     1      10.388  10.930  -6.571  1.00  0.00     0.167 HD
HETATM   53  C21 UNL     1       9.944  10.914  -9.507  1.00  0.00     0.109 A 
HETATM   54  C23 UNL     1       7.956  10.037  -8.553  1.00  0.00     0.142 A 
HETATM   55  N5  UNL     1       9.350  10.767 -10.716  1.00  0.00    -0.341 N 
HETATM   56  C22 UNL     1       8.095  10.278 -10.755  1.00  0.00     0.183 A 
HETATM   57  H5  UNL     1       9.841  11.019 -11.574  1.00  0.00     0.167 HD
HETATM   58  N6  UNL     1       7.316   9.886  -9.726  1.00  0.00    -0.336 N 
HETATM   59  H6  UNL     1       6.367   9.523  -9.825  1.00  0.00     0.168 HD
BRANCH  53  60
HETATM   60  N7  UNL     1      11.230  11.430  -9.471  1.00  0.00    -0.287 NA
HETATM   61  H33 UNL     1      11.956  10.736  -9.307  1.00  0.00     0.125 HD
HETATM   62  H34 UNL     1      11.295  12.291  -8.943  1.00  0.00     0.125 HD
ENDBRANCH  53  60
ENDBRANCH  37  48
ENDBRANCH  33  34
ENDBRANCH  32  33
ENDBRANCH  28  32
ENDBRANCH  27  28
ENDBRANCH  23  27
ENDBRANCH  22  23
ENDBRANCH  21  22
ENDBRANCH  18  21
ENDBRANCH  17  18
BRANCH  17  63
HETATM   63  O17 UNL     1      -1.372  12.719 -15.045  1.00  0.00    -0.385 OA
HETATM   64  H38 UNL     1      -2.008  12.932 -15.748  1.00  0.00     0.210 HD
ENDBRANCH  17  63
ENDBRANCH  14  17
ENDBRANCH  12  13
ENDBRANCH  11  12
ENDBRANCH   8  11
ENDBRANCH   6   7
ENDBRANCH   5   6
ENDBRANCH   4   5
ENDBRANCH   2   4
TORSDOF 27
ENDMDL
MODEL 16
REMARK VINA RESULT:      -5.3      5.505      9.335
REMARK  27 active torsions:
REMARK  status: ('A' for Active; 'I' for Inactive)
REMARK    1  A    between atoms: C2_2  and  S1_4 
REMARK    2  A    between atoms: S1_4  and  C3_5 
REMARK    3  A    between atoms: C3_5  and  C4_6 
REMARK    4  A    between atoms: C4_6  and  N1_7 
REMARK       I    between atoms: N1_7  and  C5_8 
REMARK    5  A    between atoms: C5_8  and  C6_10 
REMARK    6  A    between atoms: C6_10  and  C7_11 
REMARK    7  A    between atoms: C7_11  and  N2_12 
REMARK       I    between atoms: N2_12  and  C8_13 
REMARK    8  A    between atoms: C8_13  and  C9_15 
REMARK    9  A    between atoms: C9_15  and  C10_16 
REMARK   10  A    between atoms: C9_15  and  O17_54 
REMARK   11  A    between atoms: C10_16  and  C13_19 
REMARK   12  A    between atoms: C13_19  and  O4_20 
REMARK   13  A    between atoms: O4_20  and  P1_21 
REMARK   14  A    between atoms: P1_21  and  O6_23 
REMARK   15  A    between atoms: P1_21  and  O7_24 
REMARK   16  A    between atoms: O7_24  and  P2_25 
REMARK   17  A    between atoms: P2_25  and  O9_27 
REMARK   18  A    between atoms: P2_25  and  O10_28 
REMARK   19  A    between atoms: O10_28  and  C14_29 
REMARK   20  A    between atoms: C14_29  and  C15_30 
REMARK   21  A    between atoms: C16_31  and  O13_49 
REMARK   22  A    between atoms: C17_32  and  O12_48 
REMARK   23  A    between atoms: C18_33  and  N3_35 
REMARK   24  A    between atoms: C21_40  and  N7_47 
REMARK   25  A    between atoms: O13_49  and  P3_50 
REMARK   26  A    between atoms: P3_50  and  O15_52 
REMARK   27  A    between atoms: P3_50  and  O16_53 
ROOT
HETATM    1  C1  UNL     1       6.542   8.367  -8.260  1.00  0.00     0.104 C 
HETATM    2  C2  UNL     1       7.683   8.751  -7.368  1.00  0.00     0.182 C 
HETATM    3  O1  UNL     1       8.525   7.951  -6.967  1.00  0.00    -0.286 OA
ENDROOT
BRANCH   2   4
HETATM    4  S1  UNL     1       7.700  10.447  -6.904  1.00  0.00    -0.091 SA
BRANCH   4   5
HETATM    5  C3  UNL     1       6.218  10.508  -5.847  1.00  0.00     0.102 C 
BRANCH   5   6
HETATM    6  C4  UNL     1       6.225   9.403  -4.789  1.00  0.00     0.133 C 
BRANCH   6   7
HETATM    7  N1  UNL     1       4.892   8.994  -4.398  1.00  0.00    -0.360 N 
HETATM    8  C5  UNL     1       4.413   7.733  -4.667  1.00  0.00     0.219 C 
HETATM    9  O2  UNL     1       5.047   6.911  -5.319  1.00  0.00    -0.274 OA
HETATM   10  H8  UNL     1       4.305   9.655  -3.907  1.00  0.00     0.162 HD
BRANCH   8  11
HETATM   11  C6  UNL     1       3.021   7.492  -4.125  1.00  0.00     0.122 C 
BRANCH  11  12
HETATM   12  C7  UNL     1       2.005   8.476  -4.704  1.00  0.00     0.132 C 
BRANCH  12  13
HETATM   13  N2  UNL     1       1.957   8.456  -6.151  1.00  0.00    -0.358 N 
HETATM   14  C8  UNL     1       2.425   9.536  -6.878  1.00  0.00     0.247 C 
HETATM   15  O3  UNL     1       2.779  10.578  -6.342  1.00  0.00    -0.271 OA
HETATM   16  H13 UNL     1       2.038   7.537  -6.579  1.00  0.00     0.162 HD
BRANCH  14  17
HETATM   17  C9  UNL     1       2.481   9.314  -8.397  1.00  0.00     0.219 C 
BRANCH  17  18
HETATM   18  C10 UNL     1       1.191   9.724  -9.155  1.00  0.00     0.009 C 
HETATM   19  C11 UNL     1       1.189   9.222 -10.606  1.00  0.00     0.020 C 
HETATM   20  C12 UNL     1      -0.072   9.175  -8.460  1.00  0.00     0.020 C 
BRANCH  18  21
HETATM   21  C13 UNL     1       1.164  11.280  -9.139  1.00  0.00     0.192 C 
BRANCH  21  22
HETATM   22  O4  UNL     1       1.992  11.842 -10.137  1.00  0.00    -0.296 OA
BRANCH  22  23
HETATM   23  P1  UNL     1       2.221  13.422 -10.290  1.00  0.00     0.401 P 
HETATM   24  O5  UNL     1       1.484  14.247  -9.282  1.00  0.00    -0.631 OA
BRANCH  23  25
HETATM   25  O6  UNL     1       1.873  13.797 -11.816  1.00  0.00    -0.307 OA
HETATM   26  H23 UNL     1       0.921  13.820 -11.975  1.00  0.00     0.222 HD
ENDBRANCH  23  25
BRANCH  23  27
HETATM   27  O7  UNL     1       3.800  13.612 -10.277  1.00  0.00    -0.195 OA
BRANCH  27  28
HETATM   28  P2  UNL     1       4.404  15.063 -10.536  1.00  0.00     0.401 P 
HETATM   29  O8  UNL     1       3.811  15.852 -11.658  1.00  0.00    -0.631 OA
BRANCH  28  30
HETATM   30  O9  UNL     1       4.286  15.770  -9.109  1.00  0.00    -0.307 OA
HETATM   31  H24 UNL     1       5.130  16.168  -8.785  1.00  0.00     0.222 HD
ENDBRANCH  28  30
BRANCH  28  32
HETATM   32  O10 UNL     1       5.980  14.818 -10.613  1.00  0.00    -0.294 OA
BRANCH  32  33
HETATM   33  C14 UNL     1       6.555  14.312 -11.789  1.00  0.00     0.215 C 
BRANCH  33  34
HETATM   34  C15 UNL     1       8.059  14.549 -11.664  1.00  0.00     0.180 C 
HETATM   35  C16 UNL     1       8.814  13.276 -12.024  1.00  0.00     0.197 C 
HETATM   36  C17 UNL     1       9.554  12.896 -10.755  1.00  0.00     0.199 C 
HETATM   37  C18 UNL     1       9.693  14.245 -10.046  1.00  0.00     0.262 C 
HETATM   38  O11 UNL     1       8.457  14.933 -10.343  1.00  0.00    -0.353 OA
BRANCH  35  39
HETATM   39  O13 UNL     1       9.703  13.578 -13.094  1.00  0.00    -0.286 OA
BRANCH  39  40
HETATM   40  P3  UNL     1       9.607  12.610 -14.363  1.00  0.00     0.391 P 
HETATM   41  O14 UNL     1       9.628  13.330 -15.673  1.00  0.00    -0.632 OA
BRANCH  40  42
HETATM   42  O15 UNL     1       8.295  11.770 -14.001  1.00  0.00    -0.307 OA
HETATM   43  H36 UNL     1       7.760  12.238 -13.316  1.00  0.00     0.222 HD
ENDBRANCH  40  42
BRANCH  40  44
HETATM   44  O16 UNL     1      10.786  11.585 -14.068  1.00  0.00    -0.307 OA
HETATM   45  H37 UNL     1      10.517  10.861 -13.480  1.00  0.00     0.222 HD
ENDBRANCH  40  44
ENDBRANCH  39  40
ENDBRANCH  35  39
BRANCH  36  46
HETATM   46  O12 UNL     1      10.759  12.195 -11.075  1.00  0.00    -0.388 OA
HETATM   47  H35 UNL     1      11.502  12.801 -10.842  1.00  0.00     0.210 HD
ENDBRANCH  36  46
BRANCH  37  48
HETATM   48  N3  UNL     1       9.817  14.108  -8.609  1.00  0.00    -0.297 N 
HETATM   49  C19 UNL     1      10.977  14.120  -7.870  1.00  0.00     0.188 A 
HETATM   50  N4  UNL     1      10.743  14.101  -6.576  1.00  0.00    -0.346 N 
HETATM   51  C20 UNL     1       9.364  14.081  -6.470  1.00  0.00     0.116 A 
HETATM   52  H4  UNL     1      11.426  14.101  -5.818  1.00  0.00     0.167 HD
HETATM   53  C21 UNL     1       8.492  14.098  -5.367  1.00  0.00     0.109 A 
HETATM   54  C23 UNL     1       8.778  14.046  -7.722  1.00  0.00     0.142 A 
HETATM   55  N5  UNL     1       7.156  14.060  -5.595  1.00  0.00    -0.341 N 
HETATM   56  C22 UNL     1       6.728  14.003  -6.872  1.00  0.00     0.183 A 
HETATM   57  H5  UNL     1       6.493  14.074  -4.820  1.00  0.00     0.167 HD
HETATM   58  N6  UNL     1       7.464  13.991  -8.002  1.00  0.00    -0.336 N 
HETATM   59  H6  UNL     1       7.075  13.947  -8.945  1.00  0.00     0.168 HD
BRANCH  53  60
HETATM   60  N7  UNL     1       8.927  14.141  -4.052  1.00  0.00    -0.287 NA
HETATM   61  H33 UNL     1       9.595  13.412  -3.808  1.00  0.00     0.125 HD
HETATM   62  H34 UNL     1       8.179  14.313  -3.394  1.00  0.00     0.125 HD
ENDBRANCH  53  60
ENDBRANCH  37  48
ENDBRANCH  33  34
ENDBRANCH  32  33
ENDBRANCH  28  32
ENDBRANCH  27  28
ENDBRANCH  23  27
ENDBRANCH  22  23
ENDBRANCH  21  22
ENDBRANCH  18  21
ENDBRANCH  17  18
BRANCH  17  63
HETATM   63  O17 UNL     1       3.586  10.030  -8.959  1.00  0.00    -0.385 OA
HETATM   64  H38 UNL     1       3.532   9.957  -9.926  1.00  0.00     0.210 HD
ENDBRANCH  17  63
ENDBRANCH  14  17
ENDBRANCH  12  13
ENDBRANCH  11  12
ENDBRANCH   8  11
ENDBRANCH   6   7
ENDBRANCH   5   6
ENDBRANCH   4   5
ENDBRANCH   2   4
TORSDOF 27
ENDMDL
MODEL 17
REMARK VINA RESULT:      -5.3      4.840      9.814
REMARK  27 active torsions:
REMARK  status: ('A' for Active; 'I' for Inactive)
REMARK    1  A    between atoms: C2_2  and  S1_4 
REMARK    2  A    between atoms: S1_4  and  C3_5 
REMARK    3  A    between atoms: C3_5  and  C4_6 
REMARK    4  A    between atoms: C4_6  and  N1_7 
REMARK       I    between atoms: N1_7  and  C5_8 
REMARK    5  A    between atoms: C5_8  and  C6_10 
REMARK    6  A    between atoms: C6_10  and  C7_11 
REMARK    7  A    between atoms: C7_11  and  N2_12 
REMARK       I    between atoms: N2_12  and  C8_13 
REMARK    8  A    between atoms: C8_13  and  C9_15 
REMARK    9  A    between atoms: C9_15  and  C10_16 
REMARK   10  A    between atoms: C9_15  and  O17_54 
REMARK   11  A    between atoms: C10_16  and  C13_19 
REMARK   12  A    between atoms: C13_19  and  O4_20 
REMARK   13  A    between atoms: O4_20  and  P1_21 
REMARK   14  A    between atoms: P1_21  and  O6_23 
REMARK   15  A    between atoms: P1_21  and  O7_24 
REMARK   16  A    between atoms: O7_24  and  P2_25 
REMARK   17  A    between atoms: P2_25  and  O9_27 
REMARK   18  A    between atoms: P2_25  and  O10_28 
REMARK   19  A    between atoms: O10_28  and  C14_29 
REMARK   20  A    between atoms: C14_29  and  C15_30 
REMARK   21  A    between atoms: C16_31  and  O13_49 
REMARK   22  A    between atoms: C17_32  and  O12_48 
REMARK   23  A    between atoms: C18_33  and  N3_35 
REMARK   24  A    between atoms: C21_40  and  N7_47 
REMARK   25  A    between atoms: O13_49  and  P3_50 
REMARK   26  A    between atoms: P3_50  and  O15_52 
REMARK   27  A    between atoms: P3_50  and  O16_53 
ROOT
HETATM    1  C1  UNL     1       2.798  15.993 -14.585  1.00  0.00     0.104 C 
HETATM    2  C2  UNL     1       2.787  16.847 -13.355  1.00  0.00     0.182 C 
HETATM    3  O1  UNL     1       2.799  16.388 -12.215  1.00  0.00    -0.286 OA
ENDROOT
BRANCH   2   4
HETATM    4  S1  UNL     1       2.714  18.575 -13.672  1.00  0.00    -0.091 SA
BRANCH   4   5
HETATM    5  C3  UNL     1       3.754  18.674 -15.164  1.00  0.00     0.102 C 
BRANCH   5   6
HETATM    6  C4  UNL     1       5.225  18.915 -14.819  1.00  0.00     0.133 C 
BRANCH   6   7
HETATM    7  N1  UNL     1       5.994  17.689 -14.762  1.00  0.00    -0.360 N 
HETATM    8  C5  UNL     1       6.887  17.442 -13.745  1.00  0.00     0.219 C 
HETATM    9  O2  UNL     1       7.145  18.268 -12.878  1.00  0.00    -0.274 OA
HETATM   10  H8  UNL     1       5.862  16.997 -15.488  1.00  0.00     0.162 HD
BRANCH   8  11
HETATM   11  C6  UNL     1       7.544  16.082 -13.843  1.00  0.00     0.122 C 
BRANCH  11  12
HETATM   12  C7  UNL     1       7.242  15.213 -12.623  1.00  0.00     0.132 C 
BRANCH  12  13
HETATM   13  N2  UNL     1       8.433  14.791 -11.917  1.00  0.00    -0.358 N 
HETATM   14  C8  UNL     1       8.857  15.477 -10.794  1.00  0.00     0.247 C 
HETATM   15  O3  UNL     1       8.326  16.517 -10.426  1.00  0.00    -0.271 OA
HETATM   16  H13 UNL     1       8.637  13.794 -11.958  1.00  0.00     0.162 HD
BRANCH  14  17
HETATM   17  C9  UNL     1      10.025  14.822 -10.041  1.00  0.00     0.219 C 
BRANCH  17  18
HETATM   18  C10 UNL     1       9.674  14.330  -8.612  1.00  0.00     0.009 C 
HETATM   19  C11 UNL     1      10.856  13.614  -7.941  1.00  0.00     0.020 C 
HETATM   20  C12 UNL     1       9.247  15.499  -7.702  1.00  0.00     0.020 C 
BRANCH  18  21
HETATM   21  C13 UNL     1       8.490  13.336  -8.782  1.00  0.00     0.192 C 
BRANCH  21  22
HETATM   22  O4  UNL     1       7.248  13.914  -8.431  1.00  0.00    -0.296 OA
BRANCH  22  23
HETATM   23  P1  UNL     1       6.182  13.178  -7.486  1.00  0.00     0.401 P 
HETATM   24  O5  UNL     1       6.334  13.493  -6.031  1.00  0.00    -0.631 OA
BRANCH  23  25
HETATM   25  O6  UNL     1       6.268  11.607  -7.823  1.00  0.00    -0.307 OA
HETATM   26  H23 UNL     1       5.730  11.078  -7.219  1.00  0.00     0.222 HD
ENDBRANCH  23  25
BRANCH  23  27
HETATM   27  O7  UNL     1       4.763  13.550  -8.101  1.00  0.00    -0.195 OA
BRANCH  27  28
HETATM   28  P2  UNL     1       4.617  13.670  -9.683  1.00  0.00     0.401 P 
HETATM   29  O8  UNL     1       4.863  15.014 -10.286  1.00  0.00    -0.631 OA
BRANCH  28  30
HETATM   30  O9  UNL     1       5.586  12.524 -10.229  1.00  0.00    -0.307 OA
HETATM   31  H24 UNL     1       6.254  12.840 -10.886  1.00  0.00     0.222 HD
ENDBRANCH  28  30
BRANCH  28  32
HETATM   32  O10 UNL     1       3.191  13.018  -9.990  1.00  0.00    -0.294 OA
BRANCH  32  33
HETATM   33  C14 UNL     1       2.400  12.532  -8.938  1.00  0.00     0.215 C 
BRANCH  33  34
HETATM   34  C15 UNL     1       2.659  11.028  -8.868  1.00  0.00     0.180 C 
HETATM   35  C16 UNL     1       1.339  10.284  -8.716  1.00  0.00     0.197 C 
HETATM   36  C17 UNL     1       1.447   9.580  -7.377  1.00  0.00     0.199 C 
HETATM   37  C18 UNL     1       2.962   9.438  -7.208  1.00  0.00     0.262 C 
HETATM   38  O11 UNL     1       3.499  10.656  -7.769  1.00  0.00    -0.353 OA
BRANCH  35  39
HETATM   39  O13 UNL     1       1.223   9.366  -9.798  1.00  0.00    -0.286 OA
BRANCH  39  40
HETATM   40  P3  UNL     1      -0.153   9.428 -10.610  1.00  0.00     0.391 P 
HETATM   41  O14 UNL     1       0.024   9.602 -12.083  1.00  0.00    -0.632 OA
BRANCH  40  42
HETATM   42  O15 UNL     1      -0.918  10.586  -9.814  1.00  0.00    -0.307 OA
HETATM   43  H36 UNL     1      -1.368  10.221  -9.015  1.00  0.00     0.222 HD
ENDBRANCH  40  42
BRANCH  40  44
HETATM   44  O16 UNL     1      -0.876   8.104 -10.106  1.00  0.00    -0.307 OA
HETATM   45  H37 UNL     1      -0.263   7.475  -9.694  1.00  0.00     0.222 HD
ENDBRANCH  40  44
ENDBRANCH  39  40
ENDBRANCH  35  39
BRANCH  36  46
HETATM   46  O12 UNL     1       0.672   8.378  -7.385  1.00  0.00    -0.388 OA
HETATM   47  H35 UNL     1      -0.192   8.602  -6.965  1.00  0.00     0.210 HD
ENDBRANCH  36  46
BRANCH  37  48
HETATM   48  N3  UNL     1       3.361   9.349  -5.818  1.00  0.00    -0.297 N 
HETATM   49  C19 UNL     1       2.537   9.252  -4.721  1.00  0.00     0.188 A 
HETATM   50  N4  UNL     1       3.210   9.060  -3.607  1.00  0.00    -0.346 N 
HETATM   51  C20 UNL     1       4.536   9.027  -4.002  1.00  0.00     0.116 A 
HETATM   52  H4  UNL     1       2.838   8.958  -2.663  1.00  0.00     0.167 HD
HETATM   53  C21 UNL     1       5.734   8.814  -3.299  1.00  0.00     0.109 A 
HETATM   54  C23 UNL     1       4.646   9.244  -5.363  1.00  0.00     0.142 A 
HETATM   55  N5  UNL     1       6.904   8.853  -3.983  1.00  0.00    -0.341 N 
HETATM   56  C22 UNL     1       6.860   9.099  -5.307  1.00  0.00     0.183 A 
HETATM   57  H5  UNL     1       7.793   8.699  -3.508  1.00  0.00     0.167 HD
HETATM   58  N6  UNL     1       5.779   9.308  -6.086  1.00  0.00    -0.336 N 
HETATM   59  H6  UNL     1       5.815   9.491  -7.089  1.00  0.00     0.168 HD
BRANCH  53  60
HETATM   60  N7  UNL     1       5.785   8.575  -1.935  1.00  0.00    -0.287 NA
HETATM   61  H33 UNL     1       6.620   8.935  -1.477  1.00  0.00     0.125 HD
HETATM   62  H34 UNL     1       5.499   7.637  -1.687  1.00  0.00     0.125 HD
ENDBRANCH  53  60
ENDBRANCH  37  48
ENDBRANCH  33  34
ENDBRANCH  32  33
ENDBRANCH  28  32
ENDBRANCH  27  28
ENDBRANCH  23  27
ENDBRANCH  22  23
ENDBRANCH  21  22
ENDBRANCH  18  21
ENDBRANCH  17  18
BRANCH  17  63
HETATM   63  O17 UNL     1      10.535  13.714 -10.791  1.00  0.00    -0.385 OA
HETATM   64  H38 UNL     1      10.450  13.924 -11.736  1.00  0.00     0.210 HD
ENDBRANCH  17  63
ENDBRANCH  14  17
ENDBRANCH  12  13
ENDBRANCH  11  12
ENDBRANCH   8  11
ENDBRANCH   6   7
ENDBRANCH   5   6
ENDBRANCH   4   5
ENDBRANCH   2   4
TORSDOF 27
ENDMDL
MODEL 18
REMARK VINA RESULT:      -5.2      4.117      7.573
REMARK  27 active torsions:
REMARK  status: ('A' for Active; 'I' for Inactive)
REMARK    1  A    between atoms: C2_2  and  S1_4 
REMARK    2  A    between atoms: S1_4  and  C3_5 
REMARK    3  A    between atoms: C3_5  and  C4_6 
REMARK    4  A    between atoms: C4_6  and  N1_7 
REMARK       I    between atoms: N1_7  and  C5_8 
REMARK    5  A    between atoms: C5_8  and  C6_10 
REMARK    6  A    between atoms: C6_10  and  C7_11 
REMARK    7  A    between atoms: C7_11  and  N2_12 
REMARK       I    between atoms: N2_12  and  C8_13 
REMARK    8  A    between atoms: C8_13  and  C9_15 
REMARK    9  A    between atoms: C9_15  and  C10_16 
REMARK   10  A    between atoms: C9_15  and  O17_54 
REMARK   11  A    between atoms: C10_16  and  C13_19 
REMARK   12  A    between atoms: C13_19  and  O4_20 
REMARK   13  A    between atoms: O4_20  and  P1_21 
REMARK   14  A    between atoms: P1_21  and  O6_23 
REMARK   15  A    between atoms: P1_21  and  O7_24 
REMARK   16  A    between atoms: O7_24  and  P2_25 
REMARK   17  A    between atoms: P2_25  and  O9_27 
REMARK   18  A    between atoms: P2_25  and  O10_28 
REMARK   19  A    between atoms: O10_28  and  C14_29 
REMARK   20  A    between atoms: C14_29  and  C15_30 
REMARK   21  A    between atoms: C16_31  and  O13_49 
REMARK   22  A    between atoms: C17_32  and  O12_48 
REMARK   23  A    between atoms: C18_33  and  N3_35 
REMARK   24  A    between atoms: C21_40  and  N7_47 
REMARK   25  A    between atoms: O13_49  and  P3_50 
REMARK   26  A    between atoms: P3_50  and  O15_52 
REMARK   27  A    between atoms: P3_50  and  O16_53 
ROOT
HETATM    1  C1  UNL     1       5.606   8.443  -8.393  1.00  0.00     0.104 C 
HETATM    2  C2  UNL     1       6.902   8.853  -7.763  1.00  0.00     0.182 C 
HETATM    3  O1  UNL     1       7.794   8.057  -7.476  1.00  0.00    -0.286 OA
ENDROOT
BRANCH   2   4
HETATM    4  S1  UNL     1       7.034  10.573  -7.427  1.00  0.00    -0.091 SA
BRANCH   4   5
HETATM    5  C3  UNL     1       5.755  10.750  -6.141  1.00  0.00     0.102 C 
BRANCH   5   6
HETATM    6  C4  UNL     1       5.859   9.653  -5.080  1.00  0.00     0.133 C 
BRANCH   6   7
HETATM    7  N1  UNL     1       4.566   9.129  -4.689  1.00  0.00    -0.360 N 
HETATM    8  C5  UNL     1       4.271   7.789  -4.779  1.00  0.00     0.219 C 
HETATM    9  O2  UNL     1       5.045   6.974  -5.267  1.00  0.00    -0.274 OA
HETATM   10  H8  UNL     1       3.869   9.770  -4.334  1.00  0.00     0.162 HD
BRANCH   8  11
HETATM   11  C6  UNL     1       2.888   7.445  -4.268  1.00  0.00     0.122 C 
BRANCH  11  12
HETATM   12  C7  UNL     1       1.827   8.408  -4.798  1.00  0.00     0.132 C 
BRANCH  12  13
HETATM   13  N2  UNL     1       1.754   8.432  -6.244  1.00  0.00    -0.358 N 
HETATM   14  C8  UNL     1       2.048   9.592  -6.937  1.00  0.00     0.247 C 
HETATM   15  O3  UNL     1       2.260  10.655  -6.369  1.00  0.00    -0.271 OA
HETATM   16  H13 UNL     1       1.956   7.549  -6.707  1.00  0.00     0.162 HD
BRANCH  14  17
HETATM   17  C9  UNL     1       2.104   9.432  -8.464  1.00  0.00     0.219 C 
BRANCH  17  18
HETATM   18  C10 UNL     1       0.729   9.182  -9.136  1.00  0.00     0.009 C 
HETATM   19  C11 UNL     1       0.853   8.329 -10.407  1.00  0.00     0.020 C 
HETATM   20  C12 UNL     1      -0.246   8.468  -8.178  1.00  0.00     0.020 C 
BRANCH  18  21
HETATM   21  C13 UNL     1       0.170  10.587  -9.501  1.00  0.00     0.192 C 
BRANCH  21  22
HETATM   22  O4  UNL     1       0.624  11.035 -10.763  1.00  0.00    -0.296 OA
BRANCH  22  23
HETATM   23  P1  UNL     1      -0.372  11.460 -11.945  1.00  0.00     0.401 P 
HETATM   24  O5  UNL     1      -1.470  12.383 -11.519  1.00  0.00    -0.631 OA
BRANCH  23  25
HETATM   25  O6  UNL     1      -0.895  10.098 -12.625  1.00  0.00    -0.307 OA
HETATM   26  H23 UNL     1      -1.566   9.660 -12.086  1.00  0.00     0.222 HD
ENDBRANCH  23  25
BRANCH  23  27
HETATM   27  O7  UNL     1       0.572  12.034 -13.090  1.00  0.00    -0.195 OA
BRANCH  27  28
HETATM   28  P2  UNL     1       0.161  11.807 -14.613  1.00  0.00     0.401 P 
HETATM   29  O8  UNL     1       0.470  10.470 -15.204  1.00  0.00    -0.631 OA
BRANCH  28  30
HETATM   30  O9  UNL     1      -1.389  12.187 -14.635  1.00  0.00    -0.307 OA
HETATM   31  H24 UNL     1      -1.670  12.779 -13.895  1.00  0.00     0.222 HD
ENDBRANCH  28  30
BRANCH  28  32
HETATM   32  O10 UNL     1       0.783  13.066 -15.373  1.00  0.00    -0.294 OA
BRANCH  32  33
HETATM   33  C14 UNL     1       2.162  13.121 -15.630  1.00  0.00     0.215 C 
BRANCH  33  34
HETATM   34  C15 UNL     1       2.633  14.490 -15.143  1.00  0.00     0.180 C 
HETATM   35  C16 UNL     1       4.124  14.648 -15.412  1.00  0.00     0.197 C 
HETATM   36  C17 UNL     1       4.747  14.807 -14.038  1.00  0.00     0.199 C 
HETATM   37  C18 UNL     1       3.583  15.367 -13.218  1.00  0.00     0.262 C 
HETATM   38  O11 UNL     1       2.420  14.688 -13.741  1.00  0.00    -0.353 OA
BRANCH  35  39
HETATM   39  O13 UNL     1       4.306  15.805 -16.221  1.00  0.00    -0.286 OA
BRANCH  39  40
HETATM   40  P3  UNL     1       5.231  15.606 -17.510  1.00  0.00     0.391 P 
HETATM   41  O14 UNL     1       6.673  15.384 -17.188  1.00  0.00    -0.632 OA
BRANCH  40  42
HETATM   42  O15 UNL     1       4.853  16.911 -18.354  1.00  0.00    -0.307 OA
HETATM   43  H36 UNL     1       4.706  17.683 -17.757  1.00  0.00     0.222 HD
ENDBRANCH  40  42
BRANCH  40  44
HETATM   44  O16 UNL     1       4.460  14.445 -18.275  1.00  0.00    -0.307 OA
HETATM   45  H37 UNL     1       3.586  14.720 -18.596  1.00  0.00     0.222 HD
ENDBRANCH  40  44
ENDBRANCH  39  40
ENDBRANCH  35  39
BRANCH  36  46
HETATM   46  O12 UNL     1       5.934  15.601 -14.121  1.00  0.00    -0.388 OA
HETATM   47  H35 UNL     1       5.865  16.116 -14.960  1.00  0.00     0.210 HD
ENDBRANCH  36  46
BRANCH  37  48
HETATM   48  N3  UNL     1       3.702  15.066 -11.805  1.00  0.00    -0.297 N 
HETATM   49  C19 UNL     1       2.818  14.353 -11.030  1.00  0.00     0.188 A 
HETATM   50  N4  UNL     1       3.276  14.147  -9.814  1.00  0.00    -0.346 N 
HETATM   51  C20 UNL     1       4.521  14.751  -9.803  1.00  0.00     0.116 A 
HETATM   52  H4  UNL     1       2.816  13.651  -9.050  1.00  0.00     0.167 HD
HETATM   53  C21 UNL     1       5.524  14.847  -8.823  1.00  0.00     0.109 A 
HETATM   54  C23 UNL     1       4.780  15.359 -11.017  1.00  0.00     0.142 A 
HETATM   55  N5  UNL     1       6.656  15.532  -9.118  1.00  0.00    -0.341 N 
HETATM   56  C22 UNL     1       6.762  16.094 -10.339  1.00  0.00     0.183 A 
HETATM   57  H5  UNL     1       7.408  15.619  -8.434  1.00  0.00     0.167 HD
HETATM   58  N6  UNL     1       5.876  16.062 -11.355  1.00  0.00    -0.336 N 
HETATM   59  H6  UNL     1       6.018  16.511 -12.260  1.00  0.00     0.168 HD
BRANCH  53  60
HETATM   60  N7  UNL     1       5.415  14.283  -7.562  1.00  0.00    -0.287 NA
HETATM   61  H33 UNL     1       5.244  14.955  -6.816  1.00  0.00     0.125 HD
HETATM   62  H34 UNL     1       6.113  13.574  -7.384  1.00  0.00     0.125 HD
ENDBRANCH  53  60
ENDBRANCH  37  48
ENDBRANCH  33  34
ENDBRANCH  32  33
ENDBRANCH  28  32
ENDBRANCH  27  28
ENDBRANCH  23  27
ENDBRANCH  22  23
ENDBRANCH  21  22
ENDBRANCH  18  21
ENDBRANCH  17  18
BRANCH  17  63
HETATM   63  O17 UNL     1       2.696  10.593  -9.059  1.00  0.00    -0.385 OA
HETATM   64  H38 UNL     1       2.903  11.223  -8.349  1.00  0.00     0.210 HD
ENDBRANCH  17  63
ENDBRANCH  14  17
ENDBRANCH  12  13
ENDBRANCH  11  12
ENDBRANCH   8  11
ENDBRANCH   6   7
ENDBRANCH   5   6
ENDBRANCH   4   5
ENDBRANCH   2   4
TORSDOF 27
ENDMDL
MODEL 19
REMARK VINA RESULT:      -5.1     14.995     17.785
REMARK  27 active torsions:
REMARK  status: ('A' for Active; 'I' for Inactive)
REMARK    1  A    between atoms: C2_2  and  S1_4 
REMARK    2  A    between atoms: S1_4  and  C3_5 
REMARK    3  A    between atoms: C3_5  and  C4_6 
REMARK    4  A    between atoms: C4_6  and  N1_7 
REMARK       I    between atoms: N1_7  and  C5_8 
REMARK    5  A    between atoms: C5_8  and  C6_10 
REMARK    6  A    between atoms: C6_10  and  C7_11 
REMARK    7  A    between atoms: C7_11  and  N2_12 
REMARK       I    between atoms: N2_12  and  C8_13 
REMARK    8  A    between atoms: C8_13  and  C9_15 
REMARK    9  A    between atoms: C9_15  and  C10_16 
REMARK   10  A    between atoms: C9_15  and  O17_54 
REMARK   11  A    between atoms: C10_16  and  C13_19 
REMARK   12  A    between atoms: C13_19  and  O4_20 
REMARK   13  A    between atoms: O4_20  and  P1_21 
REMARK   14  A    between atoms: P1_21  and  O6_23 
REMARK   15  A    between atoms: P1_21  and  O7_24 
REMARK   16  A    between atoms: O7_24  and  P2_25 
REMARK   17  A    between atoms: P2_25  and  O9_27 
REMARK   18  A    between atoms: P2_25  and  O10_28 
REMARK   19  A    between atoms: O10_28  and  C14_29 
REMARK   20  A    between atoms: C14_29  and  C15_30 
REMARK   21  A    between atoms: C16_31  and  O13_49 
REMARK   22  A    between atoms: C17_32  and  O12_48 
REMARK   23  A    between atoms: C18_33  and  N3_35 
REMARK   24  A    between atoms: C21_40  and  N7_47 
REMARK   25  A    between atoms: O13_49  and  P3_50 
REMARK   26  A    between atoms: P3_50  and  O15_52 
REMARK   27  A    between atoms: P3_50  and  O16_53 
ROOT
HETATM    1  C1  UNL     1     -10.716  17.359  -6.696  1.00  0.00     0.104 C 
HETATM    2  C2  UNL     1     -11.533  16.110  -6.552  1.00  0.00     0.182 C 
HETATM    3  O1  UNL     1     -12.419  15.790  -7.340  1.00  0.00    -0.286 OA
ENDROOT
BRANCH   2   4
HETATM    4  S1  UNL     1     -11.146  15.151  -5.130  1.00  0.00    -0.091 SA
BRANCH   4   5
HETATM    5  C3  UNL     1     -11.243  13.474  -5.835  1.00  0.00     0.102 C 
BRANCH   5   6
HETATM    6  C4  UNL     1     -12.665  12.912  -5.777  1.00  0.00     0.133 C 
BRANCH   6   7
HETATM    7  N1  UNL     1     -13.329  12.935  -7.064  1.00  0.00    -0.360 N 
HETATM    8  C5  UNL     1     -14.700  12.970  -7.170  1.00  0.00     0.219 C 
HETATM    9  O2  UNL     1     -15.440  12.904  -6.195  1.00  0.00    -0.274 OA
HETATM   10  H8  UNL     1     -12.764  12.932  -7.902  1.00  0.00     0.162 HD
BRANCH   8  11
HETATM   11  C6  UNL     1     -15.188  13.046  -8.601  1.00  0.00     0.122 C 
BRANCH  11  12
HETATM   12  C7  UNL     1     -16.492  13.835  -8.718  1.00  0.00     0.132 C 
BRANCH  12  13
HETATM   13  N2  UNL     1     -16.509  14.737  -9.850  1.00  0.00    -0.358 N 
HETATM   14  C8  UNL     1     -16.359  16.098  -9.658  1.00  0.00     0.247 C 
HETATM   15  O3  UNL     1     -16.326  16.599  -8.541  1.00  0.00    -0.271 OA
HETATM   16  H13 UNL     1     -16.163  14.350 -10.725  1.00  0.00     0.162 HD
BRANCH  14  17
HETATM   17  C9  UNL     1     -16.218  16.919 -10.948  1.00  0.00     0.219 C 
BRANCH  17  18
HETATM   18  C10 UNL     1     -14.760  17.078 -11.453  1.00  0.00     0.009 C 
HETATM   19  C11 UNL     1     -14.477  18.498 -11.966  1.00  0.00     0.020 C 
HETATM   20  C12 UNL     1     -13.739  16.762 -10.341  1.00  0.00     0.020 C 
BRANCH  18  21
HETATM   21  C13 UNL     1     -14.599  16.060 -12.618  1.00  0.00     0.192 C 
BRANCH  21  22
HETATM   22  O4  UNL     1     -14.262  14.766 -12.159  1.00  0.00    -0.296 OA
BRANCH  22  23
HETATM   23  P1  UNL     1     -14.977  13.437 -12.701  1.00  0.00     0.401 P 
HETATM   24  O5  UNL     1     -16.459  13.410 -12.492  1.00  0.00    -0.631 OA
BRANCH  23  25
HETATM   25  O6  UNL     1     -14.205  12.190 -12.037  1.00  0.00    -0.307 OA
HETATM   26  H23 UNL     1     -14.811  11.586 -11.589  1.00  0.00     0.222 HD
ENDBRANCH  23  25
BRANCH  23  27
HETATM   27  O7  UNL     1     -14.518  13.313 -14.219  1.00  0.00    -0.195 OA
BRANCH  27  28
HETATM   28  P2  UNL     1     -13.031  12.837 -14.537  1.00  0.00     0.401 P 
HETATM   29  O8  UNL     1     -12.467  13.222 -15.866  1.00  0.00    -0.631 OA
BRANCH  28  30
HETATM   30  O9  UNL     1     -12.196  13.386 -13.291  1.00  0.00    -0.307 OA
HETATM   31  H24 UNL     1     -12.314  14.352 -13.120  1.00  0.00     0.222 HD
ENDBRANCH  28  30
BRANCH  28  32
HETATM   32  O10 UNL     1     -13.048  11.273 -14.213  1.00  0.00    -0.294 OA
BRANCH  32  33
HETATM   33  C14 UNL     1     -12.575  10.354 -15.162  1.00  0.00     0.215 C 
BRANCH  33  34
HETATM   34  C15 UNL     1     -13.260   9.025 -14.848  1.00  0.00     0.180 C 
HETATM   35  C16 UNL     1     -14.376   9.248 -13.836  1.00  0.00     0.197 C 
HETATM   36  C17 UNL     1     -13.964   8.432 -12.625  1.00  0.00     0.199 C 
HETATM   37  C18 UNL     1     -13.069   7.358 -13.248  1.00  0.00     0.262 C 
HETATM   38  O11 UNL     1     -12.365   8.050 -14.304  1.00  0.00    -0.353 OA
BRANCH  35  39
HETATM   39  O13 UNL     1     -15.592   8.779 -14.409  1.00  0.00    -0.286 OA
BRANCH  39  40
HETATM   40  P3  UNL     1     -16.759   9.865 -14.530  1.00  0.00     0.391 P 
HETATM   41  O14 UNL     1     -17.385  10.226 -13.222  1.00  0.00    -0.632 OA
BRANCH  40  42
HETATM   42  O15 UNL     1     -17.693   9.179 -15.633  1.00  0.00    -0.307 OA
HETATM   43  H36 UNL     1     -17.520   9.564 -16.525  1.00  0.00     0.222 HD
ENDBRANCH  40  42
BRANCH  40  44
HETATM   44  O16 UNL     1     -16.031  11.022 -15.342  1.00  0.00    -0.307 OA
HETATM   45  H37 UNL     1     -16.086  10.900 -16.303  1.00  0.00     0.222 HD
ENDBRANCH  40  44
ENDBRANCH  39  40
ENDBRANCH  35  39
BRANCH  36  46
HETATM   46  O12 UNL     1     -15.119   7.989 -11.908  1.00  0.00    -0.388 OA
HETATM   47  H35 UNL     1     -15.449   8.770 -11.403  1.00  0.00     0.210 HD
ENDBRANCH  36  46
BRANCH  37  48
HETATM   48  N3  UNL     1     -12.099   6.829 -12.310  1.00  0.00    -0.297 N 
HETATM   49  C19 UNL     1     -10.738   6.735 -12.486  1.00  0.00     0.188 A 
HETATM   50  N4  UNL     1     -10.122   6.327 -11.398  1.00  0.00    -0.346 N 
HETATM   51  C20 UNL     1     -11.133   6.151 -10.470  1.00  0.00     0.116 A 
HETATM   52  H4  UNL     1      -9.122   6.173 -11.268  1.00  0.00     0.167 HD
HETATM   53  C21 UNL     1     -11.128   5.773  -9.116  1.00  0.00     0.109 A 
HETATM   54  C23 UNL     1     -12.366   6.421 -11.033  1.00  0.00     0.142 A 
HETATM   55  N5  UNL     1     -12.313   5.679  -8.464  1.00  0.00    -0.341 N 
HETATM   56  C22 UNL     1     -13.441   5.950  -9.149  1.00  0.00     0.183 A 
HETATM   57  H5  UNL     1     -12.349   5.410  -7.481  1.00  0.00     0.167 HD
HETATM   58  N6  UNL     1     -13.569   6.328 -10.437  1.00  0.00    -0.336 N 
HETATM   59  H6  UNL     1     -14.458   6.519 -10.899  1.00  0.00     0.168 HD
BRANCH  53  60
HETATM   60  N7  UNL     1      -9.972   5.479  -8.411  1.00  0.00    -0.287 NA
HETATM   61  H33 UNL     1      -9.642   4.523  -8.526  1.00  0.00     0.125 HD
HETATM   62  H34 UNL     1      -9.979   5.847  -7.469  1.00  0.00     0.125 HD
ENDBRANCH  53  60
ENDBRANCH  37  48
ENDBRANCH  33  34
ENDBRANCH  32  33
ENDBRANCH  28  32
ENDBRANCH  27  28
ENDBRANCH  23  27
ENDBRANCH  22  23
ENDBRANCH  21  22
ENDBRANCH  18  21
ENDBRANCH  17  18
BRANCH  17  63
HETATM   63  O17 UNL     1     -17.000  16.332 -11.994  1.00  0.00    -0.385 OA
HETATM   64  H38 UNL     1     -16.752  16.758 -12.832  1.00  0.00     0.210 HD
ENDBRANCH  17  63
ENDBRANCH  14  17
ENDBRANCH  12  13
ENDBRANCH  11  12
ENDBRANCH   8  11
ENDBRANCH   6   7
ENDBRANCH   5   6
ENDBRANCH   4   5
ENDBRANCH   2   4
TORSDOF 27
ENDMDL
MODEL 20
REMARK VINA RESULT:      -5.1      4.353     10.129
REMARK  27 active torsions:
REMARK  status: ('A' for Active; 'I' for Inactive)
REMARK    1  A    between atoms: C2_2  and  S1_4 
REMARK    2  A    between atoms: S1_4  and  C3_5 
REMARK    3  A    between atoms: C3_5  and  C4_6 
REMARK    4  A    between atoms: C4_6  and  N1_7 
REMARK       I    between atoms: N1_7  and  C5_8 
REMARK    5  A    between atoms: C5_8  and  C6_10 
REMARK    6  A    between atoms: C6_10  and  C7_11 
REMARK    7  A    between atoms: C7_11  and  N2_12 
REMARK       I    between atoms: N2_12  and  C8_13 
REMARK    8  A    between atoms: C8_13  and  C9_15 
REMARK    9  A    between atoms: C9_15  and  C10_16 
REMARK   10  A    between atoms: C9_15  and  O17_54 
REMARK   11  A    between atoms: C10_16  and  C13_19 
REMARK   12  A    between atoms: C13_19  and  O4_20 
REMARK   13  A    between atoms: O4_20  and  P1_21 
REMARK   14  A    between atoms: P1_21  and  O6_23 
REMARK   15  A    between atoms: P1_21  and  O7_24 
REMARK   16  A    between atoms: O7_24  and  P2_25 
REMARK   17  A    between atoms: P2_25  and  O9_27 
REMARK   18  A    between atoms: P2_25  and  O10_28 
REMARK   19  A    between atoms: O10_28  and  C14_29 
REMARK   20  A    between atoms: C14_29  and  C15_30 
REMARK   21  A    between atoms: C16_31  and  O13_49 
REMARK   22  A    between atoms: C17_32  and  O12_48 
REMARK   23  A    between atoms: C18_33  and  N3_35 
REMARK   24  A    between atoms: C21_40  and  N7_47 
REMARK   25  A    between atoms: O13_49  and  P3_50 
REMARK   26  A    between atoms: P3_50  and  O15_52 
REMARK   27  A    between atoms: P3_50  and  O16_53 
ROOT
HETATM    1  C1  UNL     1       8.343  16.975 -13.183  1.00  0.00     0.104 C 
HETATM    2  C2  UNL     1       6.845  17.001 -13.177  1.00  0.00     0.182 C 
HETATM    3  O1  UNL     1       6.155  16.031 -12.875  1.00  0.00    -0.286 OA
ENDROOT
BRANCH   2   4
HETATM    4  S1  UNL     1       6.145  18.534 -13.681  1.00  0.00    -0.091 SA
BRANCH   4   5
HETATM    5  C3  UNL     1       5.048  18.869 -12.265  1.00  0.00     0.102 C 
BRANCH   5   6
HETATM    6  C4  UNL     1       3.587  18.547 -12.588  1.00  0.00     0.133 C 
BRANCH   6   7
HETATM    7  N1  UNL     1       3.357  17.131 -12.786  1.00  0.00    -0.360 N 
HETATM    8  C5  UNL     1       2.927  16.630 -13.993  1.00  0.00     0.219 C 
HETATM    9  O2  UNL     1       2.638  17.350 -14.942  1.00  0.00    -0.274 OA
HETATM   10  H8  UNL     1       3.524  16.498 -12.016  1.00  0.00     0.162 HD
BRANCH   8  11
HETATM   11  C6  UNL     1       2.803  15.122 -14.005  1.00  0.00     0.122 C 
BRANCH  11  12
HETATM   12  C7  UNL     1       3.459  14.504 -15.240  1.00  0.00     0.132 C 
BRANCH  12  13
HETATM   13  N2  UNL     1       2.508  13.885 -16.139  1.00  0.00    -0.358 N 
HETATM   14  C8  UNL     1       2.555  12.523 -16.373  1.00  0.00     0.247 C 
HETATM   15  O3  UNL     1       3.456  11.818 -15.936  1.00  0.00    -0.271 OA
HETATM   16  H13 UNL     1       1.596  14.335 -16.188  1.00  0.00     0.162 HD
BRANCH  14  17
HETATM   17  C9  UNL     1       1.386  11.971 -17.202  1.00  0.00     0.219 C 
BRANCH  17  18
HETATM   18  C10 UNL     1       0.112  11.645 -16.378  1.00  0.00     0.009 C 
HETATM   19  C11 UNL     1      -0.936  12.764 -16.467  1.00  0.00     0.020 C 
HETATM   20  C12 UNL     1      -0.549  10.336 -16.854  1.00  0.00     0.020 C 
BRANCH  18  21
HETATM   21  C13 UNL     1       0.585  11.488 -14.905  1.00  0.00     0.192 C 
BRANCH  21  22
HETATM   22  O4  UNL     1       0.066  10.325 -14.293  1.00  0.00    -0.296 OA
BRANCH  22  23
HETATM   23  P1  UNL     1      -0.891  10.370 -13.007  1.00  0.00     0.401 P 
HETATM   24  O5  UNL     1      -1.880   9.249 -12.941  1.00  0.00    -0.631 OA
BRANCH  23  25
HETATM   25  O6  UNL     1      -1.564  11.832 -12.979  1.00  0.00    -0.307 OA
HETATM   26  H23 UNL     1      -2.529  11.787 -12.978  1.00  0.00     0.222 HD
ENDBRANCH  23  25
BRANCH  23  27
HETATM   27  O7  UNL     1       0.096  10.460 -11.763  1.00  0.00    -0.195 OA
BRANCH  27  28
HETATM   28  P2  UNL     1      -0.503  10.327 -10.293  1.00  0.00     0.401 P 
HETATM   29  O8  UNL     1      -1.748  11.099  -9.998  1.00  0.00    -0.631 OA
BRANCH  28  30
HETATM   30  O9  UNL     1      -0.654   8.749 -10.100  1.00  0.00    -0.307 OA
HETATM   31  H24 UNL     1      -0.742   8.246 -10.946  1.00  0.00     0.222 HD
ENDBRANCH  28  30
BRANCH  28  32
HETATM   32  O10 UNL     1       0.744  10.622  -9.340  1.00  0.00    -0.294 OA
BRANCH  32  33
HETATM   33  C14 UNL     1       1.350  11.888  -9.349  1.00  0.00     0.215 C 
BRANCH  33  34
HETATM   34  C15 UNL     1       2.850  11.643  -9.190  1.00  0.00     0.180 C 
HETATM   35  C16 UNL     1       3.230  11.708  -7.717  1.00  0.00     0.197 C 
HETATM   36  C17 UNL     1       4.197  12.872  -7.620  1.00  0.00     0.199 C 
HETATM   37  C18 UNL     1       4.769  12.936  -9.038  1.00  0.00     0.262 C 
HETATM   38  O11 UNL     1       3.650  12.604  -9.889  1.00  0.00    -0.353 OA
BRANCH  35  39
HETATM   39  O13 UNL     1       3.842  10.471  -7.364  1.00  0.00    -0.286 OA
BRANCH  39  40
HETATM   40  P3  UNL     1       3.120   9.654  -6.195  1.00  0.00     0.391 P 
HETATM   41  O14 UNL     1       3.853   8.418  -5.782  1.00  0.00    -0.632 OA
BRANCH  40  42
HETATM   42  O15 UNL     1       1.656   9.475  -6.814  1.00  0.00    -0.307 OA
HETATM   43  H36 UNL     1       0.971   9.826  -6.197  1.00  0.00     0.222 HD
ENDBRANCH  40  42
BRANCH  40  44
HETATM   44  O16 UNL     1       2.913  10.788  -5.099  1.00  0.00    -0.307 OA
HETATM   45  H37 UNL     1       2.621  10.436  -4.244  1.00  0.00     0.222 HD
ENDBRANCH  40  44
ENDBRANCH  39  40
ENDBRANCH  35  39
BRANCH  36  46
HETATM   46  O12 UNL     1       5.121  12.662  -6.548  1.00  0.00    -0.388 OA
HETATM   47  H35 UNL     1       4.673  12.056  -5.911  1.00  0.00     0.210 HD
ENDBRANCH  36  46
BRANCH  37  48
HETATM   48  N3  UNL     1       5.244  14.259  -9.388  1.00  0.00    -0.297 N 
HETATM   49  C19 UNL     1       4.491  15.325  -9.823  1.00  0.00     0.188 A 
HETATM   50  N4  UNL     1       5.202  16.425  -9.934  1.00  0.00    -0.346 N 
HETATM   51  C20 UNL     1       6.479  16.057  -9.548  1.00  0.00     0.116 A 
HETATM   52  H4  UNL     1       4.884  17.346 -10.237  1.00  0.00     0.167 HD
HETATM   53  C21 UNL     1       7.677  16.778  -9.408  1.00  0.00     0.109 A 
HETATM   54  C23 UNL     1       6.527  14.708  -9.244  1.00  0.00     0.142 A 
HETATM   55  N5  UNL     1       8.791  16.115  -9.011  1.00  0.00    -0.341 N 
HETATM   56  C22 UNL     1       8.695  14.791  -8.772  1.00  0.00     0.183 A 
HETATM   57  H5  UNL     1       9.678  16.604  -8.895  1.00  0.00     0.167 HD
HETATM   58  N6  UNL     1       7.606  14.001  -8.862  1.00  0.00    -0.336 N 
HETATM   59  H6  UNL     1       7.600  13.000  -8.667  1.00  0.00     0.168 HD
BRANCH  53  60
HETATM   60  N7  UNL     1       7.785  18.135  -9.666  1.00  0.00    -0.287 NA
HETATM   61  H33 UNL     1       8.625  18.399 -10.177  1.00  0.00     0.125 HD
HETATM   62  H34 UNL     1       7.535  18.709  -8.872  1.00  0.00     0.125 HD
ENDBRANCH  53  60
ENDBRANCH  37  48
ENDBRANCH  33  34
ENDBRANCH  32  33
ENDBRANCH  28  32
ENDBRANCH  27  28
ENDBRANCH  23  27
ENDBRANCH  22  23
ENDBRANCH  21  22
ENDBRANCH  18  21
ENDBRANCH  17  18
BRANCH  17  63
HETATM   63  O17 UNL     1       1.034  12.897 -18.236  1.00  0.00    -0.385 OA
HETATM   64  H38 UNL     1       0.072  13.032 -18.205  1.00  0.00     0.210 HD
ENDBRANCH  17  63
ENDBRANCH  14  17
ENDBRANCH  12  13
ENDBRANCH  11  12
ENDBRANCH   8  11
ENDBRANCH   6   7
ENDBRANCH   5   6
ENDBRANCH   4   5
ENDBRANCH   2   4
TORSDOF 27
ENDMDL
