MODEL 1
REMARK VINA RESULT:      -4.4      0.000      0.000
REMARK  2 active torsions:
REMARK  status: ('A' for Active; 'I' for Inactive)
REMARK    1  A    between atoms: C3_3  and  O1_8 
REMARK    2  A    between atoms: C6_6  and  N1_7 
ROOT
HETATM    1  C1  UNL     1       4.838   4.634 -10.949  1.00  0.00     0.026 A 
HETATM    2  C2  UNL     1       5.741   3.670 -11.403  1.00  0.00     0.038 A 
HETATM    3  C3  UNL     1       5.564   2.340 -11.046  1.00  0.00     0.065 A 
HETATM    4  C4  UNL     1       4.486   1.957 -10.255  1.00  0.00     0.038 A 
HETATM    5  C5  UNL     1       3.588   2.928  -9.804  1.00  0.00     0.026 A 
HETATM    6  C6  UNL     1       3.783   4.280 -10.104  1.00  0.00     0.005 A 
ENDROOT
BRANCH   6   7
HETATM    7  N1  UNL     1       2.815   5.227  -9.749  1.00  0.00    -0.303 NA
HETATM    8  H5  UNL     1       2.431   5.734 -10.541  1.00  0.00     0.124 HD
HETATM    9  H6  UNL     1       3.102   5.845  -8.997  1.00  0.00     0.124 HD
ENDBRANCH   6   7
BRANCH   3  10
HETATM   10  O1  UNL     1       6.464   1.429 -11.511  1.00  0.00    -0.361 OA
HETATM   11  H7  UNL     1       6.062   0.547 -11.469  1.00  0.00     0.217 HD
ENDBRANCH   3  10
TORSDOF 2
ENDMDL
MODEL 2
REMARK VINA RESULT:      -4.3      2.779      3.263
REMARK  2 active torsions:
REMARK  status: ('A' for Active; 'I' for Inactive)
REMARK    1  A    between atoms: C3_3  and  O1_8 
REMARK    2  A    between atoms: C6_6  and  N1_7 
ROOT
HETATM    1  C1  UNL     1       5.660   3.765 -11.392  1.00  0.00     0.026 A 
HETATM    2  C2  UNL     1       4.789   4.730 -10.882  1.00  0.00     0.038 A 
HETATM    3  C3  UNL     1       3.739   4.344 -10.061  1.00  0.00     0.065 A 
HETATM    4  C4  UNL     1       3.557   3.006  -9.727  1.00  0.00     0.038 A 
HETATM    5  C5  UNL     1       4.432   2.046 -10.242  1.00  0.00     0.026 A 
HETATM    6  C6  UNL     1       5.460   2.408 -11.118  1.00  0.00     0.005 A 
ENDROOT
BRANCH   6   7
HETATM    7  N1  UNL     1       6.401   1.458 -11.533  1.00  0.00    -0.303 NA
HETATM    8  H5  UNL     1       6.340   0.578 -11.030  1.00  0.00     0.124 HD
HETATM    9  H6  UNL     1       7.350   1.813 -11.577  1.00  0.00     0.124 HD
ENDBRANCH   6   7
BRANCH   3  10
HETATM   10  O1  UNL     1       2.913   5.315  -9.581  1.00  0.00    -0.361 OA
HETATM   11  H7  UNL     1       3.426   5.900  -9.001  1.00  0.00     0.217 HD
ENDBRANCH   3  10
TORSDOF 2
ENDMDL
MODEL 3
REMARK VINA RESULT:      -4.3      2.777      3.681
REMARK  2 active torsions:
REMARK  status: ('A' for Active; 'I' for Inactive)
REMARK    1  A    between atoms: C3_3  and  O1_8 
REMARK    2  A    between atoms: C6_6  and  N1_7 
ROOT
HETATM    1  C1  UNL     1       4.458   2.055 -10.267  1.00  0.00     0.026 A 
HETATM    2  C2  UNL     1       3.574   3.024  -9.787  1.00  0.00     0.038 A 
HETATM    3  C3  UNL     1       3.768   4.357 -10.122  1.00  0.00     0.065 A 
HETATM    4  C4  UNL     1       4.824   4.735 -10.943  1.00  0.00     0.038 A 
HETATM    5  C5  UNL     1       5.706   3.759 -11.418  1.00  0.00     0.026 A 
HETATM    6  C6  UNL     1       5.562   2.419 -11.044  1.00  0.00     0.005 A 
ENDROOT
BRANCH   6   7
HETATM    7  N1  UNL     1       6.375   1.436 -11.619  1.00  0.00    -0.303 NA
HETATM    8  H5  UNL     1       6.141   1.226 -12.584  1.00  0.00     0.124 HD
HETATM    9  H6  UNL     1       6.469   0.599 -11.053  1.00  0.00     0.124 HD
ENDBRANCH   6   7
BRANCH   3  10
HETATM   10  O1  UNL     1       2.882   5.272  -9.637  1.00  0.00    -0.361 OA
HETATM   11  H7  UNL     1       2.612   5.000  -8.745  1.00  0.00     0.217 HD
ENDBRANCH   3  10
TORSDOF 2
ENDMDL
MODEL 4
REMARK VINA RESULT:      -4.3      0.080      1.705
REMARK  2 active torsions:
REMARK  status: ('A' for Active; 'I' for Inactive)
REMARK    1  A    between atoms: C3_3  and  O1_8 
REMARK    2  A    between atoms: C6_6  and  N1_7 
ROOT
HETATM    1  C1  UNL     1       3.599   2.948  -9.849  1.00  0.00     0.026 A 
HETATM    2  C2  UNL     1       4.528   2.001 -10.286  1.00  0.00     0.038 A 
HETATM    3  C3  UNL     1       5.593   2.397 -11.083  1.00  0.00     0.065 A 
HETATM    4  C4  UNL     1       5.753   3.732 -11.437  1.00  0.00     0.038 A 
HETATM    5  C5  UNL     1       4.818   4.675 -10.998  1.00  0.00     0.026 A 
HETATM    6  C6  UNL     1       3.707   4.285 -10.243  1.00  0.00     0.005 A 
ENDROOT
BRANCH   6   7
HETATM    7  N1  UNL     1       2.845   5.250  -9.709  1.00  0.00    -0.303 NA
HETATM    8  H5  UNL     1       2.504   5.917 -10.394  1.00  0.00     0.124 HD
HETATM    9  H6  UNL     1       3.201   5.702  -8.874  1.00  0.00     0.124 HD
ENDBRANCH   6   7
BRANCH   3  10
HETATM   10  O1  UNL     1       6.479   1.444 -11.486  1.00  0.00    -0.361 OA
HETATM   11  H7  UNL     1       7.363   1.841 -11.529  1.00  0.00     0.217 HD
ENDBRANCH   3  10
TORSDOF 2
ENDMDL
MODEL 5
REMARK VINA RESULT:      -4.2      2.961      3.575
REMARK  2 active torsions:
REMARK  status: ('A' for Active; 'I' for Inactive)
REMARK    1  A    between atoms: C3_3  and  O1_8 
REMARK    2  A    between atoms: C6_6  and  N1_7 
ROOT
HETATM    1  C1  UNL     1       4.587   2.906 -10.644  1.00  0.00     0.026 A 
HETATM    2  C2  UNL     1       3.559   3.108  -9.721  1.00  0.00     0.038 A 
HETATM    3  C3  UNL     1       3.216   2.092  -8.840  1.00  0.00     0.065 A 
HETATM    4  C4  UNL     1       3.898   0.880  -8.856  1.00  0.00     0.038 A 
HETATM    5  C5  UNL     1       4.925   0.685  -9.784  1.00  0.00     0.026 A 
HETATM    6  C6  UNL     1       5.245   1.675 -10.719  1.00  0.00     0.005 A 
ENDROOT
BRANCH   6   7
HETATM    7  N1  UNL     1       6.351   1.516 -11.562  1.00  0.00    -0.303 NA
HETATM    8  H5  UNL     1       7.069   0.906 -11.183  1.00  0.00     0.124 HD
HETATM    9  H6  UNL     1       6.730   2.390 -11.910  1.00  0.00     0.124 HD
ENDBRANCH   6   7
BRANCH   3  10
HETATM   10  O1  UNL     1       2.209   2.329  -7.952  1.00  0.00    -0.361 OA
HETATM   11  H7  UNL     1       2.125   3.288  -7.828  1.00  0.00     0.217 HD
ENDBRANCH   3  10
TORSDOF 2
ENDMDL
MODEL 6
REMARK VINA RESULT:      -4.2      2.949      3.853
REMARK  2 active torsions:
REMARK  status: ('A' for Active; 'I' for Inactive)
REMARK    1  A    between atoms: C3_3  and  O1_8 
REMARK    2  A    between atoms: C6_6  and  N1_7 
ROOT
HETATM    1  C1  UNL     1       4.940   0.688  -9.839  1.00  0.00     0.026 A 
HETATM    2  C2  UNL     1       3.895   0.892  -8.935  1.00  0.00     0.038 A 
HETATM    3  C3  UNL     1       3.239   2.115  -8.906  1.00  0.00     0.065 A 
HETATM    4  C4  UNL     1       3.602   3.133  -9.781  1.00  0.00     0.038 A 
HETATM    5  C5  UNL     1       4.649   2.922 -10.682  1.00  0.00     0.026 A 
HETATM    6  C6  UNL     1       5.360   1.718 -10.686  1.00  0.00     0.005 A 
ENDROOT
BRANCH   6   7
HETATM    7  N1  UNL     1       6.326   1.473 -11.670  1.00  0.00    -0.303 NA
HETATM    8  H5  UNL     1       7.279   1.611 -11.349  1.00  0.00     0.124 HD
HETATM    9  H6  UNL     1       6.143   1.941 -12.550  1.00  0.00     0.124 HD
ENDBRANCH   6   7
BRANCH   3  10
HETATM   10  O1  UNL     1       2.224   2.273  -8.012  1.00  0.00    -0.361 OA
HETATM   11  H7  UNL     1       2.480   1.855  -7.175  1.00  0.00     0.217 HD
ENDBRANCH   3  10
TORSDOF 2
ENDMDL
MODEL 7
REMARK VINA RESULT:      -4.1      1.973      2.554
REMARK  2 active torsions:
REMARK  status: ('A' for Active; 'I' for Inactive)
REMARK    1  A    between atoms: C3_3  and  O1_8 
REMARK    2  A    between atoms: C6_6  and  N1_7 
ROOT
HETATM    1  C1  UNL     1       4.270   4.386 -13.228  1.00  0.00     0.026 A 
HETATM    2  C2  UNL     1       5.011   3.377 -12.609  1.00  0.00     0.038 A 
HETATM    3  C3  UNL     1       5.496   3.569 -11.323  1.00  0.00     0.065 A 
HETATM    4  C4  UNL     1       5.238   4.752 -10.639  1.00  0.00     0.038 A 
HETATM    5  C5  UNL     1       4.497   5.758 -11.265  1.00  0.00     0.026 A 
HETATM    6  C6  UNL     1       4.050   5.606 -12.581  1.00  0.00     0.005 A 
ENDROOT
BRANCH   6   7
HETATM    7  N1  UNL     1       3.210   6.567 -13.156  1.00  0.00    -0.303 NA
HETATM    8  H5  UNL     1       3.691   7.418 -13.429  1.00  0.00     0.124 HD
HETATM    9  H6  UNL     1       2.371   6.754 -12.617  1.00  0.00     0.124 HD
ENDBRANCH   6   7
BRANCH   3  10
HETATM   10  O1  UNL     1       6.211   2.559 -10.753  1.00  0.00    -0.361 OA
HETATM   11  H7  UNL     1       7.082   2.903 -10.497  1.00  0.00     0.217 HD
ENDBRANCH   3  10
TORSDOF 2
ENDMDL
MODEL 8
REMARK VINA RESULT:      -4.1      3.052      3.711
REMARK  2 active torsions:
REMARK  status: ('A' for Active; 'I' for Inactive)
REMARK    1  A    between atoms: C3_3  and  O1_8 
REMARK    2  A    between atoms: C6_6  and  N1_7 
ROOT
HETATM    1  C1  UNL     1       5.198   4.673 -10.678  1.00  0.00     0.026 A 
HETATM    2  C2  UNL     1       4.442   5.695 -11.257  1.00  0.00     0.038 A 
HETATM    3  C3  UNL     1       3.928   5.530 -12.535  1.00  0.00     0.065 A 
HETATM    4  C4  UNL     1       4.145   4.351 -13.239  1.00  0.00     0.038 A 
HETATM    5  C5  UNL     1       4.904   3.333 -12.653  1.00  0.00     0.026 A 
HETATM    6  C6  UNL     1       5.480   3.504 -11.390  1.00  0.00     0.005 A 
ENDROOT
BRANCH   6   7
HETATM    7  N1  UNL     1       6.135   2.437 -10.764  1.00  0.00    -0.303 NA
HETATM    8  H5  UNL     1       6.687   1.869 -11.400  1.00  0.00     0.124 HD
HETATM    9  H6  UNL     1       5.534   1.878 -10.169  1.00  0.00     0.124 HD
ENDBRANCH   6   7
BRANCH   3  10
HETATM   10  O1  UNL     1       3.193   6.549 -13.064  1.00  0.00    -0.361 OA
HETATM   11  H7  UNL     1       3.538   6.753 -13.948  1.00  0.00     0.217 HD
ENDBRANCH   3  10
TORSDOF 2
ENDMDL
MODEL 9
REMARK VINA RESULT:      -3.9      1.878      2.818
REMARK  2 active torsions:
REMARK  status: ('A' for Active; 'I' for Inactive)
REMARK    1  A    between atoms: C3_3  and  O1_8 
REMARK    2  A    between atoms: C6_6  and  N1_7 
ROOT
HETATM    1  C1  UNL     1       3.032   1.109 -10.073  1.00  0.00     0.026 A 
HETATM    2  C2  UNL     1       3.428   0.083 -10.934  1.00  0.00     0.038 A 
HETATM    3  C3  UNL     1       4.583   0.226 -11.689  1.00  0.00     0.065 A 
HETATM    4  C4  UNL     1       5.359   1.376 -11.585  1.00  0.00     0.038 A 
HETATM    5  C5  UNL     1       4.955   2.399 -10.722  1.00  0.00     0.026 A 
HETATM    6  C6  UNL     1       3.764   2.298  -9.997  1.00  0.00     0.005 A 
ENDROOT
BRANCH   6   7
HETATM    7  N1  UNL     1       3.430   3.272  -9.049  1.00  0.00    -0.303 NA
HETATM    8  H5  UNL     1       3.132   4.152  -9.457  1.00  0.00     0.124 HD
HETATM    9  H6  UNL     1       4.131   3.399  -8.327  1.00  0.00     0.124 HD
ENDBRANCH   6   7
BRANCH   3  10
HETATM   10  O1  UNL     1       4.938  -0.798 -12.515  1.00  0.00    -0.361 OA
HETATM   11  H7  UNL     1       4.585  -0.618 -13.401  1.00  0.00     0.217 HD
ENDBRANCH   3  10
TORSDOF 2
ENDMDL
MODEL 10
REMARK VINA RESULT:      -3.9      3.199      3.795
REMARK  2 active torsions:
REMARK  status: ('A' for Active; 'I' for Inactive)
REMARK    1  A    between atoms: C3_3  and  O1_8 
REMARK    2  A    between atoms: C6_6  and  N1_7 
ROOT
HETATM    1  C1  UNL     1       4.888   1.715 -11.563  1.00  0.00     0.026 A 
HETATM    2  C2  UNL     1       4.437   2.658 -10.637  1.00  0.00     0.038 A 
HETATM    3  C3  UNL     1       3.447   2.310  -9.729  1.00  0.00     0.065 A 
HETATM    4  C4  UNL     1       2.911   1.027  -9.722  1.00  0.00     0.038 A 
HETATM    5  C5  UNL     1       3.367   0.089 -10.653  1.00  0.00     0.026 A 
HETATM    6  C6  UNL     1       4.322   0.438 -11.614  1.00  0.00     0.005 A 
ENDROOT
BRANCH   6   7
HETATM    7  N1  UNL     1       4.858  -0.538 -12.462  1.00  0.00    -0.303 NA
HETATM    8  H5  UNL     1       4.454  -0.535 -13.393  1.00  0.00     0.124 HD
HETATM    9  H6  UNL     1       4.883  -1.467 -12.055  1.00  0.00     0.124 HD
ENDBRANCH   6   7
BRANCH   3  10
HETATM   10  O1  UNL     1       3.035   3.257  -8.840  1.00  0.00    -0.361 OA
HETATM   11  H7  UNL     1       3.331   4.126  -9.153  1.00  0.00     0.217 HD
ENDBRANCH   3  10
TORSDOF 2
ENDMDL
MODEL 11
REMARK VINA RESULT:      -3.9      1.691      2.147
REMARK  2 active torsions:
REMARK  status: ('A' for Active; 'I' for Inactive)
REMARK    1  A    between atoms: C3_3  and  O1_8 
REMARK    2  A    between atoms: C6_6  and  N1_7 
ROOT
HETATM    1  C1  UNL     1       3.532   3.134  -9.631  1.00  0.00     0.026 A 
HETATM    2  C2  UNL     1       4.511   3.150 -10.627  1.00  0.00     0.038 A 
HETATM    3  C3  UNL     1       5.231   1.996 -10.902  1.00  0.00     0.065 A 
HETATM    4  C4  UNL     1       4.976   0.820 -10.206  1.00  0.00     0.038 A 
HETATM    5  C5  UNL     1       3.996   0.812  -9.209  1.00  0.00     0.026 A 
HETATM    6  C6  UNL     1       3.301   1.979  -8.878  1.00  0.00     0.005 A 
ENDROOT
BRANCH   6   7
HETATM    7  N1  UNL     1       2.242   1.933  -7.964  1.00  0.00    -0.303 NA
HETATM    8  H5  UNL     1       2.065   1.006  -7.591  1.00  0.00     0.124 HD
HETATM    9  H6  UNL     1       1.395   2.385  -8.294  1.00  0.00     0.124 HD
ENDBRANCH   6   7
BRANCH   3  10
HETATM   10  O1  UNL     1       6.175   2.052 -11.883  1.00  0.00    -0.361 OA
HETATM   11  H7  UNL     1       6.838   2.717 -11.638  1.00  0.00     0.217 HD
ENDBRANCH   3  10
TORSDOF 2
ENDMDL
MODEL 12
REMARK VINA RESULT:      -3.9      2.823      3.300
REMARK  2 active torsions:
REMARK  status: ('A' for Active; 'I' for Inactive)
REMARK    1  A    between atoms: C3_3  and  O1_8 
REMARK    2  A    between atoms: C6_6  and  N1_7 
ROOT
HETATM    1  C1  UNL     1       5.340   5.034 -11.329  1.00  0.00     0.026 A 
HETATM    2  C2  UNL     1       4.593   5.588 -10.287  1.00  0.00     0.038 A 
HETATM    3  C3  UNL     1       3.755   4.777  -9.534  1.00  0.00     0.065 A 
HETATM    4  C4  UNL     1       3.665   3.415  -9.798  1.00  0.00     0.038 A 
HETATM    5  C5  UNL     1       4.415   2.867 -10.843  1.00  0.00     0.026 A 
HETATM    6  C6  UNL     1       5.220   3.678 -11.650  1.00  0.00     0.005 A 
ENDROOT
BRANCH   6   7
HETATM    7  N1  UNL     1       6.056   3.105 -12.614  1.00  0.00    -0.303 NA
HETATM    8  H5  UNL     1       5.855   2.127 -12.799  1.00  0.00     0.124 HD
HETATM    9  H6  UNL     1       7.043   3.273 -12.454  1.00  0.00     0.124 HD
ENDBRANCH   6   7
BRANCH   3  10
HETATM   10  O1  UNL     1       3.045   5.354  -8.525  1.00  0.00    -0.361 OA
HETATM   11  H7  UNL     1       2.245   5.756  -8.899  1.00  0.00     0.217 HD
ENDBRANCH   3  10
TORSDOF 2
ENDMDL
MODEL 13
REMARK VINA RESULT:      -3.8      3.375      3.784
REMARK  2 active torsions:
REMARK  status: ('A' for Active; 'I' for Inactive)
REMARK    1  A    between atoms: C3_3  and  O1_8 
REMARK    2  A    between atoms: C6_6  and  N1_7 
ROOT
HETATM    1  C1  UNL     1       5.320   1.286 -12.031  1.00  0.00     0.026 A 
HETATM    2  C2  UNL     1       5.540   1.425 -10.659  1.00  0.00     0.038 A 
HETATM    3  C3  UNL     1       4.690   0.798  -9.759  1.00  0.00     0.065 A 
HETATM    4  C4  UNL     1       3.631   0.019 -10.211  1.00  0.00     0.038 A 
HETATM    5  C5  UNL     1       3.415  -0.114 -11.586  1.00  0.00     0.026 A 
HETATM    6  C6  UNL     1       4.226   0.558 -12.507  1.00  0.00     0.005 A 
ENDROOT
BRANCH   6   7
HETATM    7  N1  UNL     1       4.077   0.323 -13.879  1.00  0.00    -0.303 NA
HETATM    8  H5  UNL     1       3.514  -0.494 -14.095  1.00  0.00     0.124 HD
HETATM    9  H6  UNL     1       4.950   0.339 -14.395  1.00  0.00     0.124 HD
ENDBRANCH   6   7
BRANCH   3  10
HETATM   10  O1  UNL     1       4.940   0.955  -8.429  1.00  0.00    -0.361 OA
HETATM   11  H7  UNL     1       4.611   1.825  -8.153  1.00  0.00     0.217 HD
ENDBRANCH   3  10
TORSDOF 2
ENDMDL
MODEL 14
REMARK VINA RESULT:      -3.8      3.181      3.764
REMARK  2 active torsions:
REMARK  status: ('A' for Active; 'I' for Inactive)
REMARK    1  A    between atoms: C3_3  and  O1_8 
REMARK    2  A    between atoms: C6_6  and  N1_7 
ROOT
HETATM    1  C1  UNL     1       5.037   2.817 -13.459  1.00  0.00     0.026 A 
HETATM    2  C2  UNL     1       4.351   4.030 -13.369  1.00  0.00     0.038 A 
HETATM    3  C3  UNL     1       4.282   4.692 -12.151  1.00  0.00     0.065 A 
HETATM    4  C4  UNL     1       4.904   4.167 -11.023  1.00  0.00     0.038 A 
HETATM    5  C5  UNL     1       5.587   2.951 -11.122  1.00  0.00     0.026 A 
HETATM    6  C6  UNL     1       5.618   2.241 -12.326  1.00  0.00     0.005 A 
ENDROOT
BRANCH   6   7
HETATM    7  N1  UNL     1       6.403   1.088 -12.444  1.00  0.00    -0.303 NA
HETATM    8  H5  UNL     1       7.353   1.271 -12.754  1.00  0.00     0.124 HD
HETATM    9  H6  UNL     1       5.962   0.343 -12.972  1.00  0.00     0.124 HD
ENDBRANCH   6   7
BRANCH   3  10
HETATM   10  O1  UNL     1       3.606   5.874 -12.104  1.00  0.00    -0.361 OA
HETATM   11  H7  UNL     1       4.241   6.588 -11.933  1.00  0.00     0.217 HD
ENDBRANCH   3  10
TORSDOF 2
ENDMDL
MODEL 15
REMARK VINA RESULT:      -3.7      3.066      3.915
REMARK  2 active torsions:
REMARK  status: ('A' for Active; 'I' for Inactive)
REMARK    1  A    between atoms: C3_3  and  O1_8 
REMARK    2  A    between atoms: C6_6  and  N1_7 
ROOT
HETATM    1  C1  UNL     1       3.991   1.503 -10.180  1.00  0.00     0.026 A 
HETATM    2  C2  UNL     1       2.930   0.634 -10.445  1.00  0.00     0.038 A 
HETATM    3  C3  UNL     1       3.005  -0.235 -11.524  1.00  0.00     0.065 A 
HETATM    4  C4  UNL     1       4.134  -0.260 -12.335  1.00  0.00     0.038 A 
HETATM    5  C5  UNL     1       5.191   0.614 -12.066  1.00  0.00     0.026 A 
HETATM    6  C6  UNL     1       5.110   1.537 -11.018  1.00  0.00     0.005 A 
ENDROOT
BRANCH   6   7
HETATM    7  N1  UNL     1       6.218   2.323 -10.683  1.00  0.00    -0.303 NA
HETATM    8  H5  UNL     1       7.097   1.813 -10.690  1.00  0.00     0.124 HD
HETATM    9  H6  UNL     1       6.095   2.868  -9.837  1.00  0.00     0.124 HD
ENDBRANCH   6   7
BRANCH   3  10
HETATM   10  O1  UNL     1       1.950  -1.069 -11.747  1.00  0.00    -0.361 OA
HETATM   11  H7  UNL     1       1.593  -1.351 -10.890  1.00  0.00     0.217 HD
ENDBRANCH   3  10
TORSDOF 2
ENDMDL
MODEL 16
REMARK VINA RESULT:      -3.7      3.023      3.898
REMARK  2 active torsions:
REMARK  status: ('A' for Active; 'I' for Inactive)
REMARK    1  A    between atoms: C3_3  and  O1_8 
REMARK    2  A    between atoms: C6_6  and  N1_7 
ROOT
HETATM    1  C1  UNL     1       2.967   0.628 -10.449  1.00  0.00     0.026 A 
HETATM    2  C2  UNL     1       3.974   1.534 -10.108  1.00  0.00     0.038 A 
HETATM    3  C3  UNL     1       5.139   1.583 -10.860  1.00  0.00     0.065 A 
HETATM    4  C4  UNL     1       5.307   0.749 -11.960  1.00  0.00     0.038 A 
HETATM    5  C5  UNL     1       4.296  -0.156 -12.294  1.00  0.00     0.026 A 
HETATM    6  C6  UNL     1       3.140  -0.261 -11.514  1.00  0.00     0.005 A 
ENDROOT
BRANCH   6   7
HETATM    7  N1  UNL     1       2.084  -1.083 -11.924  1.00  0.00    -0.303 NA
HETATM    8  H5  UNL     1       1.328  -1.143 -11.250  1.00  0.00     0.124 HD
HETATM    9  H6  UNL     1       2.380  -1.996 -12.255  1.00  0.00     0.124 HD
ENDBRANCH   6   7
BRANCH   3  10
HETATM   10  O1  UNL     1       6.097   2.482 -10.497  1.00  0.00    -0.361 OA
HETATM   11  H7  UNL     1       5.979   3.289 -11.024  1.00  0.00     0.217 HD
ENDBRANCH   3  10
TORSDOF 2
ENDMDL
MODEL 17
REMARK VINA RESULT:      -3.6      2.538      3.077
REMARK  2 active torsions:
REMARK  status: ('A' for Active; 'I' for Inactive)
REMARK    1  A    between atoms: C3_3  and  O1_8 
REMARK    2  A    between atoms: C6_6  and  N1_7 
ROOT
HETATM    1  C1  UNL     1       5.446   1.493 -11.055  1.00  0.00     0.026 A 
HETATM    2  C2  UNL     1       5.650   2.846 -11.334  1.00  0.00     0.038 A 
HETATM    3  C3  UNL     1       4.799   3.797 -10.789  1.00  0.00     0.065 A 
HETATM    4  C4  UNL     1       3.755   3.416  -9.953  1.00  0.00     0.038 A 
HETATM    5  C5  UNL     1       3.556   2.060  -9.679  1.00  0.00     0.026 A 
HETATM    6  C6  UNL     1       4.367   1.083 -10.266  1.00  0.00     0.005 A 
ENDROOT
BRANCH   6   7
HETATM    7  N1  UNL     1       4.235  -0.259  -9.893  1.00  0.00    -0.303 NA
HETATM    8  H5  UNL     1       3.476  -0.741 -10.365  1.00  0.00     0.124 HD
HETATM    9  H6  UNL     1       4.222  -0.407  -8.890  1.00  0.00     0.124 HD
ENDBRANCH   6   7
BRANCH   3  10
HETATM   10  O1  UNL     1       5.033   5.107 -11.082  1.00  0.00    -0.361 OA
HETATM   11  H7  UNL     1       4.749   5.275 -11.995  1.00  0.00     0.217 HD
ENDBRANCH   3  10
TORSDOF 2
ENDMDL
MODEL 18
REMARK VINA RESULT:      -3.5      2.038      2.595
REMARK  2 active torsions:
REMARK  status: ('A' for Active; 'I' for Inactive)
REMARK    1  A    between atoms: C3_3  and  O1_8 
REMARK    2  A    between atoms: C6_6  and  N1_7 
ROOT
HETATM    1  C1  UNL     1       4.252   3.716 -11.432  1.00  0.00     0.026 A 
HETATM    2  C2  UNL     1       4.166   2.690 -10.488  1.00  0.00     0.038 A 
HETATM    3  C3  UNL     1       3.802   2.985  -9.182  1.00  0.00     0.065 A 
HETATM    4  C4  UNL     1       3.504   4.291  -8.808  1.00  0.00     0.038 A 
HETATM    5  C5  UNL     1       3.593   5.313  -9.758  1.00  0.00     0.026 A 
HETATM    6  C6  UNL     1       4.016   5.044 -11.064  1.00  0.00     0.005 A 
ENDROOT
BRANCH   6   7
HETATM    7  N1  UNL     1       3.986   6.050 -12.036  1.00  0.00    -0.303 NA
HETATM    8  H5  UNL     1       4.638   6.808 -11.858  1.00  0.00     0.124 HD
HETATM    9  H6  UNL     1       3.054   6.386 -12.252  1.00  0.00     0.124 HD
ENDBRANCH   6   7
BRANCH   3  10
HETATM   10  O1  UNL     1       3.727   1.956  -8.292  1.00  0.00    -0.361 OA
HETATM   11  H7  UNL     1       2.841   1.565  -8.344  1.00  0.00     0.217 HD
ENDBRANCH   3  10
TORSDOF 2
ENDMDL
MODEL 19
REMARK VINA RESULT:      -3.5      1.728      2.143
REMARK  2 active torsions:
REMARK  status: ('A' for Active; 'I' for Inactive)
REMARK    1  A    between atoms: C3_3  and  O1_8 
REMARK    2  A    between atoms: C6_6  and  N1_7 
ROOT
HETATM    1  C1  UNL     1       3.952   5.078 -10.528  1.00  0.00     0.026 A 
HETATM    2  C2  UNL     1       4.718   5.402 -11.650  1.00  0.00     0.038 A 
HETATM    3  C3  UNL     1       5.446   4.412 -12.295  1.00  0.00     0.065 A 
HETATM    4  C4  UNL     1       5.406   3.097 -11.846  1.00  0.00     0.038 A 
HETATM    5  C5  UNL     1       4.637   2.780 -10.722  1.00  0.00     0.026 A 
HETATM    6  C6  UNL     1       3.945   3.774 -10.023  1.00  0.00     0.005 A 
ENDROOT
BRANCH   6   7
HETATM    7  N1  UNL     1       3.086   3.429  -8.973  1.00  0.00    -0.303 NA
HETATM    8  H5  UNL     1       2.197   3.920  -8.995  1.00  0.00     0.124 HD
HETATM    9  H6  UNL     1       3.522   3.461  -8.058  1.00  0.00     0.124 HD
ENDBRANCH   6   7
BRANCH   3  10
HETATM   10  O1  UNL     1       6.179   4.768 -13.388  1.00  0.00    -0.361 OA
HETATM   11  H7  UNL     1       5.572   5.067 -14.084  1.00  0.00     0.217 HD
ENDBRANCH   3  10
TORSDOF 2
ENDMDL
MODEL 20
REMARK VINA RESULT:      -3.4      1.774      2.483
REMARK  2 active torsions:
REMARK  status: ('A' for Active; 'I' for Inactive)
REMARK    1  A    between atoms: C3_3  and  O1_8 
REMARK    2  A    between atoms: C6_6  and  N1_7 
ROOT
HETATM    1  C1  UNL     1       3.654   4.414  -8.860  1.00  0.00     0.026 A 
HETATM    2  C2  UNL     1       3.270   3.074  -8.776  1.00  0.00     0.038 A 
HETATM    3  C3  UNL     1       3.570   2.206  -9.817  1.00  0.00     0.065 A 
HETATM    4  C4  UNL     1       4.264   2.656 -10.935  1.00  0.00     0.038 A 
HETATM    5  C5  UNL     1       4.644   3.999 -11.012  1.00  0.00     0.026 A 
HETATM    6  C6  UNL     1       4.299   4.901 -10.001  1.00  0.00     0.005 A 
ENDROOT
BRANCH   6   7
HETATM    7  N1  UNL     1       4.785   6.213 -10.030  1.00  0.00    -0.303 NA
HETATM    8  H5  UNL     1       5.437   6.389 -10.789  1.00  0.00     0.124 HD
HETATM    9  H6  UNL     1       5.135   6.541  -9.137  1.00  0.00     0.124 HD
ENDBRANCH   6   7
BRANCH   3  10
HETATM   10  O1  UNL     1       3.182   0.906  -9.696  1.00  0.00    -0.361 OA
HETATM   11  H7  UNL     1       2.378   0.872  -9.153  1.00  0.00     0.217 HD
ENDBRANCH   3  10
TORSDOF 2
ENDMDL
