MODEL 1
REMARK VINA RESULT:       2.6      0.000      0.000
REMARK  2 active torsions:
REMARK  status: ('A' for Active; 'I' for Inactive)
REMARK    1  A    between atoms: C3_3  and  O1_8 
REMARK    2  A    between atoms: C6_6  and  N1_7 
ROOT
HETATM    1  C1  UNL     1       1.800   0.914 -10.155  1.00  0.00     0.026 A 
HETATM    2  C2  UNL     1       1.959   1.306  -8.824  1.00  0.00     0.038 A 
HETATM    3  C3  UNL     1       3.114   0.959  -8.138  1.00  0.00     0.065 A 
HETATM    4  C4  UNL     1       4.122   0.237  -8.768  1.00  0.00     0.038 A 
HETATM    5  C5  UNL     1       3.955  -0.154 -10.100  1.00  0.00     0.026 A 
HETATM    6  C6  UNL     1       2.773   0.136 -10.790  1.00  0.00     0.005 A 
ENDROOT
BRANCH   6   7
HETATM    7  N1  UNL     1       2.664  -0.154 -12.155  1.00  0.00    -0.303 NA
HETATM    8  H5  UNL     1       1.765  -0.544 -12.419  1.00  0.00     0.124 HD
HETATM    9  H6  UNL     1       3.442  -0.692 -12.523  1.00  0.00     0.124 HD
ENDBRANCH   6   7
BRANCH   3  10
HETATM   10  O1  UNL     1       3.233   1.363  -6.842  1.00  0.00    -0.361 OA
HETATM   11  H7  UNL     1       4.109   1.763  -6.722  1.00  0.00     0.217 HD
ENDBRANCH   3  10
TORSDOF 2
ENDMDL
MODEL 2
REMARK VINA RESULT:       3.1     14.796     14.884
REMARK  2 active torsions:
REMARK  status: ('A' for Active; 'I' for Inactive)
REMARK    1  A    between atoms: C3_3  and  O1_8 
REMARK    2  A    between atoms: C6_6  and  N1_7 
ROOT
HETATM    1  C1  UNL     1       8.207  12.236 -14.483  1.00  0.00     0.026 A 
HETATM    2  C2  UNL     1       6.999  12.903 -14.268  1.00  0.00     0.038 A 
HETATM    3  C3  UNL     1       7.007  14.198 -13.771  1.00  0.00     0.065 A 
HETATM    4  C4  UNL     1       8.207  14.844 -13.499  1.00  0.00     0.038 A 
HETATM    5  C5  UNL     1       9.413  14.170 -13.714  1.00  0.00     0.026 A 
HETATM    6  C6  UNL     1       9.424  12.845 -14.160  1.00  0.00     0.005 A 
ENDROOT
BRANCH   6   7
HETATM    7  N1  UNL     1      10.634  12.221 -14.486  1.00  0.00    -0.303 NA
HETATM    8  H5  UNL     1      10.572  11.607 -15.292  1.00  0.00     0.124 HD
HETATM    9  H6  UNL     1      11.092  11.777 -13.697  1.00  0.00     0.124 HD
ENDBRANCH   6   7
BRANCH   3  10
HETATM   10  O1  UNL     1       5.807  14.815 -13.578  1.00  0.00    -0.361 OA
HETATM   11  H7  UNL     1       5.651  15.426 -14.316  1.00  0.00     0.217 HD
ENDBRANCH   3  10
TORSDOF 2
ENDMDL
MODEL 3
REMARK VINA RESULT:       3.2      2.714      3.522
REMARK  2 active torsions:
REMARK  status: ('A' for Active; 'I' for Inactive)
REMARK    1  A    between atoms: C3_3  and  O1_8 
REMARK    2  A    between atoms: C6_6  and  N1_7 
ROOT
HETATM    1  C1  UNL     1       4.471   0.223  -9.522  1.00  0.00     0.026 A 
HETATM    2  C2  UNL     1       3.555  -0.146 -10.509  1.00  0.00     0.038 A 
HETATM    3  C3  UNL     1       2.222   0.221 -10.382  1.00  0.00     0.065 A 
HETATM    4  C4  UNL     1       1.795   0.966  -9.289  1.00  0.00     0.038 A 
HETATM    5  C5  UNL     1       2.718   1.330  -8.304  1.00  0.00     0.026 A 
HETATM    6  C6  UNL     1       4.052   0.920  -8.385  1.00  0.00     0.005 A 
ENDROOT
BRANCH   6   7
HETATM    7  N1  UNL     1       4.991   1.388  -7.459  1.00  0.00    -0.303 NA
HETATM    8  H5  UNL     1       4.838   1.048  -6.515  1.00  0.00     0.124 HD
HETATM    9  H6  UNL     1       5.132   2.393  -7.489  1.00  0.00     0.124 HD
ENDBRANCH   6   7
BRANCH   3  10
HETATM   10  O1  UNL     1       1.360  -0.155 -11.367  1.00  0.00    -0.361 OA
HETATM   11  H7  UNL     1       1.869  -0.336 -12.173  1.00  0.00     0.217 HD
ENDBRANCH   3  10
TORSDOF 2
ENDMDL
MODEL 4
REMARK VINA RESULT:       3.2     14.900     15.128
REMARK  2 active torsions:
REMARK  status: ('A' for Active; 'I' for Inactive)
REMARK    1  A    between atoms: C3_3  and  O1_8 
REMARK    2  A    between atoms: C6_6  and  N1_7 
ROOT
HETATM    1  C1  UNL     1       7.148  14.781 -14.486  1.00  0.00     0.026 A 
HETATM    2  C2  UNL     1       5.753  14.844 -14.485  1.00  0.00     0.038 A 
HETATM    3  C3  UNL     1       5.053  14.581 -13.316  1.00  0.00     0.065 A 
HETATM    4  C4  UNL     1       5.729  14.273 -12.141  1.00  0.00     0.038 A 
HETATM    5  C5  UNL     1       7.125  14.211 -12.149  1.00  0.00     0.026 A 
HETATM    6  C6  UNL     1       7.845  14.414 -13.331  1.00  0.00     0.005 A 
ENDROOT
BRANCH   6   7
HETATM    7  N1  UNL     1       9.244  14.467 -13.304  1.00  0.00    -0.303 NA
HETATM    8  H5  UNL     1       9.645  14.191 -12.414  1.00  0.00     0.124 HD
HETATM    9  H6  UNL     1       9.628  15.341 -13.647  1.00  0.00     0.124 HD
ENDBRANCH   6   7
BRANCH   3  10
HETATM   10  O1  UNL     1       3.693  14.656 -13.356  1.00  0.00    -0.361 OA
HETATM   11  H7  UNL     1       3.434  15.187 -14.126  1.00  0.00     0.217 HD
ENDBRANCH   3  10
TORSDOF 2
ENDMDL
MODEL 5
REMARK VINA RESULT:       3.2      2.783      3.265
REMARK  2 active torsions:
REMARK  status: ('A' for Active; 'I' for Inactive)
REMARK    1  A    between atoms: C3_3  and  O1_8 
REMARK    2  A    between atoms: C6_6  and  N1_7 
ROOT
HETATM    1  C1  UNL     1       1.669   1.135  -8.895  1.00  0.00     0.026 A 
HETATM    2  C2  UNL     1       1.661   0.774 -10.244  1.00  0.00     0.038 A 
HETATM    3  C3  UNL     1       2.786   0.186 -10.805  1.00  0.00     0.065 A 
HETATM    4  C4  UNL     1       3.916  -0.060 -10.032  1.00  0.00     0.038 A 
HETATM    5  C5  UNL     1       3.916   0.306  -8.683  1.00  0.00     0.026 A 
HETATM    6  C6  UNL     1       2.814   0.952  -8.114  1.00  0.00     0.005 A 
ENDROOT
BRANCH   6   7
HETATM    7  N1  UNL     1       2.778   1.206  -6.738  1.00  0.00    -0.303 NA
HETATM    8  H5  UNL     1       1.841   1.351  -6.375  1.00  0.00     0.124 HD
HETATM    9  H6  UNL     1       3.425   1.927  -6.437  1.00  0.00     0.124 HD
ENDBRANCH   6   7
BRANCH   3  10
HETATM   10  O1  UNL     1       2.739  -0.155 -12.123  1.00  0.00    -0.361 OA
HETATM   11  H7  UNL     1       1.951  -0.701 -12.273  1.00  0.00     0.217 HD
ENDBRANCH   3  10
TORSDOF 2
ENDMDL
MODEL 6
REMARK VINA RESULT:       3.4     15.087     15.317
REMARK  2 active torsions:
REMARK  status: ('A' for Active; 'I' for Inactive)
REMARK    1  A    between atoms: C3_3  and  O1_8 
REMARK    2  A    between atoms: C6_6  and  N1_7 
ROOT
HETATM    1  C1  UNL     1       7.290  14.509 -12.002  1.00  0.00     0.026 A 
HETATM    2  C2  UNL     1       5.896  14.519 -12.101  1.00  0.00     0.038 A 
HETATM    3  C3  UNL     1       5.296  14.694 -13.339  1.00  0.00     0.065 A 
HETATM    4  C4  UNL     1       6.068  14.844 -14.486  1.00  0.00     0.038 A 
HETATM    5  C5  UNL     1       7.462  14.834 -14.379  1.00  0.00     0.026 A 
HETATM    6  C6  UNL     1       8.085  14.718 -13.133  1.00  0.00     0.005 A 
ENDROOT
BRANCH   6   7
HETATM    7  N1  UNL     1       9.476  14.590 -13.050  1.00  0.00    -0.303 NA
HETATM    8  H5  UNL     1       9.925  15.340 -12.534  1.00  0.00     0.124 HD
HETATM    9  H6  UNL     1       9.926  14.411 -13.941  1.00  0.00     0.124 HD
ENDBRANCH   6   7
BRANCH   3  10
HETATM   10  O1  UNL     1       3.934  14.696 -13.394  1.00  0.00    -0.361 OA
HETATM   11  H7  UNL     1       3.590  15.032 -12.551  1.00  0.00     0.217 HD
ENDBRANCH   3  10
TORSDOF 2
ENDMDL
MODEL 7
REMARK VINA RESULT:       4.2      2.800      3.661
REMARK  2 active torsions:
REMARK  status: ('A' for Active; 'I' for Inactive)
REMARK    1  A    between atoms: C3_3  and  O1_8 
REMARK    2  A    between atoms: C6_6  and  N1_7 
ROOT
HETATM    1  C1  UNL     1       3.805   0.687  -8.139  1.00  0.00     0.026 A 
HETATM    2  C2  UNL     1       4.069   0.239  -9.435  1.00  0.00     0.038 A 
HETATM    3  C3  UNL     1       3.071   0.289 -10.397  1.00  0.00     0.065 A 
HETATM    4  C4  UNL     1       1.814   0.798 -10.088  1.00  0.00     0.038 A 
HETATM    5  C5  UNL     1       1.556   1.243  -8.788  1.00  0.00     0.026 A 
HETATM    6  C6  UNL     1       2.531   1.146  -7.790  1.00  0.00     0.005 A 
ENDROOT
BRANCH   6   7
HETATM    7  N1  UNL     1       2.303   1.703  -6.526  1.00  0.00    -0.303 NA
HETATM    8  H5  UNL     1       1.373   2.092  -6.414  1.00  0.00     0.124 HD
HETATM    9  H6  UNL     1       3.029   2.343  -6.223  1.00  0.00     0.124 HD
ENDBRANCH   6   7
BRANCH   3  10
HETATM   10  O1  UNL     1       3.370  -0.155 -11.650  1.00  0.00    -0.361 OA
HETATM   11  H7  UNL     1       3.779  -1.032 -11.579  1.00  0.00     0.217 HD
ENDBRANCH   3  10
TORSDOF 2
ENDMDL
MODEL 8
REMARK VINA RESULT:       4.3      7.588      7.944
REMARK  2 active torsions:
REMARK  status: ('A' for Active; 'I' for Inactive)
REMARK    1  A    between atoms: C3_3  and  O1_8 
REMARK    2  A    between atoms: C6_6  and  N1_7 
ROOT
HETATM    1  C1  UNL     1       4.152   7.722 -14.486  1.00  0.00     0.026 A 
HETATM    2  C2  UNL     1       5.415   7.126 -14.486  1.00  0.00     0.038 A 
HETATM    3  C3  UNL     1       5.633   5.977 -13.738  1.00  0.00     0.065 A 
HETATM    4  C4  UNL     1       4.601   5.405 -13.002  1.00  0.00     0.038 A 
HETATM    5  C5  UNL     1       3.340   6.008 -13.007  1.00  0.00     0.026 A 
HETATM    6  C6  UNL     1       3.117   7.198 -13.706  1.00  0.00     0.005 A 
ENDROOT
BRANCH   6   7
HETATM    7  N1  UNL     1       1.825   7.728 -13.801  1.00  0.00    -0.303 NA
HETATM    8  H5  UNL     1       1.597   8.382 -13.059  1.00  0.00     0.124 HD
HETATM    9  H6  UNL     1       1.103   7.028 -13.935  1.00  0.00     0.124 HD
ENDBRANCH   6   7
BRANCH   3  10
HETATM   10  O1  UNL     1       6.878   5.424 -13.766  1.00  0.00    -0.361 OA
HETATM   11  H7  UNL     1       6.924   4.730 -13.089  1.00  0.00     0.217 HD
ENDBRANCH   3  10
TORSDOF 2
ENDMDL
MODEL 9
REMARK VINA RESULT:       4.3      7.596      7.962
REMARK  2 active torsions:
REMARK  status: ('A' for Active; 'I' for Inactive)
REMARK    1  A    between atoms: C3_3  and  O1_8 
REMARK    2  A    between atoms: C6_6  and  N1_7 
ROOT
HETATM    1  C1  UNL     1       4.527   5.486 -13.005  1.00  0.00     0.026 A 
HETATM    2  C2  UNL     1       3.249   6.048 -13.009  1.00  0.00     0.038 A 
HETATM    3  C3  UNL     1       3.007   7.201 -13.743  1.00  0.00     0.065 A 
HETATM    4  C4  UNL     1       4.022   7.793 -14.486  1.00  0.00     0.038 A 
HETATM    5  C5  UNL     1       5.300   7.226 -14.475  1.00  0.00     0.026 A 
HETATM    6  C6  UNL     1       5.577   6.098 -13.696  1.00  0.00     0.005 A 
ENDROOT
BRANCH   6   7
HETATM    7  N1  UNL     1       6.825   5.470 -13.785  1.00  0.00    -0.303 NA
HETATM    8  H5  UNL     1       6.798   4.577 -14.269  1.00  0.00     0.124 HD
HETATM    9  H6  UNL     1       7.321   5.416 -12.902  1.00  0.00     0.124 HD
ENDBRANCH   6   7
BRANCH   3  10
HETATM   10  O1  UNL     1       1.746   7.717 -13.724  1.00  0.00    -0.361 OA
HETATM   11  H7  UNL     1       1.772   8.612 -14.098  1.00  0.00     0.217 HD
ENDBRANCH   3  10
TORSDOF 2
ENDMDL
MODEL 10
REMARK VINA RESULT:       5.4     14.516     14.891
REMARK  2 active torsions:
REMARK  status: ('A' for Active; 'I' for Inactive)
REMARK    1  A    between atoms: C3_3  and  O1_8 
REMARK    2  A    between atoms: C6_6  and  N1_7 
ROOT
HETATM    1  C1  UNL     1       4.116  14.464 -11.783  1.00  0.00     0.026 A 
HETATM    2  C2  UNL     1       5.442  14.560 -12.211  1.00  0.00     0.038 A 
HETATM    3  C3  UNL     1       5.719  14.740 -13.558  1.00  0.00     0.065 A 
HETATM    4  C4  UNL     1       4.687  14.842 -14.485  1.00  0.00     0.038 A 
HETATM    5  C5  UNL     1       3.362  14.744 -14.050  1.00  0.00     0.026 A 
HETATM    6  C6  UNL     1       3.065  14.504 -12.705  1.00  0.00     0.005 A 
ENDROOT
BRANCH   6   7
HETATM    7  N1  UNL     1       1.738  14.526 -12.261  1.00  0.00    -0.303 NA
HETATM    8  H5  UNL     1       1.631  14.875 -11.314  1.00  0.00     0.124 HD
HETATM    9  H6  UNL     1       1.241  13.654 -12.410  1.00  0.00     0.124 HD
ENDBRANCH   6   7
BRANCH   3  10
HETATM   10  O1  UNL     1       7.025  14.832 -13.935  1.00  0.00    -0.361 OA
HETATM   11  H7  UNL     1       7.573  14.911 -13.138  1.00  0.00     0.217 HD
ENDBRANCH   3  10
TORSDOF 2
ENDMDL
MODEL 11
REMARK VINA RESULT:       5.6      1.590      1.973
REMARK  2 active torsions:
REMARK  status: ('A' for Active; 'I' for Inactive)
REMARK    1  A    between atoms: C3_3  and  O1_8 
REMARK    2  A    between atoms: C6_6  and  N1_7 
ROOT
HETATM    1  C1  UNL     1       2.524   0.653  -9.468  1.00  0.00     0.026 A 
HETATM    2  C2  UNL     1       1.747   1.421  -8.599  1.00  0.00     0.038 A 
HETATM    3  C3  UNL     1       2.351   2.091  -7.545  1.00  0.00     0.065 A 
HETATM    4  C4  UNL     1       3.727   2.019  -7.356  1.00  0.00     0.038 A 
HETATM    5  C5  UNL     1       4.499   1.247  -8.230  1.00  0.00     0.026 A 
HETATM    6  C6  UNL     1       3.901   0.517  -9.262  1.00  0.00     0.005 A 
ENDROOT
BRANCH   6   7
HETATM    7  N1  UNL     1       4.692  -0.155 -10.201  1.00  0.00    -0.303 NA
HETATM    8  H5  UNL     1       4.408  -1.116 -10.359  1.00  0.00     0.124 HD
HETATM    9  H6  UNL     1       5.689  -0.069 -10.034  1.00  0.00     0.124 HD
ENDBRANCH   6   7
BRANCH   3  10
HETATM   10  O1  UNL     1       1.559   2.832  -6.721  1.00  0.00    -0.361 OA
HETATM   11  H7  UNL     1       0.831   2.273  -6.406  1.00  0.00     0.217 HD
ENDBRANCH   3  10
TORSDOF 2
ENDMDL
MODEL 12
REMARK VINA RESULT:       6.0      2.751      3.329
REMARK  2 active torsions:
REMARK  status: ('A' for Active; 'I' for Inactive)
REMARK    1  A    between atoms: C3_3  and  O1_8 
REMARK    2  A    between atoms: C6_6  and  N1_7 
ROOT
HETATM    1  C1  UNL     1       2.124   1.142  -8.662  1.00  0.00     0.026 A 
HETATM    2  C2  UNL     1       3.111   0.418  -9.334  1.00  0.00     0.038 A 
HETATM    3  C3  UNL     1       4.442   0.572  -8.972  1.00  0.00     0.065 A 
HETATM    4  C4  UNL     1       4.800   1.428  -7.937  1.00  0.00     0.038 A 
HETATM    5  C5  UNL     1       3.807   2.151  -7.270  1.00  0.00     0.026 A 
HETATM    6  C6  UNL     1       2.467   2.054  -7.659  1.00  0.00     0.005 A 
ENDROOT
BRANCH   6   7
HETATM    7  N1  UNL     1       1.468   2.688  -6.910  1.00  0.00    -0.303 NA
HETATM    8  H5  UNL     1       0.831   3.246  -7.470  1.00  0.00     0.124 HD
HETATM    9  H6  UNL     1       1.819   3.194  -6.104  1.00  0.00     0.124 HD
ENDBRANCH   6   7
BRANCH   3  10
HETATM   10  O1  UNL     1       5.376  -0.155  -9.649  1.00  0.00    -0.361 OA
HETATM   11  H7  UNL     1       6.254   0.070  -9.303  1.00  0.00     0.217 HD
ENDBRANCH   3  10
TORSDOF 2
ENDMDL
MODEL 13
REMARK VINA RESULT:       7.3     14.531     14.895
REMARK  2 active torsions:
REMARK  status: ('A' for Active; 'I' for Inactive)
REMARK    1  A    between atoms: C3_3  and  O1_8 
REMARK    2  A    between atoms: C6_6  and  N1_7 
ROOT
HETATM    1  C1  UNL     1       4.735  14.595 -11.682  1.00  0.00     0.026 A 
HETATM    2  C2  UNL     1       3.356  14.596 -11.898  1.00  0.00     0.038 A 
HETATM    3  C3  UNL     1       2.862  14.728 -13.189  1.00  0.00     0.065 A 
HETATM    4  C4  UNL     1       3.729  14.843 -14.270  1.00  0.00     0.038 A 
HETATM    5  C5  UNL     1       5.109  14.843 -14.045  1.00  0.00     0.026 A 
HETATM    6  C6  UNL     1       5.624  14.770 -12.747  1.00  0.00     0.005 A 
ENDROOT
BRANCH   6   7
HETATM    7  N1  UNL     1       7.003  14.651 -12.542  1.00  0.00    -0.303 NA
HETATM    8  H5  UNL     1       7.441  15.504 -12.208  1.00  0.00     0.124 HD
HETATM    9  H6  UNL     1       7.501  14.242 -13.326  1.00  0.00     0.124 HD
ENDBRANCH   6   7
BRANCH   3  10
HETATM   10  O1  UNL     1       1.510  14.721 -13.359  1.00  0.00    -0.361 OA
HETATM   11  H7  UNL     1       1.162  15.592 -13.110  1.00  0.00     0.217 HD
ENDBRANCH   3  10
TORSDOF 2
ENDMDL
