MODEL 1
REMARK VINA RESULT:      -4.6      0.000      0.000
REMARK  2 active torsions:
REMARK  status: ('A' for Active; 'I' for Inactive)
REMARK    1  A    between atoms: C3_3  and  O1_8 
REMARK    2  A    between atoms: C6_6  and  N1_7 
ROOT
HETATM    1  C1  UNL     1       7.446  -1.250   1.318  1.00  0.00     0.026 A 
HETATM    2  C2  UNL     1       6.615  -0.184   1.672  1.00  0.00     0.038 A 
HETATM    3  C3  UNL     1       6.156   0.685   0.693  1.00  0.00     0.065 A 
HETATM    4  C4  UNL     1       6.502   0.495  -0.641  1.00  0.00     0.038 A 
HETATM    5  C5  UNL     1       7.335  -0.573  -0.988  1.00  0.00     0.026 A 
HETATM    6  C6  UNL     1       7.855  -1.425  -0.008  1.00  0.00     0.005 A 
ENDROOT
BRANCH   6   7
HETATM    7  N1  UNL     1       8.588  -2.558  -0.376  1.00  0.00    -0.303 NA
HETATM    8  H5  UNL     1       9.593  -2.439  -0.293  1.00  0.00     0.124 HD
HETATM    9  H6  UNL     1       8.318  -2.948  -1.273  1.00  0.00     0.124 HD
ENDBRANCH   6   7
BRANCH   3  10
HETATM   10  O1  UNL     1       5.346   1.711   1.078  1.00  0.00    -0.361 OA
HETATM   11  H7  UNL     1       5.430   2.431   0.432  1.00  0.00     0.217 HD
ENDBRANCH   3  10
TORSDOF 2
ENDMDL
MODEL 2
REMARK VINA RESULT:      -4.6      2.779      3.264
REMARK  2 active torsions:
REMARK  status: ('A' for Active; 'I' for Inactive)
REMARK    1  A    between atoms: C3_3  and  O1_8 
REMARK    2  A    between atoms: C6_6  and  N1_7 
ROOT
HETATM    1  C1  UNL     1       6.753  -0.154   1.576  1.00  0.00     0.026 A 
HETATM    2  C2  UNL     1       7.517  -1.268   1.222  1.00  0.00     0.038 A 
HETATM    3  C3  UNL     1       7.779  -1.525  -0.116  1.00  0.00     0.065 A 
HETATM    4  C4  UNL     1       7.301  -0.675  -1.107  1.00  0.00     0.038 A 
HETATM    5  C5  UNL     1       6.536   0.437  -0.746  1.00  0.00     0.026 A 
HETATM    6  C6  UNL     1       6.212   0.680   0.593  1.00  0.00     0.005 A 
ENDROOT
BRANCH   6   7
HETATM    7  N1  UNL     1       5.548   1.858   0.955  1.00  0.00    -0.303 NA
HETATM    8  H5  UNL     1       4.756   1.707   1.572  1.00  0.00     0.124 HD
HETATM    9  H6  UNL     1       5.316   2.456   0.169  1.00  0.00     0.124 HD
ENDBRANCH   6   7
BRANCH   3  10
HETATM   10  O1  UNL     1       8.531  -2.620  -0.420  1.00  0.00    -0.361 OA
HETATM   11  H7  UNL     1       8.187  -3.015  -1.237  1.00  0.00     0.217 HD
ENDBRANCH   3  10
TORSDOF 2
ENDMDL
MODEL 3
REMARK VINA RESULT:      -4.4     10.181     10.883
REMARK  2 active torsions:
REMARK  status: ('A' for Active; 'I' for Inactive)
REMARK    1  A    between atoms: C3_3  and  O1_8 
REMARK    2  A    between atoms: C6_6  and  N1_7 
ROOT
HETATM    1  C1  UNL     1       0.649   6.865  -3.864  1.00  0.00     0.026 A 
HETATM    2  C2  UNL     1       1.350   5.794  -4.425  1.00  0.00     0.038 A 
HETATM    3  C3  UNL     1       0.681   4.615  -4.723  1.00  0.00     0.065 A 
HETATM    4  C4  UNL     1      -0.684   4.495  -4.483  1.00  0.00     0.038 A 
HETATM    5  C5  UNL     1      -1.378   5.570  -3.920  1.00  0.00     0.026 A 
HETATM    6  C6  UNL     1      -0.710   6.745  -3.559  1.00  0.00     0.005 A 
ENDROOT
BRANCH   6   7
HETATM    7  N1  UNL     1      -1.432   7.856  -3.108  1.00  0.00    -0.303 NA
HETATM    8  H5  UNL     1      -1.669   8.514  -3.844  1.00  0.00     0.124 HD
HETATM    9  H6  UNL     1      -1.022   8.312  -2.300  1.00  0.00     0.124 HD
ENDBRANCH   6   7
BRANCH   3  10
HETATM   10  O1  UNL     1       1.399   3.595  -5.272  1.00  0.00    -0.361 OA
HETATM   11  H7  UNL     1       0.851   3.157  -5.942  1.00  0.00     0.217 HD
ENDBRANCH   3  10
TORSDOF 2
ENDMDL
MODEL 4
REMARK VINA RESULT:      -4.3      9.823     10.446
REMARK  2 active torsions:
REMARK  status: ('A' for Active; 'I' for Inactive)
REMARK    1  A    between atoms: C3_3  and  O1_8 
REMARK    2  A    between atoms: C6_6  and  N1_7 
ROOT
HETATM    1  C1  UNL     1      -0.722   4.618  -4.434  1.00  0.00     0.026 A 
HETATM    2  C2  UNL     1      -1.421   5.695  -3.885  1.00  0.00     0.038 A 
HETATM    3  C3  UNL     1      -0.746   6.869  -3.578  1.00  0.00     0.065 A 
HETATM    4  C4  UNL     1       0.616   6.988  -3.829  1.00  0.00     0.038 A 
HETATM    5  C5  UNL     1       1.310   5.905  -4.378  1.00  0.00     0.026 A 
HETATM    6  C6  UNL     1       0.659   4.695  -4.639  1.00  0.00     0.005 A 
ENDROOT
BRANCH   6   7
HETATM    7  N1  UNL     1       1.334   3.660  -5.297  1.00  0.00    -0.303 NA
HETATM    8  H5  UNL     1       0.809   2.792  -5.337  1.00  0.00     0.124 HD
HETATM    9  H6  UNL     1       2.286   3.522  -4.977  1.00  0.00     0.124 HD
ENDBRANCH   6   7
BRANCH   3  10
HETATM   10  O1  UNL     1      -1.464   7.897  -3.046  1.00  0.00    -0.361 OA
HETATM   11  H7  UNL     1      -1.946   7.569  -2.270  1.00  0.00     0.217 HD
ENDBRANCH   3  10
TORSDOF 2
ENDMDL
MODEL 5
REMARK VINA RESULT:      -4.3     10.730     11.466
REMARK  2 active torsions:
REMARK  status: ('A' for Active; 'I' for Inactive)
REMARK    1  A    between atoms: C3_3  and  O1_8 
REMARK    2  A    between atoms: C6_6  and  N1_7 
ROOT
HETATM    1  C1  UNL     1      -0.542   5.583  -6.970  1.00  0.00     0.026 A 
HETATM    2  C2  UNL     1      -0.897   6.581  -6.060  1.00  0.00     0.038 A 
HETATM    3  C3  UNL     1      -1.148   6.248  -4.736  1.00  0.00     0.065 A 
HETATM    4  C4  UNL     1      -1.033   4.931  -4.304  1.00  0.00     0.038 A 
HETATM    5  C5  UNL     1      -0.679   3.937  -5.221  1.00  0.00     0.026 A 
HETATM    6  C6  UNL     1      -0.479   4.244  -6.570  1.00  0.00     0.005 A 
ENDROOT
BRANCH   6   7
HETATM    7  N1  UNL     1      -0.009   3.266  -7.454  1.00  0.00    -0.303 NA
HETATM    8  H5  UNL     1      -0.383   2.339  -7.272  1.00  0.00     0.124 HD
HETATM    9  H6  UNL     1       0.999   3.261  -7.562  1.00  0.00     0.124 HD
ENDBRANCH   6   7
BRANCH   3  10
HETATM   10  O1  UNL     1      -1.489   7.250  -3.879  1.00  0.00    -0.361 OA
HETATM   11  H7  UNL     1      -2.455   7.336  -3.871  1.00  0.00     0.217 HD
ENDBRANCH   3  10
TORSDOF 2
ENDMDL
MODEL 6
REMARK VINA RESULT:      -4.2      1.951      2.692
REMARK  2 active torsions:
REMARK  status: ('A' for Active; 'I' for Inactive)
REMARK    1  A    between atoms: C3_3  and  O1_8 
REMARK    2  A    between atoms: C6_6  and  N1_7 
ROOT
HETATM    1  C1  UNL     1       6.728   1.808  -0.926  1.00  0.00     0.026 A 
HETATM    2  C2  UNL     1       5.391   1.736  -0.531  1.00  0.00     0.038 A 
HETATM    3  C3  UNL     1       5.032   0.920   0.533  1.00  0.00     0.065 A 
HETATM    4  C4  UNL     1       5.993   0.186   1.218  1.00  0.00     0.038 A 
HETATM    5  C5  UNL     1       7.330   0.263   0.815  1.00  0.00     0.026 A 
HETATM    6  C6  UNL     1       7.703   1.033  -0.290  1.00  0.00     0.005 A 
ENDROOT
BRANCH   6   7
HETATM    7  N1  UNL     1       9.055   1.198  -0.611  1.00  0.00    -0.303 NA
HETATM    8  H5  UNL     1       9.573   0.325  -0.652  1.00  0.00     0.124 HD
HETATM    9  H6  UNL     1       9.527   1.901  -0.053  1.00  0.00     0.124 HD
ENDBRANCH   6   7
BRANCH   3  10
HETATM   10  O1  UNL     1       3.717   0.879   0.890  1.00  0.00    -0.361 OA
HETATM   11  H7  UNL     1       3.220   1.479   0.313  1.00  0.00     0.217 HD
ENDBRANCH   3  10
TORSDOF 2
ENDMDL
MODEL 7
REMARK VINA RESULT:      -4.2      3.052      3.537
REMARK  2 active torsions:
REMARK  status: ('A' for Active; 'I' for Inactive)
REMARK    1  A    between atoms: C3_3  and  O1_8 
REMARK    2  A    between atoms: C6_6  and  N1_7 
ROOT
HETATM    1  C1  UNL     1       5.701   0.506   0.936  1.00  0.00     0.026 A 
HETATM    2  C2  UNL     1       7.065   0.741   0.748  1.00  0.00     0.038 A 
HETATM    3  C3  UNL     1       7.478   1.726  -0.138  1.00  0.00     0.065 A 
HETATM    4  C4  UNL     1       6.545   2.492  -0.829  1.00  0.00     0.038 A 
HETATM    5  C5  UNL     1       5.182   2.250  -0.638  1.00  0.00     0.026 A 
HETATM    6  C6  UNL     1       4.748   1.223   0.207  1.00  0.00     0.005 A 
ENDROOT
BRANCH   6   7
HETATM    7  N1  UNL     1       3.385   1.067   0.483  1.00  0.00    -0.303 NA
HETATM    8  H5  UNL     1       3.174   0.249   1.046  1.00  0.00     0.124 HD
HETATM    9  H6  UNL     1       2.789   1.137  -0.335  1.00  0.00     0.124 HD
ENDBRANCH   6   7
BRANCH   3  10
HETATM   10  O1  UNL     1       8.817   1.927  -0.291  1.00  0.00    -0.361 OA
HETATM   11  H7  UNL     1       9.092   2.646   0.299  1.00  0.00     0.217 HD
ENDBRANCH   3  10
TORSDOF 2
ENDMDL
MODEL 8
REMARK VINA RESULT:      -4.1      1.792      2.215
REMARK  2 active torsions:
REMARK  status: ('A' for Active; 'I' for Inactive)
REMARK    1  A    between atoms: C3_3  and  O1_8 
REMARK    2  A    between atoms: C6_6  and  N1_7 
ROOT
HETATM    1  C1  UNL     1       7.680  -0.380  -0.172  1.00  0.00     0.026 A 
HETATM    2  C2  UNL     1       7.028  -0.605   1.043  1.00  0.00     0.038 A 
HETATM    3  C3  UNL     1       5.909   0.147   1.373  1.00  0.00     0.065 A 
HETATM    4  C4  UNL     1       5.421   1.111   0.498  1.00  0.00     0.038 A 
HETATM    5  C5  UNL     1       6.080   1.332  -0.715  1.00  0.00     0.026 A 
HETATM    6  C6  UNL     1       7.243   0.626  -1.039  1.00  0.00     0.005 A 
ENDROOT
BRANCH   6   7
HETATM    7  N1  UNL     1       7.825   0.769  -2.304  1.00  0.00    -0.303 NA
HETATM    8  H5  UNL     1       8.646   1.366  -2.310  1.00  0.00     0.124 HD
HETATM    9  H6  UNL     1       7.165   1.013  -3.034  1.00  0.00     0.124 HD
ENDBRANCH   6   7
BRANCH   3  10
HETATM   10  O1  UNL     1       5.300  -0.105   2.565  1.00  0.00    -0.361 OA
HETATM   11  H7  UNL     1       5.614   0.541   3.217  1.00  0.00     0.217 HD
ENDBRANCH   3  10
TORSDOF 2
ENDMDL
MODEL 9
REMARK VINA RESULT:      -4.1     10.948     11.477
REMARK  2 active torsions:
REMARK  status: ('A' for Active; 'I' for Inactive)
REMARK    1  A    between atoms: C3_3  and  O1_8 
REMARK    2  A    between atoms: C6_6  and  N1_7 
ROOT
HETATM    1  C1  UNL     1       0.058   6.680  -5.617  1.00  0.00     0.026 A 
HETATM    2  C2  UNL     1      -0.029   5.707  -6.616  1.00  0.00     0.038 A 
HETATM    3  C3  UNL     1      -0.486   4.435  -6.299  1.00  0.00     0.065 A 
HETATM    4  C4  UNL     1      -0.873   4.126  -5.000  1.00  0.00     0.038 A 
HETATM    5  C5  UNL     1      -0.782   5.104  -4.006  1.00  0.00     0.026 A 
HETATM    6  C6  UNL     1      -0.269   6.373  -4.293  1.00  0.00     0.005 A 
ENDROOT
BRANCH   6   7
HETATM    7  N1  UNL     1      -0.293   7.380  -3.321  1.00  0.00    -0.303 NA
HETATM    8  H5  UNL     1       0.582   7.480  -2.816  1.00  0.00     0.124 HD
HETATM    9  H6  UNL     1      -1.094   7.331  -2.700  1.00  0.00     0.124 HD
ENDBRANCH   6   7
BRANCH   3  10
HETATM   10  O1  UNL     1      -0.559   3.515  -7.301  1.00  0.00    -0.361 OA
HETATM   11  H7  UNL     1      -0.685   3.983  -8.142  1.00  0.00     0.217 HD
ENDBRANCH   3  10
TORSDOF 2
ENDMDL
MODEL 10
REMARK VINA RESULT:      -4.1      2.121      2.591
REMARK  2 active torsions:
REMARK  status: ('A' for Active; 'I' for Inactive)
REMARK    1  A    between atoms: C3_3  and  O1_8 
REMARK    2  A    between atoms: C6_6  and  N1_7 
ROOT
HETATM    1  C1  UNL     1       6.237   0.521  -0.288  1.00  0.00     0.026 A 
HETATM    2  C2  UNL     1       5.901   1.670   0.432  1.00  0.00     0.038 A 
HETATM    3  C3  UNL     1       6.339   2.911  -0.009  1.00  0.00     0.065 A 
HETATM    4  C4  UNL     1       7.096   3.023  -1.170  1.00  0.00     0.038 A 
HETATM    5  C5  UNL     1       7.430   1.868  -1.884  1.00  0.00     0.026 A 
HETATM    6  C6  UNL     1       7.047   0.604  -1.424  1.00  0.00     0.005 A 
ENDROOT
BRANCH   6   7
HETATM    7  N1  UNL     1       7.282  -0.532  -2.207  1.00  0.00    -0.303 NA
HETATM    8  H5  UNL     1       6.632  -1.291  -2.031  1.00  0.00     0.124 HD
HETATM    9  H6  UNL     1       8.248  -0.842  -2.200  1.00  0.00     0.124 HD
ENDBRANCH   6   7
BRANCH   3  10
HETATM   10  O1  UNL     1       5.988   4.008   0.719  1.00  0.00    -0.361 OA
HETATM   11  H7  UNL     1       6.670   4.689   0.602  1.00  0.00     0.217 HD
ENDBRANCH   3  10
TORSDOF 2
ENDMDL
MODEL 11
REMARK VINA RESULT:      -4.1     11.167     12.082
REMARK  2 active torsions:
REMARK  status: ('A' for Active; 'I' for Inactive)
REMARK    1  A    between atoms: C3_3  and  O1_8 
REMARK    2  A    between atoms: C6_6  and  N1_7 
ROOT
HETATM    1  C1  UNL     1       1.608   6.905  -5.943  1.00  0.00     0.026 A 
HETATM    2  C2  UNL     1       0.720   5.994  -5.366  1.00  0.00     0.038 A 
HETATM    3  C3  UNL     1      -0.495   5.733  -5.983  1.00  0.00     0.065 A 
HETATM    4  C4  UNL     1      -0.830   6.357  -7.179  1.00  0.00     0.038 A 
HETATM    5  C5  UNL     1       0.064   7.268  -7.750  1.00  0.00     0.026 A 
HETATM    6  C6  UNL     1       1.267   7.589  -7.113  1.00  0.00     0.005 A 
ENDROOT
BRANCH   6   7
HETATM    7  N1  UNL     1       2.205   8.409  -7.750  1.00  0.00    -0.303 NA
HETATM    8  H5  UNL     1       1.959   8.643  -8.707  1.00  0.00     0.124 HD
HETATM    9  H6  UNL     1       3.161   8.081  -7.666  1.00  0.00     0.124 HD
ENDBRANCH   6   7
BRANCH   3  10
HETATM   10  O1  UNL     1      -1.332   4.836  -5.390  1.00  0.00    -0.361 OA
HETATM   11  H7  UNL     1      -1.751   4.300  -6.082  1.00  0.00     0.217 HD
ENDBRANCH   3  10
TORSDOF 2
ENDMDL
MODEL 12
REMARK VINA RESULT:      -3.9      2.961      3.478
REMARK  2 active torsions:
REMARK  status: ('A' for Active; 'I' for Inactive)
REMARK    1  A    between atoms: C3_3  and  O1_8 
REMARK    2  A    between atoms: C6_6  and  N1_7 
ROOT
HETATM    1  C1  UNL     1       6.045   0.899   1.013  1.00  0.00     0.026 A 
HETATM    2  C2  UNL     1       6.714  -0.309   0.801  1.00  0.00     0.038 A 
HETATM    3  C3  UNL     1       7.315  -0.555  -0.425  1.00  0.00     0.065 A 
HETATM    4  C4  UNL     1       7.271   0.395  -1.439  1.00  0.00     0.038 A 
HETATM    5  C5  UNL     1       6.598   1.601  -1.220  1.00  0.00     0.026 A 
HETATM    6  C6  UNL     1       5.936   1.844  -0.012  1.00  0.00     0.005 A 
ENDROOT
BRANCH   6   7
HETATM    7  N1  UNL     1       5.369   3.098   0.242  1.00  0.00    -0.303 NA
HETATM    8  H5  UNL     1       5.952   3.701   0.813  1.00  0.00     0.124 HD
HETATM    9  H6  UNL     1       4.413   3.055   0.577  1.00  0.00     0.124 HD
ENDBRANCH   6   7
BRANCH   3  10
HETATM   10  O1  UNL     1       7.960  -1.744  -0.592  1.00  0.00    -0.361 OA
HETATM   11  H7  UNL     1       7.380  -2.344  -1.088  1.00  0.00     0.217 HD
ENDBRANCH   3  10
TORSDOF 2
ENDMDL
MODEL 13
REMARK VINA RESULT:      -3.9     11.770     12.442
REMARK  2 active torsions:
REMARK  status: ('A' for Active; 'I' for Inactive)
REMARK    1  A    between atoms: C3_3  and  O1_8 
REMARK    2  A    between atoms: C6_6  and  N1_7 
ROOT
HETATM    1  C1  UNL     1       2.263  11.719  -1.697  1.00  0.00     0.026 A 
HETATM    2  C2  UNL     1       1.085  10.971  -1.744  1.00  0.00     0.038 A 
HETATM    3  C3  UNL     1       1.060   9.772  -2.442  1.00  0.00     0.065 A 
HETATM    4  C4  UNL     1       2.201   9.301  -3.082  1.00  0.00     0.038 A 
HETATM    5  C5  UNL     1       3.376  10.056  -3.031  1.00  0.00     0.026 A 
HETATM    6  C6  UNL     1       3.405  11.295  -2.382  1.00  0.00     0.005 A 
ENDROOT
BRANCH   6   7
HETATM    7  N1  UNL     1       4.614  11.985  -2.236  1.00  0.00    -0.303 NA
HETATM    8  H5  UNL     1       5.315  11.473  -1.709  1.00  0.00     0.124 HD
HETATM    9  H6  UNL     1       4.504  12.939  -1.907  1.00  0.00     0.124 HD
ENDBRANCH   6   7
BRANCH   3  10
HETATM   10  O1  UNL     1      -0.108   9.069  -2.462  1.00  0.00    -0.361 OA
HETATM   11  H7  UNL     1      -0.831   9.677  -2.687  1.00  0.00     0.217 HD
ENDBRANCH   3  10
TORSDOF 2
ENDMDL
MODEL 14
REMARK VINA RESULT:      -3.9     10.236     11.104
REMARK  2 active torsions:
REMARK  status: ('A' for Active; 'I' for Inactive)
REMARK    1  A    between atoms: C3_3  and  O1_8 
REMARK    2  A    between atoms: C6_6  and  N1_7 
ROOT
HETATM    1  C1  UNL     1      -0.589   5.474  -6.811  1.00  0.00     0.026 A 
HETATM    2  C2  UNL     1       0.384   6.466  -6.672  1.00  0.00     0.038 A 
HETATM    3  C3  UNL     1       1.693   6.108  -6.382  1.00  0.00     0.065 A 
HETATM    4  C4  UNL     1       2.048   4.771  -6.246  1.00  0.00     0.038 A 
HETATM    5  C5  UNL     1       1.068   3.784  -6.386  1.00  0.00     0.026 A 
HETATM    6  C6  UNL     1      -0.267   4.127  -6.620  1.00  0.00     0.005 A 
ENDROOT
BRANCH   6   7
HETATM    7  N1  UNL     1      -1.217   3.131  -6.876  1.00  0.00    -0.303 NA
HETATM    8  H5  UNL     1      -1.823   3.339  -7.663  1.00  0.00     0.124 HD
HETATM    9  H6  UNL     1      -1.735   2.838  -6.055  1.00  0.00     0.124 HD
ENDBRANCH   6   7
BRANCH   3  10
HETATM   10  O1  UNL     1       2.614   7.105  -6.256  1.00  0.00    -0.361 OA
HETATM   11  H7  UNL     1       2.654   7.374  -5.325  1.00  0.00     0.217 HD
ENDBRANCH   3  10
TORSDOF 2
ENDMDL
MODEL 15
REMARK VINA RESULT:      -3.8     10.160     11.134
REMARK  2 active torsions:
REMARK  status: ('A' for Active; 'I' for Inactive)
REMARK    1  A    between atoms: C3_3  and  O1_8 
REMARK    2  A    between atoms: C6_6  and  N1_7 
ROOT
HETATM    1  C1  UNL     1       2.167   5.313  -5.827  1.00  0.00     0.026 A 
HETATM    2  C2  UNL     1       2.233   6.707  -5.891  1.00  0.00     0.038 A 
HETATM    3  C3  UNL     1       1.341   7.401  -6.695  1.00  0.00     0.065 A 
HETATM    4  C4  UNL     1       0.370   6.723  -7.425  1.00  0.00     0.038 A 
HETATM    5  C5  UNL     1       0.311   5.328  -7.357  1.00  0.00     0.026 A 
HETATM    6  C6  UNL     1       1.239   4.607  -6.598  1.00  0.00     0.005 A 
ENDROOT
BRANCH   6   7
HETATM    7  N1  UNL     1       1.098   3.224  -6.441  1.00  0.00    -0.303 NA
HETATM    8  H5  UNL     1       0.187   2.872  -6.720  1.00  0.00     0.124 HD
HETATM    9  H6  UNL     1       1.380   2.883  -5.528  1.00  0.00     0.124 HD
ENDBRANCH   6   7
BRANCH   3  10
HETATM   10  O1  UNL     1       1.436   8.760  -6.729  1.00  0.00    -0.361 OA
HETATM   11  H7  UNL     1       2.367   9.002  -6.853  1.00  0.00     0.217 HD
ENDBRANCH   3  10
TORSDOF 2
ENDMDL
MODEL 16
REMARK VINA RESULT:      -3.8      3.185      4.115
REMARK  2 active torsions:
REMARK  status: ('A' for Active; 'I' for Inactive)
REMARK    1  A    between atoms: C3_3  and  O1_8 
REMARK    2  A    between atoms: C6_6  and  N1_7 
ROOT
HETATM    1  C1  UNL     1       7.351   3.690  -2.351  1.00  0.00     0.026 A 
HETATM    2  C2  UNL     1       6.178   4.028  -1.673  1.00  0.00     0.038 A 
HETATM    3  C3  UNL     1       5.524   3.071  -0.911  1.00  0.00     0.065 A 
HETATM    4  C4  UNL     1       6.035   1.782  -0.803  1.00  0.00     0.038 A 
HETATM    5  C5  UNL     1       7.208   1.450  -1.486  1.00  0.00     0.026 A 
HETATM    6  C6  UNL     1       7.850   2.385  -2.306  1.00  0.00     0.005 A 
ENDROOT
BRANCH   6   7
HETATM    7  N1  UNL     1       9.085   2.080  -2.889  1.00  0.00    -0.303 NA
HETATM    8  H5  UNL     1       9.038   1.934  -3.892  1.00  0.00     0.124 HD
HETATM    9  H6  UNL     1       9.592   1.341  -2.414  1.00  0.00     0.124 HD
ENDBRANCH   6   7
BRANCH   3  10
HETATM   10  O1  UNL     1       4.384   3.440  -0.262  1.00  0.00    -0.361 OA
HETATM   11  H7  UNL     1       4.390   3.045   0.625  1.00  0.00     0.217 HD
ENDBRANCH   3  10
TORSDOF 2
ENDMDL
MODEL 17
REMARK VINA RESULT:      -3.8     10.349     10.804
REMARK  2 active torsions:
REMARK  status: ('A' for Active; 'I' for Inactive)
REMARK    1  A    between atoms: C3_3  and  O1_8 
REMARK    2  A    between atoms: C6_6  and  N1_7 
ROOT
HETATM    1  C1  UNL     1       1.204   5.541  -6.770  1.00  0.00     0.026 A 
HETATM    2  C2  UNL     1       0.491   4.627  -5.991  1.00  0.00     0.038 A 
HETATM    3  C3  UNL     1       0.225   4.917  -4.660  1.00  0.00     0.065 A 
HETATM    4  C4  UNL     1       0.649   6.116  -4.099  1.00  0.00     0.038 A 
HETATM    5  C5  UNL     1       1.364   7.026  -4.884  1.00  0.00     0.026 A 
HETATM    6  C6  UNL     1       1.692   6.726  -6.210  1.00  0.00     0.005 A 
ENDROOT
BRANCH   6   7
HETATM    7  N1  UNL     1       2.302   7.690  -7.021  1.00  0.00    -0.303 NA
HETATM    8  H5  UNL     1       3.226   7.423  -7.347  1.00  0.00     0.124 HD
HETATM    9  H6  UNL     1       2.285   8.625  -6.629  1.00  0.00     0.124 HD
ENDBRANCH   6   7
BRANCH   3  10
HETATM   10  O1  UNL     1      -0.476   4.001  -3.935  1.00  0.00    -0.361 OA
HETATM   11  H7  UNL     1      -1.236   4.445  -3.527  1.00  0.00     0.217 HD
ENDBRANCH   3  10
TORSDOF 2
ENDMDL
MODEL 18
REMARK VINA RESULT:      -3.7      2.870      3.595
REMARK  2 active torsions:
REMARK  status: ('A' for Active; 'I' for Inactive)
REMARK    1  A    between atoms: C3_3  and  O1_8 
REMARK    2  A    between atoms: C6_6  and  N1_7 
ROOT
HETATM    1  C1  UNL     1       7.508   1.075  -1.810  1.00  0.00     0.026 A 
HETATM    2  C2  UNL     1       6.774   0.805  -0.653  1.00  0.00     0.038 A 
HETATM    3  C3  UNL     1       6.170   1.846   0.037  1.00  0.00     0.065 A 
HETATM    4  C4  UNL     1       6.274   3.154  -0.423  1.00  0.00     0.038 A 
HETATM    5  C5  UNL     1       7.012   3.417  -1.581  1.00  0.00     0.026 A 
HETATM    6  C6  UNL     1       7.676   2.389  -2.257  1.00  0.00     0.005 A 
ENDROOT
BRANCH   6   7
HETATM    7  N1  UNL     1       8.311   2.643  -3.478  1.00  0.00    -0.303 NA
HETATM    8  H5  UNL     1       7.966   2.071  -4.244  1.00  0.00     0.124 HD
HETATM    9  H6  UNL     1       9.324   2.644  -3.422  1.00  0.00     0.124 HD
ENDBRANCH   6   7
BRANCH   3  10
HETATM   10  O1  UNL     1       5.460   1.542   1.160  1.00  0.00    -0.361 OA
HETATM   11  H7  UNL     1       5.932   0.845   1.644  1.00  0.00     0.217 HD
ENDBRANCH   3  10
TORSDOF 2
ENDMDL
MODEL 19
REMARK VINA RESULT:      -3.7      3.107      3.893
REMARK  2 active torsions:
REMARK  status: ('A' for Active; 'I' for Inactive)
REMARK    1  A    between atoms: C3_3  and  O1_8 
REMARK    2  A    between atoms: C6_6  and  N1_7 
ROOT
HETATM    1  C1  UNL     1       6.521   2.767  -0.153  1.00  0.00     0.026 A 
HETATM    2  C2  UNL     1       7.299   3.036  -1.281  1.00  0.00     0.038 A 
HETATM    3  C3  UNL     1       7.713   1.992  -2.096  1.00  0.00     0.065 A 
HETATM    4  C4  UNL     1       7.347   0.682  -1.809  1.00  0.00     0.038 A 
HETATM    5  C5  UNL     1       6.569   0.420  -0.678  1.00  0.00     0.026 A 
HETATM    6  C6  UNL     1       6.191   1.451   0.188  1.00  0.00     0.005 A 
ENDROOT
BRANCH   6   7
HETATM    7  N1  UNL     1       5.316   1.196   1.249  1.00  0.00    -0.303 NA
HETATM    8  H5  UNL     1       4.780   0.340   1.139  1.00  0.00     0.124 HD
HETATM    9  H6  UNL     1       4.732   1.987   1.499  1.00  0.00     0.124 HD
ENDBRANCH   6   7
BRANCH   3  10
HETATM   10  O1  UNL     1       8.468   2.296  -3.189  1.00  0.00    -0.361 OA
HETATM   11  H7  UNL     1       8.987   1.513  -3.435  1.00  0.00     0.217 HD
ENDBRANCH   3  10
TORSDOF 2
ENDMDL
MODEL 20
REMARK VINA RESULT:      -3.6     11.394     12.297
REMARK  2 active torsions:
REMARK  status: ('A' for Active; 'I' for Inactive)
REMARK    1  A    between atoms: C3_3  and  O1_8 
REMARK    2  A    between atoms: C6_6  and  N1_7 
ROOT
HETATM    1  C1  UNL     1       0.353   7.469  -7.756  1.00  0.00     0.026 A 
HETATM    2  C2  UNL     1       1.467   8.248  -7.435  1.00  0.00     0.038 A 
HETATM    3  C3  UNL     1       2.059   8.121  -6.187  1.00  0.00     0.065 A 
HETATM    4  C4  UNL     1       1.563   7.214  -5.257  1.00  0.00     0.038 A 
HETATM    5  C5  UNL     1       0.447   6.438  -5.585  1.00  0.00     0.026 A 
HETATM    6  C6  UNL     1      -0.199   6.594  -6.816  1.00  0.00     0.005 A 
ENDROOT
BRANCH   6   7
HETATM    7  N1  UNL     1      -1.239   5.731  -7.180  1.00  0.00    -0.303 NA
HETATM    8  H5  UNL     1      -1.749   5.351  -6.389  1.00  0.00     0.124 HD
HETATM    9  H6  UNL     1      -0.965   5.014  -7.843  1.00  0.00     0.124 HD
ENDBRANCH   6   7
BRANCH   3  10
HETATM   10  O1  UNL     1       3.145   8.897  -5.913  1.00  0.00    -0.361 OA
HETATM   11  H7  UNL     1       2.863   9.640  -5.357  1.00  0.00     0.217 HD
ENDBRANCH   3  10
TORSDOF 2
ENDMDL
