MODEL 1
REMARK VINA RESULT:      -4.3      0.000      0.000
REMARK  2 active torsions:
REMARK  status: ('A' for Active; 'I' for Inactive)
REMARK    1  A    between atoms: C3_3  and  O1_8 
REMARK    2  A    between atoms: C6_6  and  N1_7 
ROOT
HETATM    1  C1  UNL     1       5.631  12.181  -1.978  1.00  0.00     0.026 A 
HETATM    2  C2  UNL     1       4.912  11.191  -2.652  1.00  0.00     0.038 A 
HETATM    3  C3  UNL     1       3.542  11.085  -2.459  1.00  0.00     0.065 A 
HETATM    4  C4  UNL     1       2.875  11.966  -1.613  1.00  0.00     0.038 A 
HETATM    5  C5  UNL     1       3.602  12.953  -0.941  1.00  0.00     0.026 A 
HETATM    6  C6  UNL     1       4.991  13.038  -1.077  1.00  0.00     0.005 A 
ENDROOT
BRANCH   6   7
HETATM    7  N1  UNL     1       5.692  14.101  -0.496  1.00  0.00    -0.303 NA
HETATM    8  H5  UNL     1       6.051  13.894   0.431  1.00  0.00     0.124 HD
HETATM    9  H6  UNL     1       5.198  14.986  -0.530  1.00  0.00     0.124 HD
ENDBRANCH   6   7
BRANCH   3  10
HETATM   10  O1  UNL     1       2.875  10.109  -3.136  1.00  0.00    -0.361 OA
HETATM   11  H7  UNL     1       1.923  10.217  -2.980  1.00  0.00     0.217 HD
ENDBRANCH   3  10
TORSDOF 2
ENDMDL
MODEL 2
REMARK VINA RESULT:      -4.3      2.778      3.263
REMARK  2 active torsions:
REMARK  status: ('A' for Active; 'I' for Inactive)
REMARK    1  A    between atoms: C3_3  and  O1_8 
REMARK    2  A    between atoms: C6_6  and  N1_7 
ROOT
HETATM    1  C1  UNL     1       4.951  11.314  -2.703  1.00  0.00     0.026 A 
HETATM    2  C2  UNL     1       5.667  12.281  -1.993  1.00  0.00     0.038 A 
HETATM    3  C3  UNL     1       5.006  13.099  -1.087  1.00  0.00     0.065 A 
HETATM    4  C4  UNL     1       3.640  12.954  -0.868  1.00  0.00     0.038 A 
HETATM    5  C5  UNL     1       2.930  11.985  -1.584  1.00  0.00     0.026 A 
HETATM    6  C6  UNL     1       3.567  11.191  -2.543  1.00  0.00     0.005 A 
ENDROOT
BRANCH   6   7
HETATM    7  N1  UNL     1       2.875  10.147  -3.166  1.00  0.00    -0.303 NA
HETATM    8  H5  UNL     1       2.453  10.408  -4.051  1.00  0.00     0.124 HD
HETATM    9  H6  UNL     1       2.225   9.664  -2.555  1.00  0.00     0.124 HD
ENDBRANCH   6   7
BRANCH   3  10
HETATM   10  O1  UNL     1       5.740  14.027  -0.412  1.00  0.00    -0.361 OA
HETATM   11  H7  UNL     1       6.030  13.641   0.429  1.00  0.00     0.217 HD
ENDBRANCH   3  10
TORSDOF 2
ENDMDL
MODEL 3
REMARK VINA RESULT:      -4.2      2.781      3.682
REMARK  2 active torsions:
REMARK  status: ('A' for Active; 'I' for Inactive)
REMARK    1  A    between atoms: C3_3  and  O1_8 
REMARK    2  A    between atoms: C6_6  and  N1_7 
ROOT
HETATM    1  C1  UNL     1       2.980  11.885  -1.731  1.00  0.00     0.026 A 
HETATM    2  C2  UNL     1       3.715  12.807  -0.982  1.00  0.00     0.038 A 
HETATM    3  C3  UNL     1       5.098  12.837  -1.096  1.00  0.00     0.065 A 
HETATM    4  C4  UNL     1       5.757  11.970  -1.960  1.00  0.00     0.038 A 
HETATM    5  C5  UNL     1       5.014  11.050  -2.705  1.00  0.00     0.026 A 
HETATM    6  C6  UNL     1       3.625  10.964  -2.561  1.00  0.00     0.005 A 
ENDROOT
BRANCH   6   7
HETATM    7  N1  UNL     1       2.880  10.124  -3.396  1.00  0.00    -0.303 NA
HETATM    8  H5  UNL     1       1.890  10.099  -3.171  1.00  0.00     0.124 HD
HETATM    9  H6  UNL     1       3.276   9.195  -3.502  1.00  0.00     0.124 HD
ENDBRANCH   6   7
BRANCH   3  10
HETATM   10  O1  UNL     1       5.780  13.753  -0.351  1.00  0.00    -0.361 OA
HETATM   11  H7  UNL     1       5.985  13.359   0.512  1.00  0.00     0.217 HD
ENDBRANCH   3  10
TORSDOF 2
ENDMDL
MODEL 4
REMARK VINA RESULT:      -4.2      0.179      1.711
REMARK  2 active torsions:
REMARK  status: ('A' for Active; 'I' for Inactive)
REMARK    1  A    between atoms: C3_3  and  O1_8 
REMARK    2  A    between atoms: C6_6  and  N1_7 
ROOT
HETATM    1  C1  UNL     1       3.504  13.016  -0.976  1.00  0.00     0.026 A 
HETATM    2  C2  UNL     1       2.875  11.936  -1.600  1.00  0.00     0.038 A 
HETATM    3  C3  UNL     1       3.615  11.079  -2.402  1.00  0.00     0.065 A 
HETATM    4  C4  UNL     1       4.980  11.276  -2.578  1.00  0.00     0.038 A 
HETATM    5  C5  UNL     1       5.603  12.360  -1.951  1.00  0.00     0.026 A 
HETATM    6  C6  UNL     1       4.863  13.268  -1.187  1.00  0.00     0.005 A 
ENDROOT
BRANCH   6   7
HETATM    7  N1  UNL     1       5.513  14.278  -0.468  1.00  0.00    -0.303 NA
HETATM    8  H5  UNL     1       6.132  13.929   0.257  1.00  0.00     0.124 HD
HETATM    9  H6  UNL     1       4.892  15.005  -0.129  1.00  0.00     0.124 HD
ENDBRANCH   6   7
BRANCH   3  10
HETATM   10  O1  UNL     1       2.965  10.036  -2.991  1.00  0.00    -0.361 OA
HETATM   11  H7  UNL     1       2.686   9.415  -2.299  1.00  0.00     0.217 HD
ENDBRANCH   3  10
TORSDOF 2
ENDMDL
MODEL 5
REMARK VINA RESULT:      -4.1      1.573      2.338
REMARK  2 active torsions:
REMARK  status: ('A' for Active; 'I' for Inactive)
REMARK    1  A    between atoms: C3_3  and  O1_8 
REMARK    2  A    between atoms: C6_6  and  N1_7 
ROOT
HETATM    1  C1  UNL     1       3.309  11.674  -2.254  1.00  0.00     0.026 A 
HETATM    2  C2  UNL     1       3.914  10.893  -3.242  1.00  0.00     0.038 A 
HETATM    3  C3  UNL     1       5.297  10.873  -3.351  1.00  0.00     0.065 A 
HETATM    4  C4  UNL     1       6.087  11.610  -2.476  1.00  0.00     0.038 A 
HETATM    5  C5  UNL     1       5.475  12.390  -1.491  1.00  0.00     0.026 A 
HETATM    6  C6  UNL     1       4.081  12.469  -1.402  1.00  0.00     0.005 A 
ENDROOT
BRANCH   6   7
HETATM    7  N1  UNL     1       3.480  13.156  -0.341  1.00  0.00    -0.303 NA
HETATM    8  H5  UNL     1       2.668  13.700  -0.615  1.00  0.00     0.124 HD
HETATM    9  H6  UNL     1       4.132  13.693   0.222  1.00  0.00     0.124 HD
ENDBRANCH   6   7
BRANCH   3  10
HETATM   10  O1  UNL     1       5.849  10.097  -4.326  1.00  0.00    -0.361 OA
HETATM   11  H7  UNL     1       5.613   9.171  -4.155  1.00  0.00     0.217 HD
ENDBRANCH   3  10
TORSDOF 2
ENDMDL
MODEL 6
REMARK VINA RESULT:      -3.8     10.857     11.580
REMARK  2 active torsions:
REMARK  status: ('A' for Active; 'I' for Inactive)
REMARK    1  A    between atoms: C3_3  and  O1_8 
REMARK    2  A    between atoms: C6_6  and  N1_7 
ROOT
HETATM    1  C1  UNL     1       9.979  12.914   9.127  1.00  0.00     0.026 A 
HETATM    2  C2  UNL     1       8.693  12.898   9.670  1.00  0.00     0.038 A 
HETATM    3  C3  UNL     1       7.692  12.167   9.045  1.00  0.00     0.065 A 
HETATM    4  C4  UNL     1       7.962  11.437   7.893  1.00  0.00     0.038 A 
HETATM    5  C5  UNL     1       9.252  11.460   7.354  1.00  0.00     0.026 A 
HETATM    6  C6  UNL     1      10.259  12.237   7.936  1.00  0.00     0.005 A 
ENDROOT
BRANCH   6   7
HETATM    7  N1  UNL     1      11.573  12.159   7.460  1.00  0.00    -0.303 NA
HETATM    8  H5  UNL     1      12.017  13.064   7.338  1.00  0.00     0.124 HD
HETATM    9  H6  UNL     1      11.680  11.564   6.646  1.00  0.00     0.124 HD
ENDBRANCH   6   7
BRANCH   3  10
HETATM   10  O1  UNL     1       6.451  12.174   9.608  1.00  0.00    -0.361 OA
HETATM   11  H7  UNL     1       5.883  12.774   9.098  1.00  0.00     0.217 HD
ENDBRANCH   3  10
TORSDOF 2
ENDMDL
MODEL 7
REMARK VINA RESULT:      -3.8     10.963     11.689
REMARK  2 active torsions:
REMARK  status: ('A' for Active; 'I' for Inactive)
REMARK    1  A    between atoms: C3_3  and  O1_8 
REMARK    2  A    between atoms: C6_6  and  N1_7 
ROOT
HETATM    1  C1  UNL     1       7.993  11.506   7.926  1.00  0.00     0.026 A 
HETATM    2  C2  UNL     1       9.260  11.462   7.340  1.00  0.00     0.038 A 
HETATM    3  C3  UNL     1      10.310  12.162   7.919  1.00  0.00     0.065 A 
HETATM    4  C4  UNL     1      10.115  12.893   9.086  1.00  0.00     0.038 A 
HETATM    5  C5  UNL     1       8.844  12.933   9.665  1.00  0.00     0.026 A 
HETATM    6  C6  UNL     1       7.761  12.283   9.065  1.00  0.00     0.005 A 
ENDROOT
BRANCH   6   7
HETATM    7  N1  UNL     1       6.522  12.230   9.715  1.00  0.00    -0.303 NA
HETATM    8  H5  UNL     1       6.594  12.186  10.727  1.00  0.00     0.124 HD
HETATM    9  H6  UNL     1       5.893  11.527   9.341  1.00  0.00     0.124 HD
ENDBRANCH   6   7
BRANCH   3  10
HETATM   10  O1  UNL     1      11.531  12.092   7.319  1.00  0.00    -0.361 OA
HETATM   11  H7  UNL     1      11.836  12.994   7.131  1.00  0.00     0.217 HD
ENDBRANCH   3  10
TORSDOF 2
ENDMDL
MODEL 8
REMARK VINA RESULT:      -3.6     10.077     10.655
REMARK  2 active torsions:
REMARK  status: ('A' for Active; 'I' for Inactive)
REMARK    1  A    between atoms: C3_3  and  O1_8 
REMARK    2  A    between atoms: C6_6  and  N1_7 
ROOT
HETATM    1  C1  UNL     1       7.785  14.198   7.316  1.00  0.00     0.026 A 
HETATM    2  C2  UNL     1       8.575  13.156   6.827  1.00  0.00     0.038 A 
HETATM    3  C3  UNL     1       8.632  11.954   7.517  1.00  0.00     0.065 A 
HETATM    4  C4  UNL     1       7.896  11.771   8.683  1.00  0.00     0.038 A 
HETATM    5  C5  UNL     1       7.108  12.820   9.167  1.00  0.00     0.026 A 
HETATM    6  C6  UNL     1       7.084  14.058   8.517  1.00  0.00     0.005 A 
ENDROOT
BRANCH   6   7
HETATM    7  N1  UNL     1       6.203  15.059   8.941  1.00  0.00    -0.303 NA
HETATM    8  H5  UNL     1       5.958  15.722   8.212  1.00  0.00     0.124 HD
HETATM    9  H6  UNL     1       6.485  15.517   9.801  1.00  0.00     0.124 HD
ENDBRANCH   6   7
BRANCH   3  10
HETATM   10  O1  UNL     1       9.412  10.960   7.006  1.00  0.00    -0.361 OA
HETATM   11  H7  UNL     1       8.959  10.573   6.240  1.00  0.00     0.217 HD
ENDBRANCH   3  10
TORSDOF 2
ENDMDL
MODEL 9
REMARK VINA RESULT:      -3.5     11.223     11.961
REMARK  2 active torsions:
REMARK  status: ('A' for Active; 'I' for Inactive)
REMARK    1  A    between atoms: C3_3  and  O1_8 
REMARK    2  A    between atoms: C6_6  and  N1_7 
ROOT
HETATM    1  C1  UNL     1       7.866  13.095   9.968  1.00  0.00     0.026 A 
HETATM    2  C2  UNL     1       7.400  12.195   9.006  1.00  0.00     0.038 A 
HETATM    3  C3  UNL     1       8.303  11.550   8.174  1.00  0.00     0.065 A 
HETATM    4  C4  UNL     1       9.669  11.778   8.298  1.00  0.00     0.038 A 
HETATM    5  C5  UNL     1      10.128  12.680   9.262  1.00  0.00     0.026 A 
HETATM    6  C6  UNL     1       9.230  13.385  10.070  1.00  0.00     0.005 A 
ENDROOT
BRANCH   6   7
HETATM    7  N1  UNL     1       9.703  14.194  11.110  1.00  0.00    -0.303 NA
HETATM    8  H5  UNL     1       9.393  13.898  12.030  1.00  0.00     0.124 HD
HETATM    9  H6  UNL     1       9.560  15.186  10.954  1.00  0.00     0.124 HD
ENDBRANCH   6   7
BRANCH   3  10
HETATM   10  O1  UNL     1       7.809  10.677   7.251  1.00  0.00    -0.361 OA
HETATM   11  H7  UNL     1       6.854  10.829   7.161  1.00  0.00     0.217 HD
ENDBRANCH   3  10
TORSDOF 2
ENDMDL
MODEL 10
REMARK VINA RESULT:      -3.5     10.630     11.421
REMARK  2 active torsions:
REMARK  status: ('A' for Active; 'I' for Inactive)
REMARK    1  A    between atoms: C3_3  and  O1_8 
REMARK    2  A    between atoms: C6_6  and  N1_7 
ROOT
HETATM    1  C1  UNL     1      12.913   7.463  -3.633  1.00  0.00     0.026 A 
HETATM    2  C2  UNL     1      13.664   7.966  -2.568  1.00  0.00     0.038 A 
HETATM    3  C3  UNL     1      14.349   7.092  -1.736  1.00  0.00     0.065 A 
HETATM    4  C4  UNL     1      14.308   5.721  -1.962  1.00  0.00     0.038 A 
HETATM    5  C5  UNL     1      13.553   5.224  -3.029  1.00  0.00     0.026 A 
HETATM    6  C6  UNL     1      12.809   6.084  -3.843  1.00  0.00     0.005 A 
ENDROOT
BRANCH   6   7
HETATM    7  N1  UNL     1      12.155   5.591  -4.978  1.00  0.00    -0.303 NA
HETATM    8  H5  UNL     1      12.432   6.050  -5.840  1.00  0.00     0.124 HD
HETATM    9  H6  UNL     1      11.147   5.532  -4.877  1.00  0.00     0.124 HD
ENDBRANCH   6   7
BRANCH   3  10
HETATM   10  O1  UNL     1      15.072   7.622  -0.710  1.00  0.00    -0.361 OA
HETATM   11  H7  UNL     1      15.701   8.266  -1.074  1.00  0.00     0.217 HD
ENDBRANCH   3  10
TORSDOF 2
ENDMDL
MODEL 11
REMARK VINA RESULT:      -3.5     10.836     11.508
REMARK  2 active torsions:
REMARK  status: ('A' for Active; 'I' for Inactive)
REMARK    1  A    between atoms: C3_3  and  O1_8 
REMARK    2  A    between atoms: C6_6  and  N1_7 
ROOT
HETATM    1  C1  UNL     1      14.482   5.892  -1.501  1.00  0.00     0.026 A 
HETATM    2  C2  UNL     1      14.611   7.274  -1.656  1.00  0.00     0.038 A 
HETATM    3  C3  UNL     1      13.934   7.918  -2.681  1.00  0.00     0.065 A 
HETATM    4  C4  UNL     1      13.114   7.202  -3.547  1.00  0.00     0.038 A 
HETATM    5  C5  UNL     1      12.991   5.819  -3.387  1.00  0.00     0.026 A 
HETATM    6  C6  UNL     1      13.712   5.144  -2.396  1.00  0.00     0.005 A 
ENDROOT
BRANCH   6   7
HETATM    7  N1  UNL     1      13.491   3.781  -2.168  1.00  0.00    -0.303 NA
HETATM    8  H5  UNL     1      13.921   3.435  -1.316  1.00  0.00     0.124 HD
HETATM    9  H6  UNL     1      13.692   3.193  -2.970  1.00  0.00     0.124 HD
ENDBRANCH   6   7
BRANCH   3  10
HETATM   10  O1  UNL     1      14.083   9.267  -2.797  1.00  0.00    -0.361 OA
HETATM   11  H7  UNL     1      14.646   9.580  -2.071  1.00  0.00     0.217 HD
ENDBRANCH   3  10
TORSDOF 2
ENDMDL
MODEL 12
REMARK VINA RESULT:      -3.5     10.304     10.782
REMARK  2 active torsions:
REMARK  status: ('A' for Active; 'I' for Inactive)
REMARK    1  A    between atoms: C3_3  and  O1_8 
REMARK    2  A    between atoms: C6_6  and  N1_7 
ROOT
HETATM    1  C1  UNL     1       7.893  14.434   7.545  1.00  0.00     0.026 A 
HETATM    2  C2  UNL     1       7.073  13.871   8.526  1.00  0.00     0.038 A 
HETATM    3  C3  UNL     1       7.247  12.543   8.887  1.00  0.00     0.065 A 
HETATM    4  C4  UNL     1       8.241  11.772   8.294  1.00  0.00     0.038 A 
HETATM    5  C5  UNL     1       9.056  12.342   7.312  1.00  0.00     0.026 A 
HETATM    6  C6  UNL     1       8.858  13.661   6.893  1.00  0.00     0.005 A 
ENDROOT
BRANCH   6   7
HETATM    7  N1  UNL     1       9.753  14.258   5.998  1.00  0.00    -0.303 NA
HETATM    8  H5  UNL     1      10.728  14.101   6.231  1.00  0.00     0.124 HD
HETATM    9  H6  UNL     1       9.554  15.235   5.808  1.00  0.00     0.124 HD
ENDBRANCH   6   7
BRANCH   3  10
HETATM   10  O1  UNL     1       6.430  12.031   9.850  1.00  0.00    -0.361 OA
HETATM   11  H7  UNL     1       5.610  12.550   9.869  1.00  0.00     0.217 HD
ENDBRANCH   3  10
TORSDOF 2
ENDMDL
MODEL 13
REMARK VINA RESULT:      -3.5     10.315     11.004
REMARK  2 active torsions:
REMARK  status: ('A' for Active; 'I' for Inactive)
REMARK    1  A    between atoms: C3_3  and  O1_8 
REMARK    2  A    between atoms: C6_6  and  N1_7 
ROOT
HETATM    1  C1  UNL     1      13.592   7.928  -2.806  1.00  0.00     0.026 A 
HETATM    2  C2  UNL     1      12.854   7.378  -3.856  1.00  0.00     0.038 A 
HETATM    3  C3  UNL     1      12.844   6.003  -4.044  1.00  0.00     0.065 A 
HETATM    4  C4  UNL     1      13.547   5.166  -3.185  1.00  0.00     0.038 A 
HETATM    5  C5  UNL     1      14.284   5.723  -2.136  1.00  0.00     0.026 A 
HETATM    6  C6  UNL     1      14.355   7.110  -1.966  1.00  0.00     0.005 A 
ENDROOT
BRANCH   6   7
HETATM    7  N1  UNL     1      14.996   7.651  -0.846  1.00  0.00    -0.303 NA
HETATM    8  H5  UNL     1      15.620   8.421  -1.066  1.00  0.00     0.124 HD
HETATM    9  H6  UNL     1      15.434   6.958  -0.249  1.00  0.00     0.124 HD
ENDBRANCH   6   7
BRANCH   3  10
HETATM   10  O1  UNL     1      12.110   5.505  -5.079  1.00  0.00    -0.361 OA
HETATM   11  H7  UNL     1      11.168   5.587  -4.858  1.00  0.00     0.217 HD
ENDBRANCH   3  10
TORSDOF 2
ENDMDL
MODEL 14
REMARK VINA RESULT:      -3.5     11.618     12.340
REMARK  2 active torsions:
REMARK  status: ('A' for Active; 'I' for Inactive)
REMARK    1  A    between atoms: C3_3  and  O1_8 
REMARK    2  A    between atoms: C6_6  and  N1_7 
ROOT
HETATM    1  C1  UNL     1       9.690  11.922   8.407  1.00  0.00     0.026 A 
HETATM    2  C2  UNL     1      10.113  12.807   9.400  1.00  0.00     0.038 A 
HETATM    3  C3  UNL     1       9.175  13.424  10.217  1.00  0.00     0.065 A 
HETATM    4  C4  UNL     1       7.819  13.156  10.065  1.00  0.00     0.038 A 
HETATM    5  C5  UNL     1       7.403  12.270   9.067  1.00  0.00     0.026 A 
HETATM    6  C6  UNL     1       8.328  11.684   8.197  1.00  0.00     0.005 A 
ENDROOT
BRANCH   6   7
HETATM    7  N1  UNL     1       7.915  10.709   7.282  1.00  0.00    -0.303 NA
HETATM    8  H5  UNL     1       6.977  10.858   6.923  1.00  0.00     0.124 HD
HETATM    9  H6  UNL     1       8.059   9.758   7.602  1.00  0.00     0.124 HD
ENDBRANCH   6   7
BRANCH   3  10
HETATM   10  O1  UNL     1       9.628  14.279  11.176  1.00  0.00    -0.361 OA
HETATM   11  H7  UNL     1       9.300  15.171  10.976  1.00  0.00     0.217 HD
ENDBRANCH   3  10
TORSDOF 2
ENDMDL
MODEL 15
REMARK VINA RESULT:      -3.4     11.142     11.501
REMARK  2 active torsions:
REMARK  status: ('A' for Active; 'I' for Inactive)
REMARK    1  A    between atoms: C3_3  and  O1_8 
REMARK    2  A    between atoms: C6_6  and  N1_7 
ROOT
HETATM    1  C1  UNL     1      14.688   7.062  -1.710  1.00  0.00     0.026 A 
HETATM    2  C2  UNL     1      14.388   5.724  -1.446  1.00  0.00     0.038 A 
HETATM    3  C3  UNL     1      13.707   4.971  -2.393  1.00  0.00     0.065 A 
HETATM    4  C4  UNL     1      13.336   5.533  -3.609  1.00  0.00     0.038 A 
HETATM    5  C5  UNL     1      13.639   6.873  -3.867  1.00  0.00     0.026 A 
HETATM    6  C6  UNL     1      14.272   7.663  -2.902  1.00  0.00     0.005 A 
ENDROOT
BRANCH   6   7
HETATM    7  N1  UNL     1      14.677   8.967  -3.213  1.00  0.00    -0.303 NA
HETATM    8  H5  UNL     1      14.514   9.634  -2.465  1.00  0.00     0.124 HD
HETATM    9  H6  UNL     1      14.336   9.299  -4.108  1.00  0.00     0.124 HD
ENDBRANCH   6   7
BRANCH   3  10
HETATM   10  O1  UNL     1      13.435   3.669  -2.098  1.00  0.00    -0.361 OA
HETATM   11  H7  UNL     1      12.477   3.531  -2.163  1.00  0.00     0.217 HD
ENDBRANCH   3  10
TORSDOF 2
ENDMDL
MODEL 16
REMARK VINA RESULT:      -3.4     10.150     10.735
REMARK  2 active torsions:
REMARK  status: ('A' for Active; 'I' for Inactive)
REMARK    1  A    between atoms: C3_3  and  O1_8 
REMARK    2  A    between atoms: C6_6  and  N1_7 
ROOT
HETATM    1  C1  UNL     1       7.006  14.047   8.535  1.00  0.00     0.026 A 
HETATM    2  C2  UNL     1       7.666  14.625   7.449  1.00  0.00     0.038 A 
HETATM    3  C3  UNL     1       8.561  13.867   6.707  1.00  0.00     0.065 A 
HETATM    4  C4  UNL     1       8.794  12.534   7.025  1.00  0.00     0.038 A 
HETATM    5  C5  UNL     1       8.130  11.963   8.115  1.00  0.00     0.026 A 
HETATM    6  C6  UNL     1       7.269  12.726   8.910  1.00  0.00     0.005 A 
ENDROOT
BRANCH   6   7
HETATM    7  N1  UNL     1       6.520  12.117   9.923  1.00  0.00    -0.303 NA
HETATM    8  H5  UNL     1       6.068  11.256   9.634  1.00  0.00     0.124 HD
HETATM    9  H6  UNL     1       5.882  12.748  10.397  1.00  0.00     0.124 HD
ENDBRANCH   6   7
BRANCH   3  10
HETATM   10  O1  UNL     1       9.184  14.466   5.652  1.00  0.00    -0.361 OA
HETATM   11  H7  UNL     1       8.867  14.056   4.832  1.00  0.00     0.217 HD
ENDBRANCH   3  10
TORSDOF 2
ENDMDL
MODEL 17
REMARK VINA RESULT:      -3.4     11.173     11.972
REMARK  2 active torsions:
REMARK  status: ('A' for Active; 'I' for Inactive)
REMARK    1  A    between atoms: C3_3  and  O1_8 
REMARK    2  A    between atoms: C6_6  and  N1_7 
ROOT
HETATM    1  C1  UNL     1      15.397   5.874  -4.376  1.00  0.00     0.026 A 
HETATM    2  C2  UNL     1      14.991   4.760  -3.637  1.00  0.00     0.038 A 
HETATM    3  C3  UNL     1      13.798   4.802  -2.929  1.00  0.00     0.065 A 
HETATM    4  C4  UNL     1      12.996   5.937  -2.961  1.00  0.00     0.038 A 
HETATM    5  C5  UNL     1      13.410   7.049  -3.701  1.00  0.00     0.026 A 
HETATM    6  C6  UNL     1      14.636   7.047  -4.374  1.00  0.00     0.005 A 
ENDROOT
BRANCH   6   7
HETATM    7  N1  UNL     1      14.985   8.116  -5.207  1.00  0.00    -0.303 NA
HETATM    8  H5  UNL     1      15.936   8.445  -5.071  1.00  0.00     0.124 HD
HETATM    9  H6  UNL     1      14.310   8.873  -5.206  1.00  0.00     0.124 HD
ENDBRANCH   6   7
BRANCH   3  10
HETATM   10  O1  UNL     1      13.436   3.694  -2.223  1.00  0.00    -0.361 OA
HETATM   11  H7  UNL     1      13.394   2.939  -2.832  1.00  0.00     0.217 HD
ENDBRANCH   3  10
TORSDOF 2
ENDMDL
MODEL 18
REMARK VINA RESULT:      -3.4     12.203     12.640
REMARK  2 active torsions:
REMARK  status: ('A' for Active; 'I' for Inactive)
REMARK    1  A    between atoms: C3_3  and  O1_8 
REMARK    2  A    between atoms: C6_6  and  N1_7 
ROOT
HETATM    1  C1  UNL     1      14.540   4.769  -3.768  1.00  0.00     0.026 A 
HETATM    2  C2  UNL     1      15.289   5.809  -4.323  1.00  0.00     0.038 A 
HETATM    3  C3  UNL     1      15.541   6.950  -3.575  1.00  0.00     0.065 A 
HETATM    4  C4  UNL     1      15.070   7.060  -2.271  1.00  0.00     0.038 A 
HETATM    5  C5  UNL     1      14.320   6.015  -1.723  1.00  0.00     0.026 A 
HETATM    6  C6  UNL     1      14.006   4.883  -2.481  1.00  0.00     0.005 A 
ENDROOT
BRANCH   6   7
HETATM    7  N1  UNL     1      13.359   3.794  -1.887  1.00  0.00    -0.303 NA
HETATM    8  H5  UNL     1      12.537   3.481  -2.394  1.00  0.00     0.124 HD
HETATM    9  H6  UNL     1      13.179   3.914  -0.896  1.00  0.00     0.124 HD
ENDBRANCH   6   7
BRANCH   3  10
HETATM   10  O1  UNL     1      16.277   7.941  -4.151  1.00  0.00    -0.361 OA
HETATM   11  H7  UNL     1      17.066   7.546  -4.556  1.00  0.00     0.217 HD
ENDBRANCH   3  10
TORSDOF 2
ENDMDL
MODEL 19
REMARK VINA RESULT:      -3.3     11.357     12.242
REMARK  2 active torsions:
REMARK  status: ('A' for Active; 'I' for Inactive)
REMARK    1  A    between atoms: C3_3  and  O1_8 
REMARK    2  A    between atoms: C6_6  and  N1_7 
ROOT
HETATM    1  C1  UNL     1      13.675   5.070  -4.077  1.00  0.00     0.026 A 
HETATM    2  C2  UNL     1      15.040   4.899  -3.835  1.00  0.00     0.038 A 
HETATM    3  C3  UNL     1      15.695   5.753  -2.959  1.00  0.00     0.065 A 
HETATM    4  C4  UNL     1      15.001   6.767  -2.308  1.00  0.00     0.038 A 
HETATM    5  C5  UNL     1      13.635   6.932  -2.556  1.00  0.00     0.026 A 
HETATM    6  C6  UNL     1      12.971   6.119  -3.480  1.00  0.00     0.005 A 
ENDROOT
BRANCH   6   7
HETATM    7  N1  UNL     1      11.583   6.215  -3.632  1.00  0.00    -0.303 NA
HETATM    8  H5  UNL     1      11.298   6.739  -4.454  1.00  0.00     0.124 HD
HETATM    9  H6  UNL     1      11.098   6.517  -2.794  1.00  0.00     0.124 HD
ENDBRANCH   6   7
BRANCH   3  10
HETATM   10  O1  UNL     1      17.026   5.552  -2.747  1.00  0.00    -0.361 OA
HETATM   11  H7  UNL     1      17.172   4.609  -2.571  1.00  0.00     0.217 HD
ENDBRANCH   3  10
TORSDOF 2
ENDMDL
MODEL 20
REMARK VINA RESULT:      -3.3     11.057     11.963
REMARK  2 active torsions:
REMARK  status: ('A' for Active; 'I' for Inactive)
REMARK    1  A    between atoms: C3_3  and  O1_8 
REMARK    2  A    between atoms: C6_6  and  N1_7 
ROOT
HETATM    1  C1  UNL     1      14.831   7.527  -4.145  1.00  0.00     0.026 A 
HETATM    2  C2  UNL     1      13.455   7.410  -3.941  1.00  0.00     0.038 A 
HETATM    3  C3  UNL     1      12.886   6.154  -3.791  1.00  0.00     0.065 A 
HETATM    4  C4  UNL     1      13.676   5.010  -3.826  1.00  0.00     0.038 A 
HETATM    5  C5  UNL     1      15.053   5.135  -4.032  1.00  0.00     0.026 A 
HETATM    6  C6  UNL     1      15.636   6.388  -4.244  1.00  0.00     0.005 A 
ENDROOT
BRANCH   6   7
HETATM    7  N1  UNL     1      17.028   6.512  -4.330  1.00  0.00    -0.303 NA
HETATM    8  H5  UNL     1      17.335   7.409  -4.695  1.00  0.00     0.124 HD
HETATM    9  H6  UNL     1      17.482   5.731  -4.791  1.00  0.00     0.124 HD
ENDBRANCH   6   7
BRANCH   3  10
HETATM   10  O1  UNL     1      11.540   6.082  -3.591  1.00  0.00    -0.361 OA
HETATM   11  H7  UNL     1      11.207   5.274  -4.012  1.00  0.00     0.217 HD
ENDBRANCH   3  10
TORSDOF 2
ENDMDL
