HETATM    1  C1  UNL     1      13.037   7.730   3.898  1.00  0.00     0.026 A 
HETATM    2  C2  UNL     1      12.318   6.740   3.224  1.00  0.00     0.038 A 
HETATM    3  C3  UNL     1      10.948   6.634   3.417  1.00  0.00     0.065 A 
HETATM    4  C4  UNL     1      10.281   7.515   4.263  1.00  0.00     0.038 A 
HETATM    5  C5  UNL     1      11.008   8.502   4.935  1.00  0.00     0.026 A 
HETATM    6  C6  UNL     1      12.397   8.587   4.799  1.00  0.00     0.005 A 
HETATM    7  N1  UNL     1      13.098   9.650   5.380  1.00  0.00    -0.303 NA
HETATM    8  H5  UNL     1      13.457   9.443   6.307  1.00  0.00     0.124 HD
HETATM    9  H6  UNL     1      12.604  10.535   5.346  1.00  0.00     0.124 HD
HETATM   10  O1  UNL     1      10.281   5.658   2.740  1.00  0.00    -0.361 OA
HETATM   11  H7  UNL     1       9.329   5.766   2.896  1.00  0.00     0.217 HD
HETATM    1  C1  UNL     1      12.357   6.863   3.173  1.00  0.00     0.026 A 
HETATM    2  C2  UNL     1      13.073   7.830   3.883  1.00  0.00     0.038 A 
HETATM    3  C3  UNL     1      12.412   8.648   4.789  1.00  0.00     0.065 A 
HETATM    4  C4  UNL     1      11.046   8.503   5.008  1.00  0.00     0.038 A 
HETATM    5  C5  UNL     1      10.336   7.534   4.292  1.00  0.00     0.026 A 
HETATM    6  C6  UNL     1      10.973   6.740   3.333  1.00  0.00     0.005 A 
HETATM    7  N1  UNL     1      10.281   5.696   2.710  1.00  0.00    -0.303 NA
HETATM    8  H5  UNL     1       9.859   5.957   1.825  1.00  0.00     0.124 HD
HETATM    9  H6  UNL     1       9.631   5.213   3.321  1.00  0.00     0.124 HD
HETATM   10  O1  UNL     1      13.146   9.576   5.464  1.00  0.00    -0.361 OA
HETATM   11  H7  UNL     1      13.436   9.190   6.305  1.00  0.00     0.217 HD
HETATM    1  C1  UNL     1      10.386   7.434   4.145  1.00  0.00     0.026 A 
HETATM    2  C2  UNL     1      11.121   8.356   4.894  1.00  0.00     0.038 A 
HETATM    3  C3  UNL     1      12.504   8.386   4.780  1.00  0.00     0.065 A 
HETATM    4  C4  UNL     1      13.163   7.519   3.916  1.00  0.00     0.038 A 
HETATM    5  C5  UNL     1      12.420   6.599   3.171  1.00  0.00     0.026 A 
HETATM    6  C6  UNL     1      11.031   6.513   3.315  1.00  0.00     0.005 A 
HETATM    7  N1  UNL     1      10.286   5.673   2.480  1.00  0.00    -0.303 NA
HETATM    8  H5  UNL     1       9.296   5.648   2.705  1.00  0.00     0.124 HD
HETATM    9  H6  UNL     1      10.682   4.744   2.374  1.00  0.00     0.124 HD
HETATM   10  O1  UNL     1      13.186   9.302   5.525  1.00  0.00    -0.361 OA
HETATM   11  H7  UNL     1      13.391   8.908   6.388  1.00  0.00     0.217 HD
HETATM    1  C1  UNL     1      10.910   8.565   4.900  1.00  0.00     0.026 A 
HETATM    2  C2  UNL     1      10.281   7.485   4.276  1.00  0.00     0.038 A 
HETATM    3  C3  UNL     1      11.021   6.628   3.474  1.00  0.00     0.065 A 
HETATM    4  C4  UNL     1      12.386   6.825   3.298  1.00  0.00     0.038 A 
HETATM    5  C5  UNL     1      13.009   7.909   3.925  1.00  0.00     0.026 A 
HETATM    6  C6  UNL     1      12.269   8.817   4.689  1.00  0.00     0.005 A 
HETATM    7  N1  UNL     1      12.919   9.827   5.408  1.00  0.00    -0.303 NA
HETATM    8  H5  UNL     1      13.538   9.478   6.133  1.00  0.00     0.124 HD
HETATM    9  H6  UNL     1      12.298  10.554   5.747  1.00  0.00     0.124 HD
HETATM   10  O1  UNL     1      10.371   5.585   2.885  1.00  0.00    -0.361 OA
HETATM   11  H7  UNL     1      10.092   4.964   3.577  1.00  0.00     0.217 HD
HETATM    1  C1  UNL     1      10.715   7.223   3.622  1.00  0.00     0.026 A 
HETATM    2  C2  UNL     1      11.320   6.442   2.634  1.00  0.00     0.038 A 
HETATM    3  C3  UNL     1      12.703   6.422   2.525  1.00  0.00     0.065 A 
HETATM    4  C4  UNL     1      13.493   7.159   3.400  1.00  0.00     0.038 A 
HETATM    5  C5  UNL     1      12.881   7.939   4.385  1.00  0.00     0.026 A 
HETATM    6  C6  UNL     1      11.487   8.018   4.474  1.00  0.00     0.005 A 
HETATM    7  N1  UNL     1      10.886   8.705   5.535  1.00  0.00    -0.303 NA
HETATM    8  H5  UNL     1      10.074   9.249   5.261  1.00  0.00     0.124 HD
HETATM    9  H6  UNL     1      11.538   9.242   6.098  1.00  0.00     0.124 HD
HETATM   10  O1  UNL     1      13.255   5.646   1.550  1.00  0.00    -0.361 OA
HETATM   11  H7  UNL     1      13.019   4.720   1.721  1.00  0.00     0.217 HD
HETATM    1  C1  UNL     1      17.385   8.463  15.003  1.00  0.00     0.026 A 
HETATM    2  C2  UNL     1      16.099   8.447  15.546  1.00  0.00     0.038 A 
HETATM    3  C3  UNL     1      15.098   7.716  14.921  1.00  0.00     0.065 A 
HETATM    4  C4  UNL     1      15.368   6.986  13.769  1.00  0.00     0.038 A 
HETATM    5  C5  UNL     1      16.658   7.009  13.230  1.00  0.00     0.026 A 
HETATM    6  C6  UNL     1      17.665   7.786  13.812  1.00  0.00     0.005 A 
HETATM    7  N1  UNL     1      18.979   7.708  13.336  1.00  0.00    -0.303 NA
HETATM    8  H5  UNL     1      19.423   8.613  13.214  1.00  0.00     0.124 HD
HETATM    9  H6  UNL     1      19.086   7.113  12.522  1.00  0.00     0.124 HD
HETATM   10  O1  UNL     1      13.857   7.723  15.484  1.00  0.00    -0.361 OA
HETATM   11  H7  UNL     1      13.289   8.323  14.974  1.00  0.00     0.217 HD
HETATM    1  C1  UNL     1      15.399   7.055  13.802  1.00  0.00     0.026 A 
HETATM    2  C2  UNL     1      16.666   7.011  13.216  1.00  0.00     0.038 A 
HETATM    3  C3  UNL     1      17.716   7.711  13.795  1.00  0.00     0.065 A 
HETATM    4  C4  UNL     1      17.521   8.442  14.962  1.00  0.00     0.038 A 
HETATM    5  C5  UNL     1      16.250   8.482  15.541  1.00  0.00     0.026 A 
HETATM    6  C6  UNL     1      15.167   7.832  14.941  1.00  0.00     0.005 A 
HETATM    7  N1  UNL     1      13.928   7.779  15.591  1.00  0.00    -0.303 NA
HETATM    8  H5  UNL     1      14.000   7.735  16.603  1.00  0.00     0.124 HD
HETATM    9  H6  UNL     1      13.299   7.076  15.217  1.00  0.00     0.124 HD
HETATM   10  O1  UNL     1      18.937   7.641  13.195  1.00  0.00    -0.361 OA
HETATM   11  H7  UNL     1      19.242   8.543  13.007  1.00  0.00     0.217 HD
HETATM    1  C1  UNL     1      15.191   9.747  13.192  1.00  0.00     0.026 A 
HETATM    2  C2  UNL     1      15.981   8.705  12.703  1.00  0.00     0.038 A 
HETATM    3  C3  UNL     1      16.038   7.503  13.393  1.00  0.00     0.065 A 
HETATM    4  C4  UNL     1      15.302   7.320  14.559  1.00  0.00     0.038 A 
HETATM    5  C5  UNL     1      14.514   8.369  15.043  1.00  0.00     0.026 A 
HETATM    6  C6  UNL     1      14.490   9.607  14.393  1.00  0.00     0.005 A 
HETATM    7  N1  UNL     1      13.609  10.608  14.817  1.00  0.00    -0.303 NA
HETATM    8  H5  UNL     1      13.364  11.271  14.088  1.00  0.00     0.124 HD
HETATM    9  H6  UNL     1      13.891  11.066  15.677  1.00  0.00     0.124 HD
HETATM   10  O1  UNL     1      16.818   6.509  12.882  1.00  0.00    -0.361 OA
HETATM   11  H7  UNL     1      16.365   6.122  12.116  1.00  0.00     0.217 HD
HETATM    1  C1  UNL     1      15.272   8.644  15.844  1.00  0.00     0.026 A 
HETATM    2  C2  UNL     1      14.806   7.744  14.882  1.00  0.00     0.038 A 
HETATM    3  C3  UNL     1      15.709   7.099  14.050  1.00  0.00     0.065 A 
HETATM    4  C4  UNL     1      17.075   7.327  14.174  1.00  0.00     0.038 A 
HETATM    5  C5  UNL     1      17.534   8.229  15.138  1.00  0.00     0.026 A 
HETATM    6  C6  UNL     1      16.636   8.934  15.946  1.00  0.00     0.005 A 
HETATM    7  N1  UNL     1      17.109   9.743  16.986  1.00  0.00    -0.303 NA
HETATM    8  H5  UNL     1      16.799   9.447  17.906  1.00  0.00     0.124 HD
HETATM    9  H6  UNL     1      16.966  10.735  16.830  1.00  0.00     0.124 HD
HETATM   10  O1  UNL     1      15.215   6.226  13.127  1.00  0.00    -0.361 OA
HETATM   11  H7  UNL     1      14.260   6.378  13.037  1.00  0.00     0.217 HD
HETATM    1  C1  UNL     1      20.319   3.012   2.243  1.00  0.00     0.026 A 
HETATM    2  C2  UNL     1      21.070   3.515   3.308  1.00  0.00     0.038 A 
HETATM    3  C3  UNL     1      21.755   2.641   4.140  1.00  0.00     0.065 A 
HETATM    4  C4  UNL     1      21.714   1.270   3.914  1.00  0.00     0.038 A 
HETATM    5  C5  UNL     1      20.959   0.773   2.847  1.00  0.00     0.026 A 
HETATM    6  C6  UNL     1      20.215   1.633   2.033  1.00  0.00     0.005 A 
HETATM    7  N1  UNL     1      19.561   1.140   0.898  1.00  0.00    -0.303 NA
HETATM    8  H5  UNL     1      19.838   1.599   0.036  1.00  0.00     0.124 HD
HETATM    9  H6  UNL     1      18.553   1.081   0.999  1.00  0.00     0.124 HD
HETATM   10  O1  UNL     1      22.478   3.171   5.166  1.00  0.00    -0.361 OA
HETATM   11  H7  UNL     1      23.107   3.815   4.802  1.00  0.00     0.217 HD
HETATM    1  C1  UNL     1      21.888   1.441   4.375  1.00  0.00     0.026 A 
HETATM    2  C2  UNL     1      22.017   2.823   4.220  1.00  0.00     0.038 A 
HETATM    3  C3  UNL     1      21.340   3.467   3.195  1.00  0.00     0.065 A 
HETATM    4  C4  UNL     1      20.520   2.751   2.329  1.00  0.00     0.038 A 
HETATM    5  C5  UNL     1      20.397   1.368   2.489  1.00  0.00     0.026 A 
HETATM    6  C6  UNL     1      21.118   0.693   3.480  1.00  0.00     0.005 A 
HETATM    7  N1  UNL     1      20.897  -0.670   3.708  1.00  0.00    -0.303 NA
HETATM    8  H5  UNL     1      21.327  -1.016   4.560  1.00  0.00     0.124 HD
HETATM    9  H6  UNL     1      21.098  -1.258   2.906  1.00  0.00     0.124 HD
HETATM   10  O1  UNL     1      21.489   4.816   3.079  1.00  0.00    -0.361 OA
HETATM   11  H7  UNL     1      22.052   5.129   3.805  1.00  0.00     0.217 HD
HETATM    1  C1  UNL     1      15.299   9.983  13.421  1.00  0.00     0.026 A 
HETATM    2  C2  UNL     1      14.479   9.420  14.402  1.00  0.00     0.038 A 
HETATM    3  C3  UNL     1      14.653   8.092  14.763  1.00  0.00     0.065 A 
HETATM    4  C4  UNL     1      15.647   7.321  14.170  1.00  0.00     0.038 A 
HETATM    5  C5  UNL     1      16.462   7.891  13.188  1.00  0.00     0.026 A 
HETATM    6  C6  UNL     1      16.264   9.210  12.769  1.00  0.00     0.005 A 
HETATM    7  N1  UNL     1      17.159   9.807  11.874  1.00  0.00    -0.303 NA
HETATM    8  H5  UNL     1      18.134   9.650  12.107  1.00  0.00     0.124 HD
HETATM    9  H6  UNL     1      16.960  10.784  11.684  1.00  0.00     0.124 HD
HETATM   10  O1  UNL     1      13.836   7.580  15.726  1.00  0.00    -0.361 OA
HETATM   11  H7  UNL     1      13.016   8.099  15.745  1.00  0.00     0.217 HD
HETATM    1  C1  UNL     1      20.998   3.477   3.070  1.00  0.00     0.026 A 
HETATM    2  C2  UNL     1      20.260   2.927   2.020  1.00  0.00     0.038 A 
HETATM    3  C3  UNL     1      20.250   1.552   1.832  1.00  0.00     0.065 A 
HETATM    4  C4  UNL     1      20.953   0.715   2.691  1.00  0.00     0.038 A 
HETATM    5  C5  UNL     1      21.690   1.272   3.740  1.00  0.00     0.026 A 
HETATM    6  C6  UNL     1      21.761   2.659   3.910  1.00  0.00     0.005 A 
HETATM    7  N1  UNL     1      22.402   3.200   5.030  1.00  0.00    -0.303 NA
HETATM    8  H5  UNL     1      23.026   3.970   4.810  1.00  0.00     0.124 HD
HETATM    9  H6  UNL     1      22.840   2.507   5.627  1.00  0.00     0.124 HD
HETATM   10  O1  UNL     1      19.516   1.054   0.797  1.00  0.00    -0.361 OA
HETATM   11  H7  UNL     1      18.574   1.136   1.018  1.00  0.00     0.217 HD
HETATM    1  C1  UNL     1      17.096   7.471  14.283  1.00  0.00     0.026 A 
HETATM    2  C2  UNL     1      17.519   8.356  15.276  1.00  0.00     0.038 A 
HETATM    3  C3  UNL     1      16.581   8.973  16.093  1.00  0.00     0.065 A 
HETATM    4  C4  UNL     1      15.225   8.705  15.941  1.00  0.00     0.038 A 
HETATM    5  C5  UNL     1      14.809   7.819  14.943  1.00  0.00     0.026 A 
HETATM    6  C6  UNL     1      15.734   7.233  14.073  1.00  0.00     0.005 A 
HETATM    7  N1  UNL     1      15.321   6.258  13.158  1.00  0.00    -0.303 NA
HETATM    8  H5  UNL     1      14.383   6.407  12.799  1.00  0.00     0.124 HD
HETATM    9  H6  UNL     1      15.465   5.307  13.478  1.00  0.00     0.124 HD
HETATM   10  O1  UNL     1      17.034   9.828  17.052  1.00  0.00    -0.361 OA
HETATM   11  H7  UNL     1      16.706  10.720  16.852  1.00  0.00     0.217 HD
HETATM    1  C1  UNL     1      22.094   2.611   4.166  1.00  0.00     0.026 A 
HETATM    2  C2  UNL     1      21.794   1.273   4.430  1.00  0.00     0.038 A 
HETATM    3  C3  UNL     1      21.113   0.520   3.483  1.00  0.00     0.065 A 
HETATM    4  C4  UNL     1      20.742   1.082   2.267  1.00  0.00     0.038 A 
HETATM    5  C5  UNL     1      21.045   2.422   2.009  1.00  0.00     0.026 A 
HETATM    6  C6  UNL     1      21.678   3.212   2.974  1.00  0.00     0.005 A 
HETATM    7  N1  UNL     1      22.083   4.516   2.663  1.00  0.00    -0.303 NA
HETATM    8  H5  UNL     1      21.920   5.183   3.411  1.00  0.00     0.124 HD
HETATM    9  H6  UNL     1      21.742   4.848   1.768  1.00  0.00     0.124 HD
HETATM   10  O1  UNL     1      20.841  -0.782   3.778  1.00  0.00    -0.361 OA
HETATM   11  H7  UNL     1      19.883  -0.920   3.713  1.00  0.00     0.217 HD
HETATM    1  C1  UNL     1      14.412   9.596  14.411  1.00  0.00     0.026 A 
HETATM    2  C2  UNL     1      15.072  10.174  13.325  1.00  0.00     0.038 A 
HETATM    3  C3  UNL     1      15.967   9.416  12.583  1.00  0.00     0.065 A 
HETATM    4  C4  UNL     1      16.200   8.083  12.901  1.00  0.00     0.038 A 
HETATM    5  C5  UNL     1      15.536   7.512  13.991  1.00  0.00     0.026 A 
HETATM    6  C6  UNL     1      14.675   8.275  14.786  1.00  0.00     0.005 A 
HETATM    7  N1  UNL     1      13.926   7.666  15.799  1.00  0.00    -0.303 NA
HETATM    8  H5  UNL     1      13.474   6.805  15.510  1.00  0.00     0.124 HD
HETATM    9  H6  UNL     1      13.288   8.297  16.273  1.00  0.00     0.124 HD
HETATM   10  O1  UNL     1      16.590  10.015  11.528  1.00  0.00    -0.361 OA
HETATM   11  H7  UNL     1      16.273   9.605  10.708  1.00  0.00     0.217 HD
HETATM    1  C1  UNL     1      22.803   1.423   1.500  1.00  0.00     0.026 A 
HETATM    2  C2  UNL     1      22.397   0.309   2.239  1.00  0.00     0.038 A 
HETATM    3  C3  UNL     1      21.204   0.351   2.947  1.00  0.00     0.065 A 
HETATM    4  C4  UNL     1      20.402   1.486   2.915  1.00  0.00     0.038 A 
HETATM    5  C5  UNL     1      20.816   2.598   2.175  1.00  0.00     0.026 A 
HETATM    6  C6  UNL     1      22.042   2.596   1.502  1.00  0.00     0.005 A 
HETATM    7  N1  UNL     1      22.391   3.665   0.669  1.00  0.00    -0.303 NA
HETATM    8  H5  UNL     1      23.342   3.994   0.805  1.00  0.00     0.124 HD
HETATM    9  H6  UNL     1      21.716   4.422   0.670  1.00  0.00     0.124 HD
HETATM   10  O1  UNL     1      20.842  -0.757   3.653  1.00  0.00    -0.361 OA
HETATM   11  H7  UNL     1      20.800  -1.512   3.044  1.00  0.00     0.217 HD
HETATM    1  C1  UNL     1      21.946   0.318   2.108  1.00  0.00     0.026 A 
HETATM    2  C2  UNL     1      22.695   1.358   1.553  1.00  0.00     0.038 A 
HETATM    3  C3  UNL     1      22.947   2.499   2.301  1.00  0.00     0.065 A 
HETATM    4  C4  UNL     1      22.476   2.609   3.605  1.00  0.00     0.038 A 
HETATM    5  C5  UNL     1      21.726   1.564   4.153  1.00  0.00     0.026 A 
HETATM    6  C6  UNL     1      21.412   0.432   3.395  1.00  0.00     0.005 A 
HETATM    7  N1  UNL     1      20.765  -0.657   3.989  1.00  0.00    -0.303 NA
HETATM    8  H5  UNL     1      19.943  -0.970   3.482  1.00  0.00     0.124 HD
HETATM    9  H6  UNL     1      20.585  -0.537   4.980  1.00  0.00     0.124 HD
HETATM   10  O1  UNL     1      23.683   3.490   1.725  1.00  0.00    -0.361 OA
HETATM   11  H7  UNL     1      24.472   3.095   1.320  1.00  0.00     0.217 HD
HETATM    1  C1  UNL     1      21.081   0.619   1.799  1.00  0.00     0.026 A 
HETATM    2  C2  UNL     1      22.446   0.448   2.041  1.00  0.00     0.038 A 
HETATM    3  C3  UNL     1      23.101   1.302   2.917  1.00  0.00     0.065 A 
HETATM    4  C4  UNL     1      22.407   2.316   3.568  1.00  0.00     0.038 A 
HETATM    5  C5  UNL     1      21.041   2.481   3.320  1.00  0.00     0.026 A 
HETATM    6  C6  UNL     1      20.377   1.668   2.396  1.00  0.00     0.005 A 
HETATM    7  N1  UNL     1      18.989   1.764   2.244  1.00  0.00    -0.303 NA
HETATM    8  H5  UNL     1      18.704   2.288   1.422  1.00  0.00     0.124 HD
HETATM    9  H6  UNL     1      18.504   2.066   3.082  1.00  0.00     0.124 HD
HETATM   10  O1  UNL     1      24.432   1.101   3.129  1.00  0.00    -0.361 OA
HETATM   11  H7  UNL     1      24.578   0.158   3.305  1.00  0.00     0.217 HD
HETATM    1  C1  UNL     1      22.237   3.076   1.731  1.00  0.00     0.026 A 
HETATM    2  C2  UNL     1      20.861   2.959   1.935  1.00  0.00     0.038 A 
HETATM    3  C3  UNL     1      20.292   1.703   2.085  1.00  0.00     0.065 A 
HETATM    4  C4  UNL     1      21.082   0.559   2.050  1.00  0.00     0.038 A 
HETATM    5  C5  UNL     1      22.459   0.684   1.844  1.00  0.00     0.026 A 
HETATM    6  C6  UNL     1      23.042   1.937   1.632  1.00  0.00     0.005 A 
HETATM    7  N1  UNL     1      24.434   2.061   1.546  1.00  0.00    -0.303 NA
HETATM    8  H5  UNL     1      24.741   2.958   1.181  1.00  0.00     0.124 HD
HETATM    9  H6  UNL     1      24.888   1.280   1.085  1.00  0.00     0.124 HD
HETATM   10  O1  UNL     1      18.946   1.631   2.285  1.00  0.00    -0.361 OA
HETATM   11  H7  UNL     1      18.613   0.823   1.864  1.00  0.00     0.217 HD
