MODEL 1
REMARK VINA RESULT:      -3.7      0.000      0.000
REMARK  2 active torsions:
REMARK  status: ('A' for Active; 'I' for Inactive)
REMARK    1  A    between atoms: C3_3  and  O1_8 
REMARK    2  A    between atoms: C6_6  and  N1_7 
ROOT
HETATM    1  C1  UNL     1     -10.930  13.173  -3.268  1.00  0.00     0.026 A 
HETATM    2  C2  UNL     1     -11.967  12.569  -3.983  1.00  0.00     0.038 A 
HETATM    3  C3  UNL     1     -11.725  11.399  -4.689  1.00  0.00     0.065 A 
HETATM    4  C4  UNL     1     -10.463  10.814  -4.678  1.00  0.00     0.038 A 
HETATM    5  C5  UNL     1      -9.430  11.425  -3.961  1.00  0.00     0.026 A 
HETATM    6  C6  UNL     1      -9.640  12.635  -3.292  1.00  0.00     0.005 A 
ENDROOT
BRANCH   6   7
HETATM    7  N1  UNL     1      -8.635  13.175  -2.481  1.00  0.00    -0.303 NA
HETATM    8  H5  UNL     1      -7.992  13.782  -2.978  1.00  0.00     0.124 HD
HETATM    9  H6  UNL     1      -8.154  12.487  -1.911  1.00  0.00     0.124 HD
ENDBRANCH   6   7
BRANCH   3  10
HETATM   10  O1  UNL     1     -12.762  10.840  -5.372  1.00  0.00    -0.361 OA
HETATM   11  H7  UNL     1     -13.589  11.250  -5.071  1.00  0.00     0.217 HD
ENDBRANCH   3  10
TORSDOF 2
ENDMDL
MODEL 2
REMARK VINA RESULT:      -3.5      1.565      2.311
REMARK  2 active torsions:
REMARK  status: ('A' for Active; 'I' for Inactive)
REMARK    1  A    between atoms: C3_3  and  O1_8 
REMARK    2  A    between atoms: C6_6  and  N1_7 
ROOT
HETATM    1  C1  UNL     1      -9.746  12.565  -3.490  1.00  0.00     0.026 A 
HETATM    2  C2  UNL     1      -9.388  11.352  -4.083  1.00  0.00     0.038 A 
HETATM    3  C3  UNL     1     -10.359  10.575  -4.698  1.00  0.00     0.065 A 
HETATM    4  C4  UNL     1     -11.682  11.000  -4.745  1.00  0.00     0.038 A 
HETATM    5  C5  UNL     1     -12.033  12.215  -4.149  1.00  0.00     0.026 A 
HETATM    6  C6  UNL     1     -11.080  12.984  -3.473  1.00  0.00     0.005 A 
ENDROOT
BRANCH   6   7
HETATM    7  N1  UNL     1     -11.415  14.252  -2.984  1.00  0.00    -0.303 NA
HETATM    8  H5  UNL     1     -10.825  14.563  -2.218  1.00  0.00     0.124 HD
HETATM    9  H6  UNL     1     -12.403  14.366  -2.782  1.00  0.00     0.124 HD
ENDBRANCH   6   7
BRANCH   3  10
HETATM   10  O1  UNL     1      -9.970   9.400  -5.267  1.00  0.00    -0.361 OA
HETATM   11  H7  UNL     1      -9.000   9.364  -5.271  1.00  0.00     0.217 HD
ENDBRANCH   3  10
TORSDOF 2
ENDMDL
MODEL 3
REMARK VINA RESULT:      -3.5      2.301      2.860
REMARK  2 active torsions:
REMARK  status: ('A' for Active; 'I' for Inactive)
REMARK    1  A    between atoms: C3_3  and  O1_8 
REMARK    2  A    between atoms: C6_6  and  N1_7 
ROOT
HETATM    1  C1  UNL     1     -11.609  10.979  -4.797  1.00  0.00     0.026 A 
HETATM    2  C2  UNL     1     -12.039  12.175  -4.218  1.00  0.00     0.038 A 
HETATM    3  C3  UNL     1     -11.128  12.982  -3.551  1.00  0.00     0.065 A 
HETATM    4  C4  UNL     1      -9.789  12.619  -3.468  1.00  0.00     0.038 A 
HETATM    5  C5  UNL     1      -9.366  11.420  -4.049  1.00  0.00     0.026 A 
HETATM    6  C6  UNL     1     -10.280  10.565  -4.674  1.00  0.00     0.005 A 
ENDROOT
BRANCH   6   7
HETATM    7  N1  UNL     1      -9.829   9.428  -5.355  1.00  0.00    -0.303 NA
HETATM    8  H5  UNL     1      -8.912   9.111  -5.056  1.00  0.00     0.124 HD
HETATM    9  H6  UNL     1      -9.904   9.498  -6.364  1.00  0.00     0.124 HD
ENDBRANCH   6   7
BRANCH   3  10
HETATM   10  O1  UNL     1     -11.586  14.142  -3.002  1.00  0.00    -0.361 OA
HETATM   11  H7  UNL     1     -11.355  14.877  -3.592  1.00  0.00     0.217 HD
ENDBRANCH   3  10
TORSDOF 2
ENDMDL
MODEL 4
REMARK VINA RESULT:      -3.5     17.981     18.398
REMARK  2 active torsions:
REMARK  status: ('A' for Active; 'I' for Inactive)
REMARK    1  A    between atoms: C3_3  and  O1_8 
REMARK    2  A    between atoms: C6_6  and  N1_7 
ROOT
HETATM    1  C1  UNL     1     -20.393   1.588   6.665  1.00  0.00     0.026 A 
HETATM    2  C2  UNL     1     -20.224   1.543   5.279  1.00  0.00     0.038 A 
HETATM    3  C3  UNL     1     -21.012   0.691   4.518  1.00  0.00     0.065 A 
HETATM    4  C4  UNL     1     -21.979  -0.107   5.120  1.00  0.00     0.038 A 
HETATM    5  C5  UNL     1     -22.141  -0.057   6.507  1.00  0.00     0.026 A 
HETATM    6  C6  UNL     1     -21.318   0.752   7.298  1.00  0.00     0.005 A 
ENDROOT
BRANCH   6   7
HETATM    7  N1  UNL     1     -21.566   0.884   8.668  1.00  0.00    -0.303 NA
HETATM    8  H5  UNL     1     -21.145   1.711   9.081  1.00  0.00     0.124 HD
HETATM    9  H6  UNL     1     -21.373   0.044   9.204  1.00  0.00     0.124 HD
ENDBRANCH   6   7
BRANCH   3  10
HETATM   10  O1  UNL     1     -20.819   0.678   3.169  1.00  0.00    -0.361 OA
HETATM   11  H7  UNL     1     -19.892   0.452   2.991  1.00  0.00     0.217 HD
ENDBRANCH   3  10
TORSDOF 2
ENDMDL
MODEL 5
REMARK VINA RESULT:      -3.4     17.969     18.392
REMARK  2 active torsions:
REMARK  status: ('A' for Active; 'I' for Inactive)
REMARK    1  A    between atoms: C3_3  and  O1_8 
REMARK    2  A    between atoms: C6_6  and  N1_7 
ROOT
HETATM    1  C1  UNL     1     -22.128  -0.042   6.496  1.00  0.00     0.026 A 
HETATM    2  C2  UNL     1     -21.936  -0.081   5.114  1.00  0.00     0.038 A 
HETATM    3  C3  UNL     1     -20.976   0.732   4.529  1.00  0.00     0.065 A 
HETATM    4  C4  UNL     1     -20.192   1.574   5.309  1.00  0.00     0.038 A 
HETATM    5  C5  UNL     1     -20.390   1.609   6.692  1.00  0.00     0.026 A 
HETATM    6  C6  UNL     1     -21.392   0.841   7.293  1.00  0.00     0.005 A 
ENDROOT
BRANCH   6   7
HETATM    7  N1  UNL     1     -21.503   0.792   8.687  1.00  0.00    -0.303 NA
HETATM    8  H5  UNL     1     -22.091   1.523   9.075  1.00  0.00     0.124 HD
HETATM    9  H6  UNL     1     -20.612   0.718   9.167  1.00  0.00     0.124 HD
ENDBRANCH   6   7
BRANCH   3  10
HETATM   10  O1  UNL     1     -20.818   0.663   3.177  1.00  0.00    -0.361 OA
HETATM   11  H7  UNL     1     -21.692   0.564   2.768  1.00  0.00     0.217 HD
ENDBRANCH   3  10
TORSDOF 2
ENDMDL
MODEL 6
REMARK VINA RESULT:      -3.4      1.626      2.039
REMARK  2 active torsions:
REMARK  status: ('A' for Active; 'I' for Inactive)
REMARK    1  A    between atoms: C3_3  and  O1_8 
REMARK    2  A    between atoms: C6_6  and  N1_7 
ROOT
HETATM    1  C1  UNL     1     -11.482  11.840  -4.021  1.00  0.00     0.026 A 
HETATM    2  C2  UNL     1     -11.227  10.657  -4.717  1.00  0.00     0.038 A 
HETATM    3  C3  UNL     1      -9.921  10.212  -4.864  1.00  0.00     0.065 A 
HETATM    4  C4  UNL     1      -8.864  10.927  -4.310  1.00  0.00     0.038 A 
HETATM    5  C5  UNL     1      -9.126  12.112  -3.616  1.00  0.00     0.026 A 
HETATM    6  C6  UNL     1     -10.430  12.606  -3.508  1.00  0.00     0.005 A 
ENDROOT
BRANCH   6   7
HETATM    7  N1  UNL     1     -10.695  13.726  -2.712  1.00  0.00    -0.303 NA
HETATM    8  H5  UNL     1      -9.893  14.047  -2.180  1.00  0.00     0.124 HD
HETATM    9  H6  UNL     1     -11.527  13.634  -2.139  1.00  0.00     0.124 HD
ENDBRANCH   6   7
BRANCH   3  10
HETATM   10  O1  UNL     1      -9.714   9.052  -5.547  1.00  0.00    -0.361 OA
HETATM   11  H7  UNL     1     -10.561   8.586  -5.631  1.00  0.00     0.217 HD
ENDBRANCH   3  10
TORSDOF 2
ENDMDL
MODEL 7
REMARK VINA RESULT:      -3.2     17.607     18.024
REMARK  2 active torsions:
REMARK  status: ('A' for Active; 'I' for Inactive)
REMARK    1  A    between atoms: C3_3  and  O1_8 
REMARK    2  A    between atoms: C6_6  and  N1_7 
ROOT
HETATM    1  C1  UNL     1     -19.999   2.224   5.305  1.00  0.00     0.026 A 
HETATM    2  C2  UNL     1     -19.947   2.575   6.656  1.00  0.00     0.038 A 
HETATM    3  C3  UNL     1     -20.639   1.818   7.591  1.00  0.00     0.065 A 
HETATM    4  C4  UNL     1     -21.372   0.703   7.196  1.00  0.00     0.038 A 
HETATM    5  C5  UNL     1     -21.421   0.359   5.842  1.00  0.00     0.026 A 
HETATM    6  C6  UNL     1     -20.778   1.144   4.879  1.00  0.00     0.005 A 
ENDROOT
BRANCH   6   7
HETATM    7  N1  UNL     1     -20.733   0.725   3.544  1.00  0.00    -0.303 NA
HETATM    8  H5  UNL     1     -20.357   1.423   2.910  1.00  0.00     0.124 HD
HETATM    9  H6  UNL     1     -21.605   0.328   3.209  1.00  0.00     0.124 HD
ENDBRANCH   6   7
BRANCH   3  10
HETATM   10  O1  UNL     1     -20.561   2.191   8.899  1.00  0.00    -0.361 OA
HETATM   11  H7  UNL     1     -19.970   2.958   8.968  1.00  0.00     0.217 HD
ENDBRANCH   3  10
TORSDOF 2
ENDMDL
MODEL 8
REMARK VINA RESULT:      -3.2     17.185     17.549
REMARK  2 active torsions:
REMARK  status: ('A' for Active; 'I' for Inactive)
REMARK    1  A    between atoms: C3_3  and  O1_8 
REMARK    2  A    between atoms: C6_6  and  N1_7 
ROOT
HETATM    1  C1  UNL     1     -22.065   2.164   6.937  1.00  0.00     0.026 A 
HETATM    2  C2  UNL     1     -21.830   3.506   6.629  1.00  0.00     0.038 A 
HETATM    3  C3  UNL     1     -20.602   3.887   6.108  1.00  0.00     0.065 A 
HETATM    4  C4  UNL     1     -19.608   2.943   5.874  1.00  0.00     0.038 A 
HETATM    5  C5  UNL     1     -19.850   1.602   6.186  1.00  0.00     0.026 A 
HETATM    6  C6  UNL     1     -21.060   1.208   6.767  1.00  0.00     0.005 A 
ENDROOT
BRANCH   6   7
HETATM    7  N1  UNL     1     -21.337  -0.150   6.964  1.00  0.00    -0.303 NA
HETATM    8  H5  UNL     1     -22.314  -0.342   7.161  1.00  0.00     0.124 HD
HETATM    9  H6  UNL     1     -20.713  -0.604   7.623  1.00  0.00     0.124 HD
ENDBRANCH   6   7
BRANCH   3  10
HETATM   10  O1  UNL     1     -20.413   5.205   5.818  1.00  0.00    -0.361 OA
HETATM   11  H7  UNL     1     -20.592   5.343   4.874  1.00  0.00     0.217 HD
ENDBRANCH   3  10
TORSDOF 2
ENDMDL
MODEL 9
REMARK VINA RESULT:      -3.2     17.578     18.065
REMARK  2 active torsions:
REMARK  status: ('A' for Active; 'I' for Inactive)
REMARK    1  A    between atoms: C3_3  and  O1_8 
REMARK    2  A    between atoms: C6_6  and  N1_7 
ROOT
HETATM    1  C1  UNL     1     -23.144   1.698   4.927  1.00  0.00     0.026 A 
HETATM    2  C2  UNL     1     -22.079   1.871   5.814  1.00  0.00     0.038 A 
HETATM    3  C3  UNL     1     -20.830   1.357   5.497  1.00  0.00     0.065 A 
HETATM    4  C4  UNL     1     -20.624   0.686   4.296  1.00  0.00     0.038 A 
HETATM    5  C5  UNL     1     -21.695   0.516   3.414  1.00  0.00     0.026 A 
HETATM    6  C6  UNL     1     -22.975   0.975   3.743  1.00  0.00     0.005 A 
ENDROOT
BRANCH   6   7
HETATM    7  N1  UNL     1     -24.011   0.905   2.804  1.00  0.00    -0.303 NA
HETATM    8  H5  UNL     1     -24.412   1.809   2.573  1.00  0.00     0.124 HD
HETATM    9  H6  UNL     1     -24.719   0.213   3.025  1.00  0.00     0.124 HD
ENDBRANCH   6   7
BRANCH   3  10
HETATM   10  O1  UNL     1     -19.816   1.549   6.387  1.00  0.00    -0.361 OA
HETATM   11  H7  UNL     1     -19.809   0.808   7.013  1.00  0.00     0.217 HD
ENDBRANCH   3  10
TORSDOF 2
ENDMDL
MODEL 10
REMARK VINA RESULT:      -3.0      2.692      3.092
REMARK  2 active torsions:
REMARK  status: ('A' for Active; 'I' for Inactive)
REMARK    1  A    between atoms: C3_3  and  O1_8 
REMARK    2  A    between atoms: C6_6  and  N1_7 
ROOT
HETATM    1  C1  UNL     1     -12.096  11.975  -4.675  1.00  0.00     0.026 A 
HETATM    2  C2  UNL     1     -11.374  10.790  -4.519  1.00  0.00     0.038 A 
HETATM    3  C3  UNL     1     -10.406  10.447  -5.453  1.00  0.00     0.065 A 
HETATM    4  C4  UNL     1     -10.138  11.280  -6.533  1.00  0.00     0.038 A 
HETATM    5  C5  UNL     1     -10.866  12.464  -6.683  1.00  0.00     0.026 A 
HETATM    6  C6  UNL     1     -11.885  12.797  -5.786  1.00  0.00     0.005 A 
ENDROOT
BRANCH   6   7
HETATM    7  N1  UNL     1     -12.525  14.039  -5.876  1.00  0.00    -0.303 NA
HETATM    8  H5  UNL     1     -13.531  13.989  -5.746  1.00  0.00     0.124 HD
HETATM    9  H6  UNL     1     -12.268  14.574  -6.698  1.00  0.00     0.124 HD
ENDBRANCH   6   7
BRANCH   3  10
HETATM   10  O1  UNL     1      -9.721   9.284  -5.265  1.00  0.00    -0.361 OA
HETATM   11  H7  UNL     1     -10.291   8.663  -4.784  1.00  0.00     0.217 HD
ENDBRANCH   3  10
TORSDOF 2
ENDMDL
MODEL 11
REMARK VINA RESULT:      -2.9     18.106     18.699
REMARK  2 active torsions:
REMARK  status: ('A' for Active; 'I' for Inactive)
REMARK    1  A    between atoms: C3_3  and  O1_8 
REMARK    2  A    between atoms: C6_6  and  N1_7 
ROOT
HETATM    1  C1  UNL     1     -26.768   1.955  -7.577  1.00  0.00     0.026 A 
HETATM    2  C2  UNL     1     -27.160   3.131  -8.220  1.00  0.00     0.038 A 
HETATM    3  C3  UNL     1     -27.088   4.341  -7.545  1.00  0.00     0.065 A 
HETATM    4  C4  UNL     1     -26.614   4.396  -6.239  1.00  0.00     0.038 A 
HETATM    5  C5  UNL     1     -26.224   3.215  -5.601  1.00  0.00     0.026 A 
HETATM    6  C6  UNL     1     -26.344   1.979  -6.245  1.00  0.00     0.005 A 
ENDROOT
BRANCH   6   7
HETATM    7  N1  UNL     1     -25.841   0.819  -5.644  1.00  0.00    -0.303 NA
HETATM    8  H5  UNL     1     -26.010  -0.025  -6.182  1.00  0.00     0.124 HD
HETATM    9  H6  UNL     1     -26.104   0.715  -4.669  1.00  0.00     0.124 HD
ENDBRANCH   6   7
BRANCH   3  10
HETATM   10  O1  UNL     1     -27.477   5.467  -8.207  1.00  0.00    -0.361 OA
HETATM   11  H7  UNL     1     -26.698   6.028  -8.348  1.00  0.00     0.217 HD
ENDBRANCH   3  10
TORSDOF 2
ENDMDL
MODEL 12
REMARK VINA RESULT:      -2.9     17.651     18.379
REMARK  2 active torsions:
REMARK  status: ('A' for Active; 'I' for Inactive)
REMARK    1  A    between atoms: C3_3  and  O1_8 
REMARK    2  A    between atoms: C6_6  and  N1_7 
ROOT
HETATM    1  C1  UNL     1     -26.071   3.860  -8.044  1.00  0.00     0.026 A 
HETATM    2  C2  UNL     1     -25.939   4.599  -6.866  1.00  0.00     0.038 A 
HETATM    3  C3  UNL     1     -26.153   3.984  -5.641  1.00  0.00     0.065 A 
HETATM    4  C4  UNL     1     -26.480   2.635  -5.573  1.00  0.00     0.038 A 
HETATM    5  C5  UNL     1     -26.611   1.901  -6.756  1.00  0.00     0.026 A 
HETATM    6  C6  UNL     1     -26.458   2.517  -8.002  1.00  0.00     0.005 A 
ENDROOT
BRANCH   6   7
HETATM    7  N1  UNL     1     -26.473   1.750  -9.173  1.00  0.00    -0.303 NA
HETATM    8  H5  UNL     1     -26.026   0.844  -9.074  1.00  0.00     0.124 HD
HETATM    9  H6  UNL     1     -26.152   2.251  -9.995  1.00  0.00     0.124 HD
ENDBRANCH   6   7
BRANCH   3  10
HETATM   10  O1  UNL     1     -26.013   4.739  -4.515  1.00  0.00    -0.361 OA
HETATM   11  H7  UNL     1     -26.583   5.521  -4.593  1.00  0.00     0.217 HD
ENDBRANCH   3  10
TORSDOF 2
ENDMDL
MODEL 13
REMARK VINA RESULT:      -2.8     17.551     18.207
REMARK  2 active torsions:
REMARK  status: ('A' for Active; 'I' for Inactive)
REMARK    1  A    between atoms: C3_3  and  O1_8 
REMARK    2  A    between atoms: C6_6  and  N1_7 
ROOT
HETATM    1  C1  UNL     1     -26.546   2.694  -5.575  1.00  0.00     0.026 A 
HETATM    2  C2  UNL     1     -26.587   1.927  -6.742  1.00  0.00     0.038 A 
HETATM    3  C3  UNL     1     -26.363   2.532  -7.970  1.00  0.00     0.065 A 
HETATM    4  C4  UNL     1     -26.082   3.892  -8.049  1.00  0.00     0.038 A 
HETATM    5  C5  UNL     1     -26.045   4.653  -6.878  1.00  0.00     0.026 A 
HETATM    6  C6  UNL     1     -26.326   4.073  -5.636  1.00  0.00     0.005 A 
ENDROOT
BRANCH   6   7
HETATM    7  N1  UNL     1     -26.169   4.816  -4.460  1.00  0.00    -0.303 NA
HETATM    8  H5  UNL     1     -25.944   5.792  -4.621  1.00  0.00     0.124 HD
HETATM    9  H6  UNL     1     -25.551   4.384  -3.782  1.00  0.00     0.124 HD
ENDBRANCH   6   7
BRANCH   3  10
HETATM   10  O1  UNL     1     -26.408   1.750  -9.085  1.00  0.00    -0.361 OA
HETATM   11  H7  UNL     1     -26.620   0.841  -8.817  1.00  0.00     0.217 HD
ENDBRANCH   3  10
TORSDOF 2
ENDMDL
MODEL 14
REMARK VINA RESULT:      -2.7      3.086      3.772
REMARK  2 active torsions:
REMARK  status: ('A' for Active; 'I' for Inactive)
REMARK    1  A    between atoms: C3_3  and  O1_8 
REMARK    2  A    between atoms: C6_6  and  N1_7 
ROOT
HETATM    1  C1  UNL     1      -9.082  10.150  -4.816  1.00  0.00     0.026 A 
HETATM    2  C2  UNL     1      -9.123  11.315  -4.047  1.00  0.00     0.038 A 
HETATM    3  C3  UNL     1      -9.657  12.476  -4.586  1.00  0.00     0.065 A 
HETATM    4  C4  UNL     1     -10.167  12.488  -5.879  1.00  0.00     0.038 A 
HETATM    5  C5  UNL     1     -10.121  11.318  -6.644  1.00  0.00     0.026 A 
HETATM    6  C6  UNL     1      -9.533  10.154  -6.140  1.00  0.00     0.005 A 
ENDROOT
BRANCH   6   7
HETATM    7  N1  UNL     1      -9.599   8.959  -6.866  1.00  0.00    -0.303 NA
HETATM    8  H5  UNL     1      -8.690   8.586  -7.121  1.00  0.00     0.124 HD
HETATM    9  H6  UNL     1     -10.238   8.993  -7.654  1.00  0.00     0.124 HD
ENDBRANCH   6   7
BRANCH   3  10
HETATM   10  O1  UNL     1      -9.682  13.591  -3.802  1.00  0.00    -0.361 OA
HETATM   11  H7  UNL     1     -10.398  13.498  -3.154  1.00  0.00     0.217 HD
ENDBRANCH   3  10
TORSDOF 2
ENDMDL
MODEL 15
REMARK VINA RESULT:      -2.7     18.174     18.668
REMARK  2 active torsions:
REMARK  status: ('A' for Active; 'I' for Inactive)
REMARK    1  A    between atoms: C3_3  and  O1_8 
REMARK    2  A    between atoms: C6_6  and  N1_7 
ROOT
HETATM    1  C1  UNL     1     -27.045   3.193  -8.221  1.00  0.00     0.026 A 
HETATM    2  C2  UNL     1     -26.600   2.028  -7.591  1.00  0.00     0.038 A 
HETATM    3  C3  UNL     1     -26.204   2.074  -6.262  1.00  0.00     0.065 A 
HETATM    4  C4  UNL     1     -26.262   3.265  -5.546  1.00  0.00     0.038 A 
HETATM    5  C5  UNL     1     -26.708   4.426  -6.184  1.00  0.00     0.026 A 
HETATM    6  C6  UNL     1     -27.055   4.413  -7.539  1.00  0.00     0.005 A 
ENDROOT
BRANCH   6   7
HETATM    7  N1  UNL     1     -27.612   5.550  -8.135  1.00  0.00    -0.303 NA
HETATM    8  H5  UNL     1     -27.084   6.400  -7.963  1.00  0.00     0.124 HD
HETATM    9  H6  UNL     1     -28.602   5.667  -7.951  1.00  0.00     0.124 HD
ENDBRANCH   6   7
BRANCH   3  10
HETATM   10  O1  UNL     1     -25.778   0.916  -5.683  1.00  0.00    -0.361 OA
HETATM   11  H7  UNL     1     -24.910   1.073  -5.279  1.00  0.00     0.217 HD
ENDBRANCH   3  10
TORSDOF 2
ENDMDL
MODEL 16
REMARK VINA RESULT:      -2.7     16.476     16.883
REMARK  2 active torsions:
REMARK  status: ('A' for Active; 'I' for Inactive)
REMARK    1  A    between atoms: C3_3  and  O1_8 
REMARK    2  A    between atoms: C6_6  and  N1_7 
ROOT
HETATM    1  C1  UNL     1     -26.755   6.394  -6.514  1.00  0.00     0.026 A 
HETATM    2  C2  UNL     1     -26.834   7.044  -5.281  1.00  0.00     0.038 A 
HETATM    3  C3  UNL     1     -26.156   6.526  -4.186  1.00  0.00     0.065 A 
HETATM    4  C4  UNL     1     -25.386   5.375  -4.310  1.00  0.00     0.038 A 
HETATM    5  C5  UNL     1     -25.313   4.729  -5.548  1.00  0.00     0.026 A 
HETATM    6  C6  UNL     1     -26.036   5.203  -6.648  1.00  0.00     0.005 A 
ENDROOT
BRANCH   6   7
HETATM    7  N1  UNL     1     -25.863   4.620  -7.909  1.00  0.00    -0.303 NA
HETATM    8  H5  UNL     1     -25.737   3.613  -7.879  1.00  0.00     0.124 HD
HETATM    9  H6  UNL     1     -25.162   5.080  -8.480  1.00  0.00     0.124 HD
ENDBRANCH   6   7
BRANCH   3  10
HETATM   10  O1  UNL     1     -26.256   7.190  -3.001  1.00  0.00    -0.361 OA
HETATM   11  H7  UNL     1     -25.877   6.634  -2.301  1.00  0.00     0.217 HD
ENDBRANCH   3  10
TORSDOF 2
ENDMDL
MODEL 17
REMARK VINA RESULT:      -2.7     17.454     17.873
REMARK  2 active torsions:
REMARK  status: ('A' for Active; 'I' for Inactive)
REMARK    1  A    between atoms: C3_3  and  O1_8 
REMARK    2  A    between atoms: C6_6  and  N1_7 
ROOT
HETATM    1  C1  UNL     1     -26.399   5.207  -5.609  1.00  0.00     0.026 A 
HETATM    2  C2  UNL     1     -26.288   3.912  -5.100  1.00  0.00     0.038 A 
HETATM    3  C3  UNL     1     -26.273   2.830  -5.969  1.00  0.00     0.065 A 
HETATM    4  C4  UNL     1     -26.352   3.025  -7.344  1.00  0.00     0.038 A 
HETATM    5  C5  UNL     1     -26.464   4.325  -7.846  1.00  0.00     0.026 A 
HETATM    6  C6  UNL     1     -26.540   5.423  -6.984  1.00  0.00     0.005 A 
ENDROOT
BRANCH   6   7
HETATM    7  N1  UNL     1     -26.532   6.725  -7.498  1.00  0.00    -0.303 NA
HETATM    8  H5  UNL     1     -26.061   6.807  -8.393  1.00  0.00     0.124 HD
HETATM    9  H6  UNL     1     -26.223   7.427  -6.833  1.00  0.00     0.124 HD
ENDBRANCH   6   7
BRANCH   3  10
HETATM   10  O1  UNL     1     -26.161   1.582  -5.434  1.00  0.00    -0.361 OA
HETATM   11  H7  UNL     1     -26.017   0.948  -6.154  1.00  0.00     0.217 HD
ENDBRANCH   3  10
TORSDOF 2
ENDMDL
MODEL 18
REMARK VINA RESULT:      -2.6     11.053     11.736
REMARK  2 active torsions:
REMARK  status: ('A' for Active; 'I' for Inactive)
REMARK    1  A    between atoms: C3_3  and  O1_8 
REMARK    2  A    between atoms: C6_6  and  N1_7 
ROOT
HETATM    1  C1  UNL     1     -19.851  12.715   2.368  1.00  0.00     0.026 A 
HETATM    2  C2  UNL     1     -20.759  11.789   2.885  1.00  0.00     0.038 A 
HETATM    3  C3  UNL     1     -20.447  11.093   4.044  1.00  0.00     0.065 A 
HETATM    4  C4  UNL     1     -19.245  11.322   4.706  1.00  0.00     0.038 A 
HETATM    5  C5  UNL     1     -18.341  12.250   4.182  1.00  0.00     0.026 A 
HETATM    6  C6  UNL     1     -18.611  12.918   2.983  1.00  0.00     0.005 A 
ENDROOT
BRANCH   6   7
HETATM    7  N1  UNL     1     -17.756  13.929   2.532  1.00  0.00    -0.303 NA
HETATM    8  H5  UNL     1     -18.167  14.521   1.816  1.00  0.00     0.124 HD
HETATM    9  H6  UNL     1     -16.831  13.601   2.277  1.00  0.00     0.124 HD
ENDBRANCH   6   7
BRANCH   3  10
HETATM   10  O1  UNL     1     -21.360  10.199   4.518  1.00  0.00    -0.361 OA
HETATM   11  H7  UNL     1     -20.891   9.400   4.806  1.00  0.00     0.217 HD
ENDBRANCH   3  10
TORSDOF 2
ENDMDL
