MODEL 1
REMARK VINA RESULT:      -4.7      0.000      0.000
REMARK  2 active torsions:
REMARK  status: ('A' for Active; 'I' for Inactive)
REMARK    1  A    between atoms: C3_3  and  O1_8 
REMARK    2  A    between atoms: C6_6  and  N1_7 
ROOT
HETATM    1  C1  UNL     1      -2.561   7.834   0.585  1.00  0.00     0.026 A 
HETATM    2  C2  UNL     1      -2.902   8.203   1.888  1.00  0.00     0.038 A 
HETATM    3  C3  UNL     1      -4.194   7.991   2.347  1.00  0.00     0.065 A 
HETATM    4  C4  UNL     1      -5.149   7.401   1.527  1.00  0.00     0.038 A 
HETATM    5  C5  UNL     1      -4.801   7.036   0.223  1.00  0.00     0.026 A 
HETATM    6  C6  UNL     1      -3.521   7.295  -0.277  1.00  0.00     0.005 A 
ENDROOT
BRANCH   6   7
HETATM    7  N1  UNL     1      -3.148   6.819  -1.539  1.00  0.00    -0.303 NA
HETATM    8  H5  UNL     1      -2.174   6.540  -1.598  1.00  0.00     0.124 HD
HETATM    9  H6  UNL     1      -3.423   7.426  -2.304  1.00  0.00     0.124 HD
ENDBRANCH   6   7
BRANCH   3  10
HETATM   10  O1  UNL     1      -4.486   8.362   3.626  1.00  0.00    -0.361 OA
HETATM   11  H7  UNL     1      -3.892   7.888   4.229  1.00  0.00     0.217 HD
ENDBRANCH   3  10
TORSDOF 2
ENDMDL
MODEL 2
REMARK VINA RESULT:      -4.6      2.782      3.684
REMARK  2 active torsions:
REMARK  status: ('A' for Active; 'I' for Inactive)
REMARK    1  A    between atoms: C3_3  and  O1_8 
REMARK    2  A    between atoms: C6_6  and  N1_7 
ROOT
HETATM    1  C1  UNL     1      -5.071   7.370   1.375  1.00  0.00     0.026 A 
HETATM    2  C2  UNL     1      -4.734   6.998   0.071  1.00  0.00     0.038 A 
HETATM    3  C3  UNL     1      -3.459   7.261  -0.410  1.00  0.00     0.065 A 
HETATM    4  C4  UNL     1      -2.509   7.876   0.398  1.00  0.00     0.038 A 
HETATM    5  C5  UNL     1      -2.855   8.246   1.701  1.00  0.00     0.026 A 
HETATM    6  C6  UNL     1      -4.152   8.043   2.185  1.00  0.00     0.005 A 
ENDROOT
BRANCH   6   7
HETATM    7  N1  UNL     1      -4.453   8.307   3.525  1.00  0.00    -0.303 NA
HETATM    8  H5  UNL     1      -4.217   7.546   4.154  1.00  0.00     0.124 HD
HETATM    9  H6  UNL     1      -5.396   8.652   3.674  1.00  0.00     0.124 HD
ENDBRANCH   6   7
BRANCH   3  10
HETATM   10  O1  UNL     1      -3.168   6.880  -1.686  1.00  0.00    -0.361 OA
HETATM   11  H7  UNL     1      -2.741   6.009  -1.660  1.00  0.00     0.217 HD
ENDBRANCH   3  10
TORSDOF 2
ENDMDL
MODEL 3
REMARK VINA RESULT:      -4.6      2.790      3.269
REMARK  2 active torsions:
REMARK  status: ('A' for Active; 'I' for Inactive)
REMARK    1  A    between atoms: C3_3  and  O1_8 
REMARK    2  A    between atoms: C6_6  and  N1_7 
ROOT
HETATM    1  C1  UNL     1      -2.932   8.048   1.763  1.00  0.00     0.026 A 
HETATM    2  C2  UNL     1      -2.708   7.528   0.486  1.00  0.00     0.038 A 
HETATM    3  C3  UNL     1      -3.725   6.845  -0.167  1.00  0.00     0.065 A 
HETATM    4  C4  UNL     1      -4.970   6.689   0.432  1.00  0.00     0.038 A 
HETATM    5  C5  UNL     1      -5.187   7.211   1.711  1.00  0.00     0.026 A 
HETATM    6  C6  UNL     1      -4.157   7.850   2.408  1.00  0.00     0.005 A 
ENDROOT
BRANCH   6   7
HETATM    7  N1  UNL     1      -4.416   8.472   3.635  1.00  0.00    -0.303 NA
HETATM    8  H5  UNL     1      -4.220   7.885   4.439  1.00  0.00     0.124 HD
HETATM    9  H6  UNL     1      -5.331   8.907   3.688  1.00  0.00     0.124 HD
ENDBRANCH   6   7
BRANCH   3  10
HETATM   10  O1  UNL     1      -3.468   6.356  -1.412  1.00  0.00    -0.361 OA
HETATM   11  H7  UNL     1      -4.098   6.749  -2.036  1.00  0.00     0.217 HD
ENDBRANCH   3  10
TORSDOF 2
ENDMDL
MODEL 4
REMARK VINA RESULT:      -4.2      8.448      9.137
REMARK  2 active torsions:
REMARK  status: ('A' for Active; 'I' for Inactive)
REMARK    1  A    between atoms: C3_3  and  O1_8 
REMARK    2  A    between atoms: C6_6  and  N1_7 
ROOT
HETATM    1  C1  UNL     1      -9.481  12.097  -3.513  1.00  0.00     0.026 A 
HETATM    2  C2  UNL     1     -10.800  11.946  -3.949  1.00  0.00     0.038 A 
HETATM    3  C3  UNL     1     -11.131  10.889  -4.785  1.00  0.00     0.065 A 
HETATM    4  C4  UNL     1     -10.166   9.969  -5.179  1.00  0.00     0.038 A 
HETATM    5  C5  UNL     1      -8.848  10.127  -4.739  1.00  0.00     0.026 A 
HETATM    6  C6  UNL     1      -8.483  11.218  -3.945  1.00  0.00     0.005 A 
ENDROOT
BRANCH   6   7
HETATM    7  N1  UNL     1      -7.191  11.302  -3.413  1.00  0.00    -0.303 NA
HETATM    8  H5  UNL     1      -6.677  10.427  -3.450  1.00  0.00     0.124 HD
HETATM    9  H6  UNL     1      -7.152  11.734  -2.496  1.00  0.00     0.124 HD
ENDBRANCH   6   7
BRANCH   3  10
HETATM   10  O1  UNL     1     -12.428  10.775  -5.187  1.00  0.00    -0.361 OA
HETATM   11  H7  UNL     1     -12.443  10.622  -6.145  1.00  0.00     0.217 HD
ENDBRANCH   3  10
TORSDOF 2
ENDMDL
MODEL 5
REMARK VINA RESULT:      -4.2      8.554      9.201
REMARK  2 active torsions:
REMARK  status: ('A' for Active; 'I' for Inactive)
REMARK    1  A    between atoms: C3_3  and  O1_8 
REMARK    2  A    between atoms: C6_6  and  N1_7 
ROOT
HETATM    1  C1  UNL     1     -11.048  12.250  -3.810  1.00  0.00     0.026 A 
HETATM    2  C2  UNL     1      -9.787  12.574  -3.304  1.00  0.00     0.038 A 
HETATM    3  C3  UNL     1      -8.696  11.774  -3.612  1.00  0.00     0.065 A 
HETATM    4  C4  UNL     1      -8.843  10.661  -4.433  1.00  0.00     0.038 A 
HETATM    5  C5  UNL     1     -10.109  10.342  -4.934  1.00  0.00     0.026 A 
HETATM    6  C6  UNL     1     -11.230  11.103  -4.588  1.00  0.00     0.005 A 
ENDROOT
BRANCH   6   7
HETATM    7  N1  UNL     1     -12.468  10.847  -5.189  1.00  0.00    -0.303 NA
HETATM    8  H5  UNL     1     -12.506   9.960  -5.682  1.00  0.00     0.124 HD
HETATM    9  H6  UNL     1     -12.819  11.616  -5.750  1.00  0.00     0.124 HD
ENDBRANCH   6   7
BRANCH   3  10
HETATM   10  O1  UNL     1      -7.482  12.125  -3.101  1.00  0.00    -0.361 OA
HETATM   11  H7  UNL     1      -6.959  12.541  -3.805  1.00  0.00     0.217 HD
ENDBRANCH   3  10
TORSDOF 2
ENDMDL
MODEL 6
REMARK VINA RESULT:      -4.2      8.737      9.406
REMARK  2 active torsions:
REMARK  status: ('A' for Active; 'I' for Inactive)
REMARK    1  A    between atoms: C3_3  and  O1_8 
REMARK    2  A    between atoms: C6_6  and  N1_7 
ROOT
HETATM    1  C1  UNL     1      -8.966  10.668  -4.453  1.00  0.00     0.026 A 
HETATM    2  C2  UNL     1     -10.222  10.313  -4.953  1.00  0.00     0.038 A 
HETATM    3  C3  UNL     1     -11.324  11.107  -4.669  1.00  0.00     0.065 A 
HETATM    4  C4  UNL     1     -11.188  12.261  -3.906  1.00  0.00     0.038 A 
HETATM    5  C5  UNL     1      -9.929  12.609  -3.408  1.00  0.00     0.026 A 
HETATM    6  C6  UNL     1      -8.817  11.791  -3.634  1.00  0.00     0.005 A 
ENDROOT
BRANCH   6   7
HETATM    7  N1  UNL     1      -7.542  12.208  -3.234  1.00  0.00    -0.303 NA
HETATM    8  H5  UNL     1      -7.217  13.042  -3.714  1.00  0.00     0.124 HD
HETATM    9  H6  UNL     1      -6.849  11.467  -3.234  1.00  0.00     0.124 HD
ENDBRANCH   6   7
BRANCH   3  10
HETATM   10  O1  UNL     1     -12.531  10.729  -5.177  1.00  0.00    -0.361 OA
HETATM   11  H7  UNL     1     -12.382  10.264  -6.016  1.00  0.00     0.217 HD
ENDBRANCH   3  10
TORSDOF 2
ENDMDL
MODEL 7
REMARK VINA RESULT:      -4.0      1.642      2.035
REMARK  2 active torsions:
REMARK  status: ('A' for Active; 'I' for Inactive)
REMARK    1  A    between atoms: C3_3  and  O1_8 
REMARK    2  A    between atoms: C6_6  and  N1_7 
ROOT
HETATM    1  C1  UNL     1      -2.677   8.778   1.899  1.00  0.00     0.026 A 
HETATM    2  C2  UNL     1      -3.673   7.991   2.483  1.00  0.00     0.038 A 
HETATM    3  C3  UNL     1      -4.460   7.173   1.685  1.00  0.00     0.065 A 
HETATM    4  C4  UNL     1      -4.256   7.118   0.311  1.00  0.00     0.038 A 
HETATM    5  C5  UNL     1      -3.259   7.909  -0.267  1.00  0.00     0.026 A 
HETATM    6  C6  UNL     1      -2.495   8.783   0.513  1.00  0.00     0.005 A 
ENDROOT
BRANCH   6   7
HETATM    7  N1  UNL     1      -1.422   9.480  -0.055  1.00  0.00    -0.303 NA
HETATM    8  H5  UNL     1      -1.595  10.474  -0.165  1.00  0.00     0.124 HD
HETATM    9  H6  UNL     1      -1.058   9.055  -0.901  1.00  0.00     0.124 HD
ENDBRANCH   6   7
BRANCH   3  10
HETATM   10  O1  UNL     1      -5.418   6.419   2.293  1.00  0.00    -0.361 OA
HETATM   11  H7  UNL     1      -5.956   6.998   2.857  1.00  0.00     0.217 HD
ENDBRANCH   3  10
TORSDOF 2
ENDMDL
MODEL 8
REMARK VINA RESULT:      -4.0      7.627      8.376
REMARK  2 active torsions:
REMARK  status: ('A' for Active; 'I' for Inactive)
REMARK    1  A    between atoms: C3_3  and  O1_8 
REMARK    2  A    between atoms: C6_6  and  N1_7 
ROOT
HETATM    1  C1  UNL     1      -8.077   9.825  -5.198  1.00  0.00     0.026 A 
HETATM    2  C2  UNL     1      -6.825   9.233  -5.017  1.00  0.00     0.038 A 
HETATM    3  C3  UNL     1      -6.559   7.997  -5.591  1.00  0.00     0.065 A 
HETATM    4  C4  UNL     1      -7.522   7.351  -6.357  1.00  0.00     0.038 A 
HETATM    5  C5  UNL     1      -8.774   7.950  -6.533  1.00  0.00     0.026 A 
HETATM    6  C6  UNL     1      -9.080   9.166  -5.915  1.00  0.00     0.005 A 
ENDROOT
BRANCH   6   7
HETATM    7  N1  UNL     1     -10.289   9.813  -6.193  1.00  0.00    -0.303 NA
HETATM    8  H5  UNL     1     -10.339  10.760  -5.829  1.00  0.00     0.124 HD
HETATM    9  H6  UNL     1     -11.111   9.266  -5.958  1.00  0.00     0.124 HD
ENDBRANCH   6   7
BRANCH   3  10
HETATM   10  O1  UNL     1      -5.325   7.454  -5.393  1.00  0.00    -0.361 OA
HETATM   11  H7  UNL     1      -5.040   7.026  -6.217  1.00  0.00     0.217 HD
ENDBRANCH   3  10
TORSDOF 2
ENDMDL
MODEL 9
REMARK VINA RESULT:      -4.0      2.842      3.651
REMARK  2 active torsions:
REMARK  status: ('A' for Active; 'I' for Inactive)
REMARK    1  A    between atoms: C3_3  and  O1_8 
REMARK    2  A    between atoms: C6_6  and  N1_7 
ROOT
HETATM    1  C1  UNL     1      -4.966   7.790   0.439  1.00  0.00     0.026 A 
HETATM    2  C2  UNL     1      -4.373   8.240  -0.742  1.00  0.00     0.038 A 
HETATM    3  C3  UNL     1      -3.133   8.861  -0.696  1.00  0.00     0.065 A 
HETATM    4  C4  UNL     1      -2.468   9.025   0.515  1.00  0.00     0.038 A 
HETATM    5  C5  UNL     1      -3.069   8.572   1.693  1.00  0.00     0.026 A 
HETATM    6  C6  UNL     1      -4.344   7.997   1.674  1.00  0.00     0.005 A 
ENDROOT
BRANCH   6   7
HETATM    7  N1  UNL     1      -4.884   7.441   2.839  1.00  0.00    -0.303 NA
HETATM    8  H5  UNL     1      -5.388   8.110   3.414  1.00  0.00     0.124 HD
HETATM    9  H6  UNL     1      -4.223   6.891   3.376  1.00  0.00     0.124 HD
ENDBRANCH   6   7
BRANCH   3  10
HETATM   10  O1  UNL     1      -2.586   9.284  -1.870  1.00  0.00    -0.361 OA
HETATM   11  H7  UNL     1      -2.794   8.634  -2.560  1.00  0.00     0.217 HD
ENDBRANCH   3  10
TORSDOF 2
ENDMDL
MODEL 10
REMARK VINA RESULT:      -3.9      9.624     10.260
REMARK  2 active torsions:
REMARK  status: ('A' for Active; 'I' for Inactive)
REMARK    1  A    between atoms: C3_3  and  O1_8 
REMARK    2  A    between atoms: C6_6  and  N1_7 
ROOT
HETATM    1  C1  UNL     1     -11.225  10.790  -5.053  1.00  0.00     0.026 A 
HETATM    2  C2  UNL     1     -10.031  11.021  -4.367  1.00  0.00     0.038 A 
HETATM    3  C3  UNL     1      -9.857  12.209  -3.671  1.00  0.00     0.065 A 
HETATM    4  C4  UNL     1     -10.867  13.164  -3.636  1.00  0.00     0.038 A 
HETATM    5  C5  UNL     1     -12.059  12.926  -4.327  1.00  0.00     0.026 A 
HETATM    6  C6  UNL     1     -12.230  11.761  -5.082  1.00  0.00     0.005 A 
ENDROOT
BRANCH   6   7
HETATM    7  N1  UNL     1     -13.468  11.478  -5.670  1.00  0.00    -0.303 NA
HETATM    8  H5  UNL     1     -13.760  10.512  -5.561  1.00  0.00     0.124 HD
HETATM    9  H6  UNL     1     -13.551  11.801  -6.628  1.00  0.00     0.124 HD
ENDBRANCH   6   7
BRANCH   3  10
HETATM   10  O1  UNL     1      -8.679  12.396  -3.012  1.00  0.00    -0.361 OA
HETATM   11  H7  UNL     1      -8.184  11.561  -3.019  1.00  0.00     0.217 HD
ENDBRANCH   3  10
TORSDOF 2
ENDMDL
MODEL 11
REMARK VINA RESULT:      -3.7     10.059     10.707
REMARK  2 active torsions:
REMARK  status: ('A' for Active; 'I' for Inactive)
REMARK    1  A    between atoms: C3_3  and  O1_8 
REMARK    2  A    between atoms: C6_6  and  N1_7 
ROOT
HETATM    1  C1  UNL     1     -10.826  13.634  -4.463  1.00  0.00     0.026 A 
HETATM    2  C2  UNL     1     -12.026  13.244  -5.060  1.00  0.00     0.038 A 
HETATM    3  C3  UNL     1     -12.337  11.896  -5.164  1.00  0.00     0.065 A 
HETATM    4  C4  UNL     1     -11.470  10.930  -4.665  1.00  0.00     0.038 A 
HETATM    5  C5  UNL     1     -10.269  11.328  -4.070  1.00  0.00     0.026 A 
HETATM    6  C6  UNL     1      -9.912  12.678  -4.008  1.00  0.00     0.005 A 
ENDROOT
BRANCH   6   7
HETATM    7  N1  UNL     1      -8.768  13.074  -3.306  1.00  0.00    -0.303 NA
HETATM    8  H5  UNL     1      -8.176  12.300  -3.022  1.00  0.00     0.124 HD
HETATM    9  H6  UNL     1      -8.956  13.716  -2.544  1.00  0.00     0.124 HD
ENDBRANCH   6   7
BRANCH   3  10
HETATM   10  O1  UNL     1     -13.519  11.556  -5.751  1.00  0.00    -0.361 OA
HETATM   11  H7  UNL     1     -13.347  10.879  -6.424  1.00  0.00     0.217 HD
ENDBRANCH   3  10
TORSDOF 2
ENDMDL
MODEL 12
REMARK VINA RESULT:      -3.7      7.732      8.306
REMARK  2 active torsions:
REMARK  status: ('A' for Active; 'I' for Inactive)
REMARK    1  A    between atoms: C3_3  and  O1_8 
REMARK    2  A    between atoms: C6_6  and  N1_7 
ROOT
HETATM    1  C1  UNL     1      -7.987   9.949  -4.789  1.00  0.00     0.026 A 
HETATM    2  C2  UNL     1      -7.823  11.081  -3.988  1.00  0.00     0.038 A 
HETATM    3  C3  UNL     1      -8.925  11.856  -3.658  1.00  0.00     0.065 A 
HETATM    4  C4  UNL     1     -10.195  11.506  -4.103  1.00  0.00     0.038 A 
HETATM    5  C5  UNL     1     -10.352  10.372  -4.905  1.00  0.00     0.026 A 
HETATM    6  C6  UNL     1      -9.246   9.612  -5.297  1.00  0.00     0.005 A 
ENDROOT
BRANCH   6   7
HETATM    7  N1  UNL     1      -9.426   8.415  -5.999  1.00  0.00    -0.303 NA
HETATM    8  H5  UNL     1      -9.729   7.642  -5.415  1.00  0.00     0.124 HD
HETATM    9  H6  UNL     1      -8.642   8.166  -6.594  1.00  0.00     0.124 HD
ENDBRANCH   6   7
BRANCH   3  10
HETATM   10  O1  UNL     1      -8.724  12.951  -2.872  1.00  0.00    -0.361 OA
HETATM   11  H7  UNL     1      -9.564  13.429  -2.786  1.00  0.00     0.217 HD
ENDBRANCH   3  10
TORSDOF 2
ENDMDL
MODEL 13
REMARK VINA RESULT:      -3.5      6.965      7.592
REMARK  2 active torsions:
REMARK  status: ('A' for Active; 'I' for Inactive)
REMARK    1  A    between atoms: C3_3  and  O1_8 
REMARK    2  A    between atoms: C6_6  and  N1_7 
ROOT
HETATM    1  C1  UNL     1      -6.485   9.617  -4.561  1.00  0.00     0.026 A 
HETATM    2  C2  UNL     1      -7.457  10.543  -4.174  1.00  0.00     0.038 A 
HETATM    3  C3  UNL     1      -8.766  10.389  -4.608  1.00  0.00     0.065 A 
HETATM    4  C4  UNL     1      -9.123   9.312  -5.411  1.00  0.00     0.038 A 
HETATM    5  C5  UNL     1      -8.145   8.390  -5.796  1.00  0.00     0.026 A 
HETATM    6  C6  UNL     1      -6.809   8.560  -5.417  1.00  0.00     0.005 A 
ENDROOT
BRANCH   6   7
HETATM    7  N1  UNL     1      -5.863   7.571  -5.706  1.00  0.00    -0.303 NA
HETATM    8  H5  UNL     1      -5.002   7.934  -6.104  1.00  0.00     0.124 HD
HETATM    9  H6  UNL     1      -6.234   6.790  -6.237  1.00  0.00     0.124 HD
ENDBRANCH   6   7
BRANCH   3  10
HETATM   10  O1  UNL     1      -9.684  11.312  -4.206  1.00  0.00    -0.361 OA
HETATM   11  H7  UNL     1     -10.518  10.854  -4.010  1.00  0.00     0.217 HD
ENDBRANCH   3  10
TORSDOF 2
ENDMDL
MODEL 14
REMARK VINA RESULT:      -3.4      2.604      3.337
REMARK  2 active torsions:
REMARK  status: ('A' for Active; 'I' for Inactive)
REMARK    1  A    between atoms: C3_3  and  O1_8 
REMARK    2  A    between atoms: C6_6  and  N1_7 
ROOT
HETATM    1  C1  UNL     1      -4.429   8.654  -1.275  1.00  0.00     0.026 A 
HETATM    2  C2  UNL     1      -3.961   7.464  -0.713  1.00  0.00     0.038 A 
HETATM    3  C3  UNL     1      -2.905   7.498   0.186  1.00  0.00     0.065 A 
HETATM    4  C4  UNL     1      -2.319   8.707   0.546  1.00  0.00     0.038 A 
HETATM    5  C5  UNL     1      -2.792   9.893  -0.022  1.00  0.00     0.026 A 
HETATM    6  C6  UNL     1      -3.816   9.874  -0.974  1.00  0.00     0.005 A 
ENDROOT
BRANCH   6   7
HETATM    7  N1  UNL     1      -4.362  11.074  -1.446  1.00  0.00    -0.303 NA
HETATM    8  H5  UNL     1      -4.834  11.616  -0.730  1.00  0.00     0.124 HD
HETATM    9  H6  UNL     1      -4.924  10.967  -2.283  1.00  0.00     0.124 HD
ENDBRANCH   6   7
BRANCH   3  10
HETATM   10  O1  UNL     1      -2.479   6.316   0.715  1.00  0.00    -0.361 OA
HETATM   11  H7  UNL     1      -2.240   6.461   1.644  1.00  0.00     0.217 HD
ENDBRANCH   3  10
TORSDOF 2
ENDMDL
MODEL 15
REMARK VINA RESULT:      -3.4      9.984     10.545
REMARK  2 active torsions:
REMARK  status: ('A' for Active; 'I' for Inactive)
REMARK    1  A    between atoms: C3_3  and  O1_8 
REMARK    2  A    between atoms: C6_6  and  N1_7 
ROOT
HETATM    1  C1  UNL     1     -10.354  12.036  -6.563  1.00  0.00     0.026 A 
HETATM    2  C2  UNL     1     -10.769  13.209  -5.928  1.00  0.00     0.038 A 
HETATM    3  C3  UNL     1     -11.308  13.146  -4.651  1.00  0.00     0.065 A 
HETATM    4  C4  UNL     1     -11.424  11.927  -3.991  1.00  0.00     0.038 A 
HETATM    5  C5  UNL     1     -11.008  10.757  -4.634  1.00  0.00     0.026 A 
HETATM    6  C6  UNL     1     -10.517  10.793  -5.943  1.00  0.00     0.005 A 
ENDROOT
BRANCH   6   7
HETATM    7  N1  UNL     1      -9.994   9.637  -6.531  1.00  0.00    -0.303 NA
HETATM    8  H5  UNL     1      -9.615   8.974  -5.862  1.00  0.00     0.124 HD
HETATM    9  H6  UNL     1      -9.355   9.819  -7.298  1.00  0.00     0.124 HD
ENDBRANCH   6   7
BRANCH   3  10
HETATM   10  O1  UNL     1     -11.698  14.312  -4.065  1.00  0.00    -0.361 OA
HETATM   11  H7  UNL     1     -11.244  14.396  -3.211  1.00  0.00     0.217 HD
ENDBRANCH   3  10
TORSDOF 2
ENDMDL
MODEL 16
REMARK VINA RESULT:      -3.3     10.189     10.776
REMARK  2 active torsions:
REMARK  status: ('A' for Active; 'I' for Inactive)
REMARK    1  A    between atoms: C3_3  and  O1_8 
REMARK    2  A    between atoms: C6_6  and  N1_7 
ROOT
HETATM    1  C1  UNL     1     -10.541  13.057  -5.977  1.00  0.00     0.026 A 
HETATM    2  C2  UNL     1     -10.110  11.882  -6.597  1.00  0.00     0.038 A 
HETATM    3  C3  UNL     1     -10.288  10.662  -5.961  1.00  0.00     0.065 A 
HETATM    4  C4  UNL     1     -10.907  10.596  -4.718  1.00  0.00     0.038 A 
HETATM    5  C5  UNL     1     -11.335  11.776  -4.102  1.00  0.00     0.026 A 
HETATM    6  C6  UNL     1     -11.112  13.020  -4.701  1.00  0.00     0.005 A 
ENDROOT
BRANCH   6   7
HETATM    7  N1  UNL     1     -11.648  14.182  -4.134  1.00  0.00    -0.303 NA
HETATM    8  H5  UNL     1     -12.655  14.146  -4.007  1.00  0.00     0.124 HD
HETATM    9  H6  UNL     1     -11.347  15.037  -4.589  1.00  0.00     0.124 HD
ENDBRANCH   6   7
BRANCH   3  10
HETATM   10  O1  UNL     1      -9.856   9.539  -6.600  1.00  0.00    -0.361 OA
HETATM   11  H7  UNL     1      -8.888   9.572  -6.665  1.00  0.00     0.217 HD
ENDBRANCH   3  10
TORSDOF 2
ENDMDL
MODEL 17
REMARK VINA RESULT:      -3.3      7.623      8.526
REMARK  2 active torsions:
REMARK  status: ('A' for Active; 'I' for Inactive)
REMARK    1  A    between atoms: C3_3  and  O1_8 
REMARK    2  A    between atoms: C6_6  and  N1_7 
ROOT
HETATM    1  C1  UNL     1      -8.799   9.284  -5.352  1.00  0.00     0.026 A 
HETATM    2  C2  UNL     1      -9.008   8.179  -6.180  1.00  0.00     0.038 A 
HETATM    3  C3  UNL     1      -7.946   7.341  -6.489  1.00  0.00     0.065 A 
HETATM    4  C4  UNL     1      -6.679   7.583  -5.969  1.00  0.00     0.038 A 
HETATM    5  C5  UNL     1      -6.478   8.692  -5.142  1.00  0.00     0.026 A 
HETATM    6  C6  UNL     1      -7.522   9.581  -4.867  1.00  0.00     0.005 A 
ENDROOT
BRANCH   6   7
HETATM    7  N1  UNL     1      -7.341  10.618  -3.946  1.00  0.00    -0.303 NA
HETATM    8  H5  UNL     1      -8.201  11.095  -3.694  1.00  0.00     0.124 HD
HETATM    9  H6  UNL     1      -6.599  11.264  -4.196  1.00  0.00     0.124 HD
ENDBRANCH   6   7
BRANCH   3  10
HETATM   10  O1  UNL     1      -8.190   6.271  -7.297  1.00  0.00    -0.361 OA
HETATM   11  H7  UNL     1      -8.002   5.459  -6.800  1.00  0.00     0.217 HD
ENDBRANCH   3  10
TORSDOF 2
ENDMDL
MODEL 18
REMARK VINA RESULT:      -3.3      3.236      3.791
REMARK  2 active torsions:
REMARK  status: ('A' for Active; 'I' for Inactive)
REMARK    1  A    between atoms: C3_3  and  O1_8 
REMARK    2  A    between atoms: C6_6  and  N1_7 
ROOT
HETATM    1  C1  UNL     1      -3.623   8.190  -2.132  1.00  0.00     0.026 A 
HETATM    2  C2  UNL     1      -4.437   9.234  -2.574  1.00  0.00     0.038 A 
HETATM    3  C3  UNL     1      -4.909  10.171  -1.666  1.00  0.00     0.065 A 
HETATM    4  C4  UNL     1      -4.565  10.089  -0.321  1.00  0.00     0.038 A 
HETATM    5  C5  UNL     1      -3.750   9.040   0.115  1.00  0.00     0.026 A 
HETATM    6  C6  UNL     1      -3.313   8.054  -0.775  1.00  0.00     0.005 A 
ENDROOT
BRANCH   6   7
HETATM    7  N1  UNL     1      -2.403   7.077  -0.354  1.00  0.00    -0.303 NA
HETATM    8  H5  UNL     1      -2.210   6.369  -1.055  1.00  0.00     0.124 HD
HETATM    9  H6  UNL     1      -2.622   6.675   0.551  1.00  0.00     0.124 HD
ENDBRANCH   6   7
BRANCH   3  10
HETATM   10  O1  UNL     1      -5.699  11.176  -2.138  1.00  0.00    -0.361 OA
HETATM   11  H7  UNL     1      -5.141  11.950  -2.317  1.00  0.00     0.217 HD
ENDBRANCH   3  10
TORSDOF 2
ENDMDL
MODEL 19
REMARK VINA RESULT:      -3.1      6.420      7.115
REMARK  2 active torsions:
REMARK  status: ('A' for Active; 'I' for Inactive)
REMARK    1  A    between atoms: C3_3  and  O1_8 
REMARK    2  A    between atoms: C6_6  and  N1_7 
ROOT
HETATM    1  C1  UNL     1      -5.287   9.792  -3.669  1.00  0.00     0.026 A 
HETATM    2  C2  UNL     1      -5.248   8.742  -4.589  1.00  0.00     0.038 A 
HETATM    3  C3  UNL     1      -6.349   8.493  -5.396  1.00  0.00     0.065 A 
HETATM    4  C4  UNL     1      -7.485   9.289  -5.308  1.00  0.00     0.038 A 
HETATM    5  C5  UNL     1      -7.518  10.338  -4.383  1.00  0.00     0.026 A 
HETATM    6  C6  UNL     1      -6.441  10.567  -3.521  1.00  0.00     0.005 A 
ENDROOT
BRANCH   6   7
HETATM    7  N1  UNL     1      -6.435  11.689  -2.684  1.00  0.00    -0.303 NA
HETATM    8  H5  UNL     1      -5.823  11.594  -1.880  1.00  0.00     0.124 HD
HETATM    9  H6  UNL     1      -7.360  12.016  -2.429  1.00  0.00     0.124 HD
ENDBRANCH   6   7
BRANCH   3  10
HETATM   10  O1  UNL     1      -6.271   7.462  -6.283  1.00  0.00    -0.361 OA
HETATM   11  H7  UNL     1      -6.566   7.777  -7.152  1.00  0.00     0.217 HD
ENDBRANCH   3  10
TORSDOF 2
ENDMDL
