MODEL 1
REMARK VINA RESULT:      -4.5      0.000      0.000
REMARK  27 active torsions:
REMARK  status: ('A' for Active; 'I' for Inactive)
REMARK    1  A    between atoms: C2_2  and  S1_4 
REMARK    2  A    between atoms: S1_4  and  C3_5 
REMARK    3  A    between atoms: C3_5  and  C4_6 
REMARK    4  A    between atoms: C4_6  and  N1_7 
REMARK       I    between atoms: N1_7  and  C5_8 
REMARK    5  A    between atoms: C5_8  and  C6_10 
REMARK    6  A    between atoms: C6_10  and  C7_11 
REMARK    7  A    between atoms: C7_11  and  N2_12 
REMARK       I    between atoms: N2_12  and  C8_13 
REMARK    8  A    between atoms: C8_13  and  C9_15 
REMARK    9  A    between atoms: C9_15  and  C10_16 
REMARK   10  A    between atoms: C9_15  and  O17_54 
REMARK   11  A    between atoms: C10_16  and  C13_19 
REMARK   12  A    between atoms: C13_19  and  O4_20 
REMARK   13  A    between atoms: O4_20  and  P1_21 
REMARK   14  A    between atoms: P1_21  and  O6_23 
REMARK   15  A    between atoms: P1_21  and  O7_24 
REMARK   16  A    between atoms: O7_24  and  P2_25 
REMARK   17  A    between atoms: P2_25  and  O9_27 
REMARK   18  A    between atoms: P2_25  and  O10_28 
REMARK   19  A    between atoms: O10_28  and  C14_29 
REMARK   20  A    between atoms: C14_29  and  C15_30 
REMARK   21  A    between atoms: C16_31  and  O13_49 
REMARK   22  A    between atoms: C17_32  and  O12_48 
REMARK   23  A    between atoms: C18_33  and  N3_35 
REMARK   24  A    between atoms: C21_40  and  N7_47 
REMARK   25  A    between atoms: O13_49  and  P3_50 
REMARK   26  A    between atoms: P3_50  and  O15_52 
REMARK   27  A    between atoms: P3_50  and  O16_53 
ROOT
HETATM    1  C1  UNL     1     -10.176  16.373   1.522  1.00  0.00     0.104 C 
HETATM    2  C2  UNL     1     -10.182  15.259   0.520  1.00  0.00     0.182 C 
HETATM    3  O1  UNL     1     -10.083  14.074   0.828  1.00  0.00    -0.286 OA
ENDROOT
BRANCH   2   4
HETATM    4  S1  UNL     1     -10.301  15.789  -1.153  1.00  0.00    -0.091 SA
BRANCH   4   5
HETATM    5  C3  UNL     1     -10.785  17.528  -0.907  1.00  0.00     0.102 C 
BRANCH   5   6
HETATM    6  C4  UNL     1      -9.724  18.495  -1.438  1.00  0.00     0.133 C 
BRANCH   6   7
HETATM    7  N1  UNL     1      -8.376  17.988  -1.280  1.00  0.00    -0.360 N 
HETATM    8  C5  UNL     1      -7.580  18.365  -0.224  1.00  0.00     0.219 C 
HETATM    9  O2  UNL     1      -7.927  19.207   0.596  1.00  0.00    -0.274 OA
HETATM   10  H8  UNL     1      -8.019  17.333  -1.963  1.00  0.00     0.162 HD
BRANCH   8  11
HETATM   11  C6  UNL     1      -6.231  17.679  -0.215  1.00  0.00     0.122 C 
BRANCH  11  12
HETATM   12  C7  UNL     1      -6.333  16.214  -0.638  1.00  0.00     0.132 C 
BRANCH  12  13
HETATM   13  N2  UNL     1      -6.692  15.332   0.453  1.00  0.00    -0.358 N 
HETATM   14  C8  UNL     1      -6.145  14.064   0.532  1.00  0.00     0.247 C 
HETATM   15  O3  UNL     1      -5.445  13.599  -0.358  1.00  0.00    -0.271 OA
HETATM   16  H13 UNL     1      -6.928  15.793   1.329  1.00  0.00     0.162 HD
BRANCH  14  17
HETATM   17  C9  UNL     1      -6.469  13.303   1.826  1.00  0.00     0.219 C 
BRANCH  17  18
HETATM   18  C10 UNL     1      -5.295  13.226   2.838  1.00  0.00     0.009 C 
HETATM   19  C11 UNL     1      -4.368  12.034   2.559  1.00  0.00     0.020 C 
HETATM   20  C12 UNL     1      -4.441  14.509   2.811  1.00  0.00     0.020 C 
BRANCH  18  21
HETATM   21  C13 UNL     1      -5.950  13.061   4.240  1.00  0.00     0.192 C 
BRANCH  21  22
HETATM   22  O4  UNL     1      -5.940  11.720   4.684  1.00  0.00    -0.296 OA
BRANCH  22  23
HETATM   23  P1  UNL     1      -7.262  10.814   4.749  1.00  0.00     0.401 P 
HETATM   24  O5  UNL     1      -7.129   9.488   4.068  1.00  0.00    -0.631 OA
BRANCH  23  25
HETATM   25  O6  UNL     1      -8.471  11.715   4.185  1.00  0.00    -0.307 OA
HETATM   26  H23 UNL     1      -8.451  12.611   4.544  1.00  0.00     0.222 HD
ENDBRANCH  23  25
BRANCH  23  27
HETATM   27  O7  UNL     1      -7.630  10.734   6.294  1.00  0.00    -0.195 OA
BRANCH  27  28
HETATM   28  P2  UNL     1      -9.164  10.660   6.717  1.00  0.00     0.401 P 
HETATM   29  O8  UNL     1      -9.924  11.946   6.735  1.00  0.00    -0.631 OA
BRANCH  28  30
HETATM   30  O9  UNL     1      -9.765   9.562   5.726  1.00  0.00    -0.307 OA
HETATM   31  H24 UNL     1      -9.591   8.629   6.004  1.00  0.00     0.222 HD
ENDBRANCH  28  30
BRANCH  28  32
HETATM   32  O10 UNL     1      -9.147   9.840   8.088  1.00  0.00    -0.294 OA
BRANCH  32  33
HETATM   33  C14 UNL     1     -10.340   9.309   8.603  1.00  0.00     0.215 C 
BRANCH  33  34
HETATM   34  C15 UNL     1     -10.121   7.801   8.717  1.00  0.00     0.180 C 
HETATM   35  C16 UNL     1      -9.170   7.504   9.869  1.00  0.00     0.197 C 
HETATM   36  C17 UNL     1      -7.970   6.846   9.217  1.00  0.00     0.199 C 
HETATM   37  C18 UNL     1      -8.579   6.251   7.945  1.00  0.00     0.262 C 
HETATM   38  O11 UNL     1      -9.561   7.227   7.531  1.00  0.00    -0.353 OA
BRANCH  35  39
HETATM   39  O13 UNL     1      -9.835   6.630  10.776  1.00  0.00    -0.286 OA
BRANCH  39  40
HETATM   40  P3  UNL     1     -10.125   7.234  12.228  1.00  0.00     0.391 P 
HETATM   41  O14 UNL     1      -8.976   7.997  12.803  1.00  0.00    -0.632 OA
BRANCH  40  42
HETATM   42  O15 UNL     1     -10.607   5.922  13.006  1.00  0.00    -0.307 OA
HETATM   43  H36 UNL     1      -9.914   5.220  12.969  1.00  0.00     0.222 HD
ENDBRANCH  40  42
BRANCH  40  44
HETATM   44  O16 UNL     1     -11.482   8.023  11.975  1.00  0.00    -0.307 OA
HETATM   45  H37 UNL     1     -12.195   7.747  12.573  1.00  0.00     0.222 HD
ENDBRANCH  40  44
ENDBRANCH  39  40
ENDBRANCH  35  39
BRANCH  36  46
HETATM   46  O12 UNL     1      -7.343   5.940  10.130  1.00  0.00    -0.388 OA
HETATM   47  H35 UNL     1      -6.564   6.417  10.503  1.00  0.00     0.210 HD
ENDBRANCH  36  46
BRANCH  37  48
HETATM   48  N3  UNL     1      -7.605   6.091   6.883  1.00  0.00    -0.297 N 
HETATM   49  C19 UNL     1      -6.983   7.089   6.169  1.00  0.00     0.188 A 
HETATM   50  N4  UNL     1      -6.057   6.620   5.362  1.00  0.00    -0.346 N 
HETATM   51  C20 UNL     1      -6.076   5.251   5.566  1.00  0.00     0.116 A 
HETATM   52  H4  UNL     1      -5.457   7.147   4.727  1.00  0.00     0.167 HD
HETATM   53  C21 UNL     1      -5.306   4.199   5.041  1.00  0.00     0.109 A 
HETATM   54  C23 UNL     1      -7.058   4.907   6.477  1.00  0.00     0.142 A 
HETATM   55  N5  UNL     1      -5.581   2.933   5.440  1.00  0.00    -0.341 N 
HETATM   56  C22 UNL     1      -6.586   2.744   6.318  1.00  0.00     0.183 A 
HETATM   57  H5  UNL     1      -5.042   2.144   5.083  1.00  0.00     0.167 HD
HETATM   58  N6  UNL     1      -7.381   3.669   6.892  1.00  0.00    -0.336 N 
HETATM   59  H6  UNL     1      -8.129   3.459   7.554  1.00  0.00     0.168 HD
BRANCH  53  60
HETATM   60  N7  UNL     1      -4.282   4.386   4.127  1.00  0.00    -0.287 NA
HETATM   61  H33 UNL     1      -4.410   3.890   3.247  1.00  0.00     0.125 HD
HETATM   62  H34 UNL     1      -3.364   4.337   4.547  1.00  0.00     0.125 HD
ENDBRANCH  53  60
ENDBRANCH  37  48
ENDBRANCH  33  34
ENDBRANCH  32  33
ENDBRANCH  28  32
ENDBRANCH  27  28
ENDBRANCH  23  27
ENDBRANCH  22  23
ENDBRANCH  21  22
ENDBRANCH  18  21
ENDBRANCH  17  18
BRANCH  17  63
HETATM   63  O17 UNL     1      -7.594  13.899   2.481  1.00  0.00    -0.385 OA
HETATM   64  H38 UNL     1      -8.089  14.414   1.821  1.00  0.00     0.210 HD
ENDBRANCH  17  63
ENDBRANCH  14  17
ENDBRANCH  12  13
ENDBRANCH  11  12
ENDBRANCH   8  11
ENDBRANCH   6   7
ENDBRANCH   5   6
ENDBRANCH   4   5
ENDBRANCH   2   4
TORSDOF 27
ENDMDL
MODEL 2
REMARK VINA RESULT:      -4.5      7.380     10.322
REMARK  27 active torsions:
REMARK  status: ('A' for Active; 'I' for Inactive)
REMARK    1  A    between atoms: C2_2  and  S1_4 
REMARK    2  A    between atoms: S1_4  and  C3_5 
REMARK    3  A    between atoms: C3_5  and  C4_6 
REMARK    4  A    between atoms: C4_6  and  N1_7 
REMARK       I    between atoms: N1_7  and  C5_8 
REMARK    5  A    between atoms: C5_8  and  C6_10 
REMARK    6  A    between atoms: C6_10  and  C7_11 
REMARK    7  A    between atoms: C7_11  and  N2_12 
REMARK       I    between atoms: N2_12  and  C8_13 
REMARK    8  A    between atoms: C8_13  and  C9_15 
REMARK    9  A    between atoms: C9_15  and  C10_16 
REMARK   10  A    between atoms: C9_15  and  O17_54 
REMARK   11  A    between atoms: C10_16  and  C13_19 
REMARK   12  A    between atoms: C13_19  and  O4_20 
REMARK   13  A    between atoms: O4_20  and  P1_21 
REMARK   14  A    between atoms: P1_21  and  O6_23 
REMARK   15  A    between atoms: P1_21  and  O7_24 
REMARK   16  A    between atoms: O7_24  and  P2_25 
REMARK   17  A    between atoms: P2_25  and  O9_27 
REMARK   18  A    between atoms: P2_25  and  O10_28 
REMARK   19  A    between atoms: O10_28  and  C14_29 
REMARK   20  A    between atoms: C14_29  and  C15_30 
REMARK   21  A    between atoms: C16_31  and  O13_49 
REMARK   22  A    between atoms: C17_32  and  O12_48 
REMARK   23  A    between atoms: C18_33  and  N3_35 
REMARK   24  A    between atoms: C21_40  and  N7_47 
REMARK   25  A    between atoms: O13_49  and  P3_50 
REMARK   26  A    between atoms: P3_50  and  O15_52 
REMARK   27  A    between atoms: P3_50  and  O16_53 
ROOT
HETATM    1  C1  UNL     1      -7.318  20.131  -4.115  1.00  0.00     0.104 C 
HETATM    2  C2  UNL     1      -7.240  19.026  -3.106  1.00  0.00     0.182 C 
HETATM    3  O1  UNL     1      -7.779  19.080  -2.004  1.00  0.00    -0.286 OA
ENDROOT
BRANCH   2   4
HETATM    4  S1  UNL     1      -6.272  17.648  -3.614  1.00  0.00    -0.091 SA
BRANCH   4   5
HETATM    5  C3  UNL     1      -6.822  17.485  -5.343  1.00  0.00     0.102 C 
BRANCH   5   6
HETATM    6  C4  UNL     1      -7.663  16.225  -5.557  1.00  0.00     0.133 C 
BRANCH   6   7
HETATM    7  N1  UNL     1      -7.482  15.246  -4.505  1.00  0.00    -0.360 N 
HETATM    8  C5  UNL     1      -7.255  13.919  -4.783  1.00  0.00     0.219 C 
HETATM    9  O2  UNL     1      -7.271  13.471  -5.924  1.00  0.00    -0.274 OA
HETATM   10  H8  UNL     1      -7.518  15.554  -3.543  1.00  0.00     0.162 HD
BRANCH   8  11
HETATM   11  C6  UNL     1      -7.038  13.076  -3.545  1.00  0.00     0.122 C 
BRANCH  11  12
HETATM   12  C7  UNL     1      -6.084  11.911  -3.807  1.00  0.00     0.132 C 
BRANCH  12  13
HETATM   13  N2  UNL     1      -6.768  10.691  -4.181  1.00  0.00    -0.358 N 
HETATM   14  C8  UNL     1      -6.305   9.927  -5.237  1.00  0.00     0.247 C 
HETATM   15  O3  UNL     1      -5.391  10.302  -5.960  1.00  0.00    -0.271 OA
HETATM   16  H13 UNL     1      -7.235  10.200  -3.421  1.00  0.00     0.162 HD
BRANCH  14  17
HETATM   17  C9  UNL     1      -7.012   8.575  -5.413  1.00  0.00     0.219 C 
BRANCH  17  18
HETATM   18  C10 UNL     1      -8.039   8.533  -6.575  1.00  0.00     0.009 C 
HETATM   19  C11 UNL     1      -7.357   8.556  -7.951  1.00  0.00     0.020 C 
HETATM   20  C12 UNL     1      -8.922   7.271  -6.504  1.00  0.00     0.020 C 
BRANCH  18  21
HETATM   21  C13 UNL     1      -8.923   9.802  -6.409  1.00  0.00     0.192 C 
BRANCH  21  22
HETATM   22  O4  UNL     1      -9.767   9.725  -5.278  1.00  0.00    -0.296 OA
BRANCH  22  23
HETATM   23  P1  UNL     1     -10.939  10.782  -4.993  1.00  0.00     0.401 P 
HETATM   24  O5  UNL     1     -12.222  10.164  -4.531  1.00  0.00    -0.631 OA
BRANCH  23  25
HETATM   25  O6  UNL     1     -11.092  11.678  -6.322  1.00  0.00    -0.307 OA
HETATM   26  H23 UNL     1     -10.255  12.084  -6.582  1.00  0.00     0.222 HD
ENDBRANCH  23  25
BRANCH  23  27
HETATM   27  O7  UNL     1     -10.307  11.835  -3.982  1.00  0.00    -0.195 OA
BRANCH  27  28
HETATM   28  P2  UNL     1     -10.988  13.268  -3.836  1.00  0.00     0.401 P 
HETATM   29  O8  UNL     1     -10.503  14.343  -4.753  1.00  0.00    -0.631 OA
BRANCH  28  30
HETATM   30  O9  UNL     1     -12.546  12.949  -3.974  1.00  0.00    -0.307 OA
HETATM   31  H24 UNL     1     -12.864  12.228  -3.377  1.00  0.00     0.222 HD
ENDBRANCH  28  30
BRANCH  28  32
HETATM   32  O10 UNL     1     -10.889  13.585  -2.274  1.00  0.00    -0.294 OA
BRANCH  32  33
HETATM   33  C14 UNL     1     -10.121  14.671  -1.825  1.00  0.00     0.215 C 
BRANCH  33  34
HETATM   34  C15 UNL     1     -10.433  14.828  -0.338  1.00  0.00     0.180 C 
HETATM   35  C16 UNL     1      -9.824  16.123   0.182  1.00  0.00     0.197 C 
HETATM   36  C17 UNL     1      -8.822  15.683   1.232  1.00  0.00     0.199 C 
HETATM   37  C18 UNL     1      -9.389  14.330   1.672  1.00  0.00     0.262 C 
HETATM   38  O11 UNL     1      -9.918  13.754   0.457  1.00  0.00    -0.353 OA
BRANCH  35  39
HETATM   39  O13 UNL     1     -10.871  16.912   0.737  1.00  0.00    -0.286 OA
BRANCH  39  40
HETATM   40  P3  UNL     1     -11.392  18.111  -0.183  1.00  0.00     0.391 P 
HETATM   41  O14 UNL     1     -11.625  19.385   0.563  1.00  0.00    -0.632 OA
BRANCH  40  42
HETATM   42  O15 UNL     1     -12.653  17.423  -0.886  1.00  0.00    -0.307 OA
HETATM   43  H36 UNL     1     -13.400  18.063  -0.966  1.00  0.00     0.222 HD
ENDBRANCH  40  42
BRANCH  40  44
HETATM   44  O16 UNL     1     -10.297  18.123  -1.336  1.00  0.00    -0.307 OA
HETATM   45  H37 UNL     1      -9.400  18.284  -1.001  1.00  0.00     0.222 HD
ENDBRANCH  40  44
ENDBRANCH  39  40
ENDBRANCH  35  39
BRANCH  36  46
HETATM   46  O12 UNL     1      -8.679  16.692   2.235  1.00  0.00    -0.388 OA
HETATM   47  H35 UNL     1      -9.575  16.823   2.627  1.00  0.00     0.210 HD
ENDBRANCH  36  46
BRANCH  37  48
HETATM   48  N3  UNL     1      -8.370  13.446   2.202  1.00  0.00    -0.297 N 
HETATM   49  C19 UNL     1      -8.325  12.891   3.460  1.00  0.00     0.188 A 
HETATM   50  N4  UNL     1      -7.338  12.031   3.590  1.00  0.00    -0.346 N 
HETATM   51  C20 UNL     1      -6.716  12.025   2.354  1.00  0.00     0.116 A 
HETATM   52  H4  UNL     1      -7.088  11.489   4.417  1.00  0.00     0.167 HD
HETATM   53  C21 UNL     1      -5.632  11.294   1.837  1.00  0.00     0.109 A 
HETATM   54  C23 UNL     1      -7.321  12.927   1.497  1.00  0.00     0.142 A 
HETATM   55  N5  UNL     1      -5.243  11.528   0.559  1.00  0.00    -0.341 N 
HETATM   56  C22 UNL     1      -5.913  12.455  -0.153  1.00  0.00     0.183 A 
HETATM   57  H5  UNL     1      -4.463  11.014   0.148  1.00  0.00     0.167 HD
HETATM   58  N6  UNL     1      -6.965  13.207   0.231  1.00  0.00    -0.336 N 
HETATM   59  H6  UNL     1      -7.430  13.896  -0.360  1.00  0.00     0.168 HD
BRANCH  53  60
HETATM   60  N7  UNL     1      -4.930  10.350   2.569  1.00  0.00    -0.287 NA
HETATM   61  H33 UNL     1      -4.751   9.481   2.070  1.00  0.00     0.125 HD
HETATM   62  H34 UNL     1      -5.256  10.269   3.523  1.00  0.00     0.125 HD
ENDBRANCH  53  60
ENDBRANCH  37  48
ENDBRANCH  33  34
ENDBRANCH  32  33
ENDBRANCH  28  32
ENDBRANCH  27  28
ENDBRANCH  23  27
ENDBRANCH  22  23
ENDBRANCH  21  22
ENDBRANCH  18  21
ENDBRANCH  17  18
BRANCH  17  63
HETATM   63  O17 UNL     1      -6.047   7.538  -5.622  1.00  0.00    -0.385 OA
HETATM   64  H38 UNL     1      -5.736   7.236  -4.752  1.00  0.00     0.210 HD
ENDBRANCH  17  63
ENDBRANCH  14  17
ENDBRANCH  12  13
ENDBRANCH  11  12
ENDBRANCH   8  11
ENDBRANCH   6   7
ENDBRANCH   5   6
ENDBRANCH   4   5
ENDBRANCH   2   4
TORSDOF 27
ENDMDL
MODEL 3
REMARK VINA RESULT:      -4.5      8.310     12.631
REMARK  27 active torsions:
REMARK  status: ('A' for Active; 'I' for Inactive)
REMARK    1  A    between atoms: C2_2  and  S1_4 
REMARK    2  A    between atoms: S1_4  and  C3_5 
REMARK    3  A    between atoms: C3_5  and  C4_6 
REMARK    4  A    between atoms: C4_6  and  N1_7 
REMARK       I    between atoms: N1_7  and  C5_8 
REMARK    5  A    between atoms: C5_8  and  C6_10 
REMARK    6  A    between atoms: C6_10  and  C7_11 
REMARK    7  A    between atoms: C7_11  and  N2_12 
REMARK       I    between atoms: N2_12  and  C8_13 
REMARK    8  A    between atoms: C8_13  and  C9_15 
REMARK    9  A    between atoms: C9_15  and  C10_16 
REMARK   10  A    between atoms: C9_15  and  O17_54 
REMARK   11  A    between atoms: C10_16  and  C13_19 
REMARK   12  A    between atoms: C13_19  and  O4_20 
REMARK   13  A    between atoms: O4_20  and  P1_21 
REMARK   14  A    between atoms: P1_21  and  O6_23 
REMARK   15  A    between atoms: P1_21  and  O7_24 
REMARK   16  A    between atoms: O7_24  and  P2_25 
REMARK   17  A    between atoms: P2_25  and  O9_27 
REMARK   18  A    between atoms: P2_25  and  O10_28 
REMARK   19  A    between atoms: O10_28  and  C14_29 
REMARK   20  A    between atoms: C14_29  and  C15_30 
REMARK   21  A    between atoms: C16_31  and  O13_49 
REMARK   22  A    between atoms: C17_32  and  O12_48 
REMARK   23  A    between atoms: C18_33  and  N3_35 
REMARK   24  A    between atoms: C21_40  and  N7_47 
REMARK   25  A    between atoms: O13_49  and  P3_50 
REMARK   26  A    between atoms: P3_50  and  O15_52 
REMARK   27  A    between atoms: P3_50  and  O16_53 
ROOT
HETATM    1  C1  UNL     1      -8.717  19.857  -6.412  1.00  0.00     0.104 C 
HETATM    2  C2  UNL     1      -7.890  20.067  -5.181  1.00  0.00     0.182 C 
HETATM    3  O1  UNL     1      -6.785  20.604  -5.194  1.00  0.00    -0.286 OA
ENDROOT
BRANCH   2   4
HETATM    4  S1  UNL     1      -8.614  19.442  -3.705  1.00  0.00    -0.091 SA
BRANCH   4   5
HETATM    5  C3  UNL     1      -9.666  18.123  -4.395  1.00  0.00     0.102 C 
BRANCH   5   6
HETATM    6  C4  UNL     1     -10.924  17.900  -3.554  1.00  0.00     0.133 C 
BRANCH   6   7
HETATM    7  N1  UNL     1     -11.053  16.534  -3.091  1.00  0.00    -0.360 N 
HETATM    8  C5  UNL     1     -11.235  16.234  -1.760  1.00  0.00     0.219 C 
HETATM    9  O2  UNL     1     -11.219  17.090  -0.883  1.00  0.00    -0.274 OA
HETATM   10  H8  UNL     1     -11.014  15.785  -3.769  1.00  0.00     0.162 HD
BRANCH   8  11
HETATM   11  C6  UNL     1     -11.401  14.753  -1.497  1.00  0.00     0.122 C 
BRANCH  11  12
HETATM   12  C7  UNL     1     -10.549  14.284  -0.318  1.00  0.00     0.132 C 
BRANCH  12  13
HETATM   13  N2  UNL     1      -9.224  14.866  -0.308  1.00  0.00    -0.358 N 
HETATM   14  C8  UNL     1      -8.544  15.031   0.885  1.00  0.00     0.247 C 
HETATM   15  O3  UNL     1      -9.067  14.808   1.969  1.00  0.00    -0.271 OA
HETATM   16  H13 UNL     1      -8.666  14.699  -1.143  1.00  0.00     0.162 HD
BRANCH  14  17
HETATM   17  C9  UNL     1      -7.086  15.492   0.737  1.00  0.00     0.219 C 
BRANCH  17  18
HETATM   18  C10 UNL     1      -6.066  14.342   0.526  1.00  0.00     0.009 C 
HETATM   19  C11 UNL     1      -4.812  14.515   1.394  1.00  0.00     0.020 C 
HETATM   20  C12 UNL     1      -6.686  12.969   0.856  1.00  0.00     0.020 C 
BRANCH  18  21
HETATM   21  C13 UNL     1      -5.672  14.392  -0.978  1.00  0.00     0.192 C 
BRANCH  21  22
HETATM   22  O4  UNL     1      -6.660  13.821  -1.813  1.00  0.00    -0.296 OA
BRANCH  22  23
HETATM   23  P1  UNL     1      -6.906  14.300  -3.323  1.00  0.00     0.401 P 
HETATM   24  O5  UNL     1      -5.872  15.250  -3.840  1.00  0.00    -0.631 OA
BRANCH  23  25
HETATM   25  O6  UNL     1      -8.408  14.875  -3.390  1.00  0.00    -0.307 OA
HETATM   26  H23 UNL     1      -8.838  14.864  -2.526  1.00  0.00     0.222 HD
ENDBRANCH  23  25
BRANCH  23  27
HETATM   27  O7  UNL     1      -7.052  12.956  -4.161  1.00  0.00    -0.195 OA
BRANCH  27  28
HETATM   28  P2  UNL     1      -5.940  11.825  -4.003  1.00  0.00     0.401 P 
HETATM   29  O8  UNL     1      -4.515  12.272  -4.006  1.00  0.00    -0.631 OA
BRANCH  28  30
HETATM   30  O9  UNL     1      -6.381  11.062  -2.672  1.00  0.00    -0.307 OA
HETATM   31  H24 UNL     1      -6.005  11.447  -1.843  1.00  0.00     0.222 HD
ENDBRANCH  28  30
BRANCH  28  32
HETATM   32  O10 UNL     1      -6.333  10.741  -5.107  1.00  0.00    -0.294 OA
BRANCH  32  33
HETATM   33  C14 UNL     1      -6.865   9.502  -4.717  1.00  0.00     0.215 C 
BRANCH  33  34
HETATM   34  C15 UNL     1      -8.158   9.323  -5.511  1.00  0.00     0.180 C 
HETATM   35  C16 UNL     1      -7.903   9.613  -6.984  1.00  0.00     0.197 C 
HETATM   36  C17 UNL     1      -8.787  10.805  -7.300  1.00  0.00     0.199 C 
HETATM   37  C18 UNL     1      -9.892  10.674  -6.249  1.00  0.00     0.262 C 
HETATM   38  O11 UNL     1      -9.209  10.191  -5.071  1.00  0.00    -0.353 OA
BRANCH  35  39
HETATM   39  O13 UNL     1      -8.270   8.459  -7.731  1.00  0.00    -0.286 OA
BRANCH  39  40
HETATM   40  P3  UNL     1      -7.128   7.854  -8.672  1.00  0.00     0.391 P 
HETATM   41  O14 UNL     1      -7.426   6.479  -9.175  1.00  0.00    -0.632 OA
BRANCH  40  42
HETATM   42  O15 UNL     1      -5.842   8.039  -7.738  1.00  0.00    -0.307 OA
HETATM   43  H36 UNL     1      -5.074   7.534  -8.098  1.00  0.00     0.222 HD
ENDBRANCH  40  42
BRANCH  40  44
HETATM   44  O16 UNL     1      -6.962   9.012  -9.750  1.00  0.00    -0.307 OA
HETATM   45  H37 UNL     1      -6.519   8.712 -10.559  1.00  0.00     0.222 HD
ENDBRANCH  40  44
ENDBRANCH  39  40
ENDBRANCH  35  39
BRANCH  36  46
HETATM   46  O12 UNL     1      -9.181  10.779  -8.674  1.00  0.00    -0.388 OA
HETATM   47  H35 UNL     1      -9.259  11.721  -8.959  1.00  0.00     0.210 HD
ENDBRANCH  36  46
BRANCH  37  48
HETATM   48  N3  UNL     1     -10.517  11.944  -5.938  1.00  0.00    -0.297 N 
HETATM   49  C19 UNL     1     -10.492  12.610  -4.734  1.00  0.00     0.188 A 
HETATM   50  N4  UNL     1     -11.047  13.800  -4.811  1.00  0.00    -0.346 N 
HETATM   51  C20 UNL     1     -11.446  13.914  -6.131  1.00  0.00     0.116 A 
HETATM   52  H4  UNL     1     -11.158  14.486  -4.065  1.00  0.00     0.167 HD
HETATM   53  C21 UNL     1     -12.057  14.952  -6.855  1.00  0.00     0.109 A 
HETATM   54  C23 UNL     1     -11.159  12.756  -6.830  1.00  0.00     0.142 A 
HETATM   55  N5  UNL     1     -12.339  14.751  -8.166  1.00  0.00    -0.341 N 
HETATM   56  C22 UNL     1     -12.023  13.559  -8.711  1.00  0.00     0.183 A 
HETATM   57  H5  UNL     1     -12.778  15.482  -8.725  1.00  0.00     0.167 HD
HETATM   58  N6  UNL     1     -11.431  12.499  -8.122  1.00  0.00    -0.336 N 
HETATM   59  H6  UNL     1     -11.218  11.620  -8.594  1.00  0.00     0.168 HD
BRANCH  53  60
HETATM   60  N7  UNL     1     -12.398  16.174  -6.296  1.00  0.00    -0.287 NA
HETATM   61  H33 UNL     1     -11.602  16.748  -6.028  1.00  0.00     0.125 HD
HETATM   62  H34 UNL     1     -13.155  16.105  -5.630  1.00  0.00     0.125 HD
ENDBRANCH  53  60
ENDBRANCH  37  48
ENDBRANCH  33  34
ENDBRANCH  32  33
ENDBRANCH  28  32
ENDBRANCH  27  28
ENDBRANCH  23  27
ENDBRANCH  22  23
ENDBRANCH  21  22
ENDBRANCH  18  21
ENDBRANCH  17  18
BRANCH  17  63
HETATM   63  O17 UNL     1      -6.968  16.410  -0.355  1.00  0.00    -0.385 OA
HETATM   64  H38 UNL     1      -7.295  17.276  -0.058  1.00  0.00     0.210 HD
ENDBRANCH  17  63
ENDBRANCH  14  17
ENDBRANCH  12  13
ENDBRANCH  11  12
ENDBRANCH   8  11
ENDBRANCH   6   7
ENDBRANCH   5   6
ENDBRANCH   4   5
ENDBRANCH   2   4
TORSDOF 27
ENDMDL
MODEL 4
REMARK VINA RESULT:      -4.5     15.661     19.694
REMARK  27 active torsions:
REMARK  status: ('A' for Active; 'I' for Inactive)
REMARK    1  A    between atoms: C2_2  and  S1_4 
REMARK    2  A    between atoms: S1_4  and  C3_5 
REMARK    3  A    between atoms: C3_5  and  C4_6 
REMARK    4  A    between atoms: C4_6  and  N1_7 
REMARK       I    between atoms: N1_7  and  C5_8 
REMARK    5  A    between atoms: C5_8  and  C6_10 
REMARK    6  A    between atoms: C6_10  and  C7_11 
REMARK    7  A    between atoms: C7_11  and  N2_12 
REMARK       I    between atoms: N2_12  and  C8_13 
REMARK    8  A    between atoms: C8_13  and  C9_15 
REMARK    9  A    between atoms: C9_15  and  C10_16 
REMARK   10  A    between atoms: C9_15  and  O17_54 
REMARK   11  A    between atoms: C10_16  and  C13_19 
REMARK   12  A    between atoms: C13_19  and  O4_20 
REMARK   13  A    between atoms: O4_20  and  P1_21 
REMARK   14  A    between atoms: P1_21  and  O6_23 
REMARK   15  A    between atoms: P1_21  and  O7_24 
REMARK   16  A    between atoms: O7_24  and  P2_25 
REMARK   17  A    between atoms: P2_25  and  O9_27 
REMARK   18  A    between atoms: P2_25  and  O10_28 
REMARK   19  A    between atoms: O10_28  and  C14_29 
REMARK   20  A    between atoms: C14_29  and  C15_30 
REMARK   21  A    between atoms: C16_31  and  O13_49 
REMARK   22  A    between atoms: C17_32  and  O12_48 
REMARK   23  A    between atoms: C18_33  and  N3_35 
REMARK   24  A    between atoms: C21_40  and  N7_47 
REMARK   25  A    between atoms: O13_49  and  P3_50 
REMARK   26  A    between atoms: P3_50  and  O15_52 
REMARK   27  A    between atoms: P3_50  and  O16_53 
ROOT
HETATM    1  C1  UNL     1     -20.674   7.629   5.892  1.00  0.00     0.104 C 
HETATM    2  C2  UNL     1     -20.635   8.023   7.337  1.00  0.00     0.182 C 
HETATM    3  O1  UNL     1     -20.308   9.144   7.722  1.00  0.00    -0.286 OA
ENDROOT
BRANCH   2   4
HETATM    4  S1  UNL     1     -21.058   6.732   8.453  1.00  0.00    -0.091 SA
BRANCH   4   5
HETATM    5  C3  UNL     1     -20.536   5.281   7.483  1.00  0.00     0.102 C 
BRANCH   5   6
HETATM    6  C4  UNL     1     -21.190   3.993   7.987  1.00  0.00     0.133 C 
BRANCH   6   7
HETATM    7  N1  UNL     1     -20.707   2.814   7.298  1.00  0.00    -0.360 N 
HETATM    8  C5  UNL     1     -21.403   2.251   6.253  1.00  0.00     0.219 C 
HETATM    9  O2  UNL     1     -22.502   2.659   5.896  1.00  0.00    -0.274 OA
HETATM   10  H8  UNL     1     -19.832   2.403   7.592  1.00  0.00     0.162 HD
BRANCH   8  11
HETATM   11  C6  UNL     1     -20.699   1.061   5.637  1.00  0.00     0.122 C 
BRANCH  11  12
HETATM   12  C7  UNL     1     -21.041   0.899   4.156  1.00  0.00     0.132 C 
BRANCH  12  13
HETATM   13  N2  UNL     1     -22.417   0.510   3.931  1.00  0.00    -0.358 N 
HETATM   14  C8  UNL     1     -22.890  -0.694   4.421  1.00  0.00     0.247 C 
HETATM   15  O3  UNL     1     -22.153  -1.517   4.949  1.00  0.00    -0.271 OA
HETATM   16  H13 UNL     1     -23.083   1.276   3.858  1.00  0.00     0.162 HD
BRANCH  14  17
HETATM   17  C9  UNL     1     -24.404  -0.902   4.268  1.00  0.00     0.219 C 
BRANCH  17  18
HETATM   18  C10 UNL     1     -25.188  -0.930   5.606  1.00  0.00     0.009 C 
HETATM   19  C11 UNL     1     -25.096  -2.296   6.302  1.00  0.00     0.020 C 
HETATM   20  C12 UNL     1     -24.668   0.139   6.588  1.00  0.00     0.020 C 
BRANCH  18  21
HETATM   21  C13 UNL     1     -26.669  -0.630   5.239  1.00  0.00     0.192 C 
BRANCH  21  22
HETATM   22  O4  UNL     1     -27.120   0.596   5.780  1.00  0.00    -0.296 OA
BRANCH  22  23
HETATM   23  P1  UNL     1     -27.951   1.670   4.928  1.00  0.00     0.401 P 
HETATM   24  O5  UNL     1     -28.726   2.643   5.760  1.00  0.00    -0.631 OA
BRANCH  23  25
HETATM   25  O6  UNL     1     -28.857   0.839   3.888  1.00  0.00    -0.307 OA
HETATM   26  H23 UNL     1     -29.759   1.181   3.840  1.00  0.00     0.222 HD
ENDBRANCH  23  25
BRANCH  23  27
HETATM   27  O7  UNL     1     -26.886   2.333   3.950  1.00  0.00    -0.195 OA
BRANCH  27  28
HETATM   28  P2  UNL     1     -25.828   3.364   4.548  1.00  0.00     0.401 P 
HETATM   29  O8  UNL     1     -25.794   3.513   6.034  1.00  0.00    -0.631 OA
BRANCH  28  30
HETATM   30  O9  UNL     1     -24.446   2.882   3.910  1.00  0.00    -0.307 OA
HETATM   31  H24 UNL     1     -24.386   3.012   2.932  1.00  0.00     0.222 HD
ENDBRANCH  28  30
BRANCH  28  32
HETATM   32  O10 UNL     1     -26.084   4.704   3.718  1.00  0.00    -0.294 OA
BRANCH  32  33
HETATM   33  C14 UNL     1     -26.383   5.899   4.389  1.00  0.00     0.215 C 
BRANCH  33  34
HETATM   34  C15 UNL     1     -25.980   7.031   3.445  1.00  0.00     0.180 C 
HETATM   35  C16 UNL     1     -24.789   6.598   2.600  1.00  0.00     0.197 C 
HETATM   36  C17 UNL     1     -23.680   7.562   2.978  1.00  0.00     0.199 C 
HETATM   37  C18 UNL     1     -24.464   8.786   3.456  1.00  0.00     0.262 C 
HETATM   38  O11 UNL     1     -25.612   8.231   4.136  1.00  0.00    -0.353 OA
BRANCH  35  39
HETATM   39  O13 UNL     1     -25.156   6.713   1.229  1.00  0.00    -0.286 OA
BRANCH  39  40
HETATM   40  P3  UNL     1     -25.463   5.334   0.481  1.00  0.00     0.391 P 
HETATM   41  O14 UNL     1     -26.916   4.994   0.414  1.00  0.00    -0.632 OA
BRANCH  40  42
HETATM   42  O15 UNL     1     -24.505   4.337   1.286  1.00  0.00    -0.307 OA
HETATM   43  H36 UNL     1     -23.595   4.710   1.359  1.00  0.00     0.222 HD
ENDBRANCH  40  42
BRANCH  40  44
HETATM   44  O16 UNL     1     -24.692   5.543  -0.894  1.00  0.00    -0.307 OA
HETATM   45  H37 UNL     1     -25.011   6.313  -1.391  1.00  0.00     0.222 HD
ENDBRANCH  40  44
ENDBRANCH  39  40
ENDBRANCH  35  39
BRANCH  36  46
HETATM   46  O12 UNL     1     -22.786   7.744   1.877  1.00  0.00    -0.388 OA
HETATM   47  H35 UNL     1     -21.954   8.117   2.253  1.00  0.00     0.210 HD
ENDBRANCH  36  46
BRANCH  37  48
HETATM   48  N3  UNL     1     -23.714   9.596   4.395  1.00  0.00    -0.297 N 
HETATM   49  C19 UNL     1     -23.894   9.672   5.756  1.00  0.00     0.188 A 
HETATM   50  N4  UNL     1     -22.968  10.401   6.341  1.00  0.00    -0.346 N 
HETATM   51  C20 UNL     1     -22.144  10.813   5.308  1.00  0.00     0.116 A 
HETATM   52  H4  UNL     1     -22.877  10.614   7.334  1.00  0.00     0.167 HD
HETATM   53  C21 UNL     1     -20.963  11.575   5.278  1.00  0.00     0.109 A 
HETATM   54  C23 UNL     1     -22.617  10.354   4.093  1.00  0.00     0.142 A 
HETATM   55  N5  UNL     1     -20.382  11.823   4.079  1.00  0.00    -0.341 N 
HETATM   56  C22 UNL     1     -20.969  11.330   2.971  1.00  0.00     0.183 A 
HETATM   57  H5  UNL     1     -19.522  12.368   4.018  1.00  0.00     0.167 HD
HETATM   58  N6  UNL     1     -22.089  10.584   2.877  1.00  0.00    -0.336 N 
HETATM   59  H6  UNL     1     -22.484  10.241   2.002  1.00  0.00     0.168 HD
BRANCH  53  60
HETATM   60  N7  UNL     1     -20.363  12.096   6.413  1.00  0.00    -0.287 NA
HETATM   61  H33 UNL     1     -20.272  13.110   6.411  1.00  0.00     0.125 HD
HETATM   62  H34 UNL     1     -19.555  11.567   6.711  1.00  0.00     0.125 HD
ENDBRANCH  53  60
ENDBRANCH  37  48
ENDBRANCH  33  34
ENDBRANCH  32  33
ENDBRANCH  28  32
ENDBRANCH  27  28
ENDBRANCH  23  27
ENDBRANCH  22  23
ENDBRANCH  21  22
ENDBRANCH  18  21
ENDBRANCH  17  18
BRANCH  17  63
HETATM   63  O17 UNL     1     -24.961   0.123   3.437  1.00  0.00    -0.385 OA
HETATM   64  H38 UNL     1     -25.928   0.088   3.522  1.00  0.00     0.210 HD
ENDBRANCH  17  63
ENDBRANCH  14  17
ENDBRANCH  12  13
ENDBRANCH  11  12
ENDBRANCH   8  11
ENDBRANCH   6   7
ENDBRANCH   5   6
ENDBRANCH   4   5
ENDBRANCH   2   4
TORSDOF 27
ENDMDL
MODEL 5
REMARK VINA RESULT:      -4.4     14.117     17.937
REMARK  27 active torsions:
REMARK  status: ('A' for Active; 'I' for Inactive)
REMARK    1  A    between atoms: C2_2  and  S1_4 
REMARK    2  A    between atoms: S1_4  and  C3_5 
REMARK    3  A    between atoms: C3_5  and  C4_6 
REMARK    4  A    between atoms: C4_6  and  N1_7 
REMARK       I    between atoms: N1_7  and  C5_8 
REMARK    5  A    between atoms: C5_8  and  C6_10 
REMARK    6  A    between atoms: C6_10  and  C7_11 
REMARK    7  A    between atoms: C7_11  and  N2_12 
REMARK       I    between atoms: N2_12  and  C8_13 
REMARK    8  A    between atoms: C8_13  and  C9_15 
REMARK    9  A    between atoms: C9_15  and  C10_16 
REMARK   10  A    between atoms: C9_15  and  O17_54 
REMARK   11  A    between atoms: C10_16  and  C13_19 
REMARK   12  A    between atoms: C13_19  and  O4_20 
REMARK   13  A    between atoms: O4_20  and  P1_21 
REMARK   14  A    between atoms: P1_21  and  O6_23 
REMARK   15  A    between atoms: P1_21  and  O7_24 
REMARK   16  A    between atoms: O7_24  and  P2_25 
REMARK   17  A    between atoms: P2_25  and  O9_27 
REMARK   18  A    between atoms: P2_25  and  O10_28 
REMARK   19  A    between atoms: O10_28  and  C14_29 
REMARK   20  A    between atoms: C14_29  and  C15_30 
REMARK   21  A    between atoms: C16_31  and  O13_49 
REMARK   22  A    between atoms: C17_32  and  O12_48 
REMARK   23  A    between atoms: C18_33  and  N3_35 
REMARK   24  A    between atoms: C21_40  and  N7_47 
REMARK   25  A    between atoms: O13_49  and  P3_50 
REMARK   26  A    between atoms: P3_50  and  O15_52 
REMARK   27  A    between atoms: P3_50  and  O16_53 
ROOT
HETATM    1  C1  UNL     1     -26.014  12.025  11.724  1.00  0.00     0.104 C 
HETATM    2  C2  UNL     1     -24.865  11.309  11.082  1.00  0.00     0.182 C 
HETATM    3  O1  UNL     1     -23.740  11.792  10.982  1.00  0.00    -0.286 OA
ENDROOT
BRANCH   2   4
HETATM    4  S1  UNL     1     -25.268   9.722  10.440  1.00  0.00    -0.091 SA
BRANCH   4   5
HETATM    5  C3  UNL     1     -23.615   8.955  10.412  1.00  0.00     0.102 C 
BRANCH   5   6
HETATM    6  C4  UNL     1     -23.594   7.678   9.570  1.00  0.00     0.133 C 
BRANCH   6   7
HETATM    7  N1  UNL     1     -22.549   7.687   8.567  1.00  0.00    -0.360 N 
HETATM    8  C5  UNL     1     -21.648   6.654   8.451  1.00  0.00     0.219 C 
HETATM    9  O2  UNL     1     -21.622   5.710   9.232  1.00  0.00    -0.274 OA
HETATM   10  H8  UNL     1     -22.489   8.473   7.933  1.00  0.00     0.162 HD
BRANCH   8  11
HETATM   11  C6  UNL     1     -20.675   6.833   7.305  1.00  0.00     0.122 C 
BRANCH  11  12
HETATM   12  C7  UNL     1     -20.774   5.696   6.289  1.00  0.00     0.132 C 
BRANCH  12  13
HETATM   13  N2  UNL     1     -21.910   4.828   6.517  1.00  0.00    -0.358 N 
HETATM   14  C8  UNL     1     -21.795   3.464   6.325  1.00  0.00     0.247 C 
HETATM   15  O3  UNL     1     -20.787   2.956   5.850  1.00  0.00    -0.271 OA
HETATM   16  H13 UNL     1     -22.567   5.145   7.227  1.00  0.00     0.162 HD
BRANCH  14  17
HETATM   17  C9  UNL     1     -23.016   2.645   6.770  1.00  0.00     0.219 C 
BRANCH  17  18
HETATM   18  C10 UNL     1     -23.924   2.162   5.610  1.00  0.00     0.009 C 
HETATM   19  C11 UNL     1     -23.244   1.085   4.752  1.00  0.00     0.020 C 
HETATM   20  C12 UNL     1     -25.253   1.582   6.135  1.00  0.00     0.020 C 
BRANCH  18  21
HETATM   21  C13 UNL     1     -24.209   3.420   4.739  1.00  0.00     0.192 C 
BRANCH  21  22
HETATM   22  O4  UNL     1     -25.405   3.300   3.996  1.00  0.00    -0.296 OA
BRANCH  22  23
HETATM   23  P1  UNL     1     -25.577   3.901   2.519  1.00  0.00     0.401 P 
HETATM   24  O5  UNL     1     -26.978   4.304   2.181  1.00  0.00    -0.631 OA
BRANCH  23  25
HETATM   25  O6  UNL     1     -24.948   2.823   1.503  1.00  0.00    -0.307 OA
HETATM   26  H23 UNL     1     -24.218   2.333   1.902  1.00  0.00     0.222 HD
ENDBRANCH  23  25
BRANCH  23  27
HETATM   27  O7  UNL     1     -24.507   5.075   2.427  1.00  0.00    -0.195 OA
BRANCH  27  28
HETATM   28  P2  UNL     1     -24.573   6.082   1.194  1.00  0.00     0.401 P 
HETATM   29  O8  UNL     1     -24.845   5.489  -0.150  1.00  0.00    -0.631 OA
BRANCH  28  30
HETATM   30  O9  UNL     1     -25.654   7.161   1.660  1.00  0.00    -0.307 OA
HETATM   31  H24 UNL     1     -26.571   6.980   1.338  1.00  0.00     0.222 HD
ENDBRANCH  28  30
BRANCH  28  32
HETATM   32  O10 UNL     1     -23.231   6.937   1.322  1.00  0.00    -0.294 OA
BRANCH  32  33
HETATM   33  C14 UNL     1     -23.245   8.171   1.990  1.00  0.00     0.215 C 
BRANCH  33  34
HETATM   34  C15 UNL     1     -22.456   7.966   3.282  1.00  0.00     0.180 C 
HETATM   35  C16 UNL     1     -23.241   8.527   4.460  1.00  0.00     0.197 C 
HETATM   36  C17 UNL     1     -22.365   9.634   5.015  1.00  0.00     0.199 C 
HETATM   37  C18 UNL     1     -20.968   9.192   4.570  1.00  0.00     0.262 C 
HETATM   38  O11 UNL     1     -21.177   8.610   3.264  1.00  0.00    -0.353 OA
BRANCH  35  39
HETATM   39  O13 UNL     1     -23.438   7.476   5.400  1.00  0.00    -0.286 OA
BRANCH  39  40
HETATM   40  P3  UNL     1     -24.957   7.193   5.810  1.00  0.00     0.391 P 
HETATM   41  O14 UNL     1     -25.866   6.980   4.644  1.00  0.00    -0.632 OA
BRANCH  40  42
HETATM   42  O15 UNL     1     -25.249   8.448   6.758  1.00  0.00    -0.307 OA
HETATM   43  H36 UNL     1     -26.194   8.724   6.690  1.00  0.00     0.222 HD
ENDBRANCH  40  42
BRANCH  40  44
HETATM   44  O16 UNL     1     -24.787   5.993   6.840  1.00  0.00    -0.307 OA
HETATM   45  H37 UNL     1     -25.124   6.206   7.725  1.00  0.00     0.222 HD
ENDBRANCH  40  44
ENDBRANCH  39  40
ENDBRANCH  35  39
BRANCH  36  46
HETATM   46  O12 UNL     1     -22.589   9.787   6.419  1.00  0.00    -0.388 OA
HETATM   47  H35 UNL     1     -23.007   8.948   6.727  1.00  0.00     0.210 HD
ENDBRANCH  36  46
BRANCH  37  48
HETATM   48  N3  UNL     1     -20.047  10.304   4.443  1.00  0.00    -0.297 N 
HETATM   49  C19 UNL     1     -18.847  10.468   5.093  1.00  0.00     0.188 A 
HETATM   50  N4  UNL     1     -18.187  11.522   4.665  1.00  0.00    -0.346 N 
HETATM   51  C20 UNL     1     -18.999  12.067   3.685  1.00  0.00     0.116 A 
HETATM   52  H4  UNL     1     -17.280  11.863   4.983  1.00  0.00     0.167 HD
HETATM   53  C21 UNL     1     -18.846  13.168   2.825  1.00  0.00     0.109 A 
HETATM   54  C23 UNL     1     -20.172  11.345   3.565  1.00  0.00     0.142 A 
HETATM   55  N5  UNL     1     -19.848  13.460   1.960  1.00  0.00    -0.341 N 
HETATM   56  C22 UNL     1     -20.947  12.680   1.970  1.00  0.00     0.183 A 
HETATM   57  H5  UNL     1     -19.772  14.249   1.318  1.00  0.00     0.167 HD
HETATM   58  N6  UNL     1     -21.201  11.600   2.737  1.00  0.00    -0.336 N 
HETATM   59  H6  UNL     1     -22.059  11.050   2.696  1.00  0.00     0.168 HD
BRANCH  53  60
HETATM   60  N7  UNL     1     -17.725  13.982   2.820  1.00  0.00    -0.287 NA
HETATM   61  H33 UNL     1     -17.183  13.954   3.682  1.00  0.00     0.125 HD
HETATM   62  H34 UNL     1     -17.901  14.895   2.423  1.00  0.00     0.125 HD
ENDBRANCH  53  60
ENDBRANCH  37  48
ENDBRANCH  33  34
ENDBRANCH  32  33
ENDBRANCH  28  32
ENDBRANCH  27  28
ENDBRANCH  23  27
ENDBRANCH  22  23
ENDBRANCH  21  22
ENDBRANCH  18  21
ENDBRANCH  17  18
BRANCH  17  63
HETATM   63  O17 UNL     1     -22.594   1.502   7.523  1.00  0.00    -0.385 OA
HETATM   64  H38 UNL     1     -21.753   1.721   7.959  1.00  0.00     0.210 HD
ENDBRANCH  17  63
ENDBRANCH  14  17
ENDBRANCH  12  13
ENDBRANCH  11  12
ENDBRANCH   8  11
ENDBRANCH   6   7
ENDBRANCH   5   6
ENDBRANCH   4   5
ENDBRANCH   2   4
TORSDOF 27
ENDMDL
MODEL 6
REMARK VINA RESULT:      -4.3     15.672     19.414
REMARK  27 active torsions:
REMARK  status: ('A' for Active; 'I' for Inactive)
REMARK    1  A    between atoms: C2_2  and  S1_4 
REMARK    2  A    between atoms: S1_4  and  C3_5 
REMARK    3  A    between atoms: C3_5  and  C4_6 
REMARK    4  A    between atoms: C4_6  and  N1_7 
REMARK       I    between atoms: N1_7  and  C5_8 
REMARK    5  A    between atoms: C5_8  and  C6_10 
REMARK    6  A    between atoms: C6_10  and  C7_11 
REMARK    7  A    between atoms: C7_11  and  N2_12 
REMARK       I    between atoms: N2_12  and  C8_13 
REMARK    8  A    between atoms: C8_13  and  C9_15 
REMARK    9  A    between atoms: C9_15  and  C10_16 
REMARK   10  A    between atoms: C9_15  and  O17_54 
REMARK   11  A    between atoms: C10_16  and  C13_19 
REMARK   12  A    between atoms: C13_19  and  O4_20 
REMARK   13  A    between atoms: O4_20  and  P1_21 
REMARK   14  A    between atoms: P1_21  and  O6_23 
REMARK   15  A    between atoms: P1_21  and  O7_24 
REMARK   16  A    between atoms: O7_24  and  P2_25 
REMARK   17  A    between atoms: P2_25  and  O9_27 
REMARK   18  A    between atoms: P2_25  and  O10_28 
REMARK   19  A    between atoms: O10_28  and  C14_29 
REMARK   20  A    between atoms: C14_29  and  C15_30 
REMARK   21  A    between atoms: C16_31  and  O13_49 
REMARK   22  A    between atoms: C17_32  and  O12_48 
REMARK   23  A    between atoms: C18_33  and  N3_35 
REMARK   24  A    between atoms: C21_40  and  N7_47 
REMARK   25  A    between atoms: O13_49  and  P3_50 
REMARK   26  A    between atoms: P3_50  and  O15_52 
REMARK   27  A    between atoms: P3_50  and  O16_53 
ROOT
HETATM    1  C1  UNL     1     -25.206   5.017  12.313  1.00  0.00     0.104 C 
HETATM    2  C2  UNL     1     -25.080   4.707  10.852  1.00  0.00     0.182 C 
HETATM    3  O1  UNL     1     -24.898   5.566   9.993  1.00  0.00    -0.286 OA
ENDROOT
BRANCH   2   4
HETATM    4  S1  UNL     1     -25.253   3.003  10.456  1.00  0.00    -0.091 SA
BRANCH   4   5
HETATM    5  C3  UNL     1     -26.573   3.095   9.202  1.00  0.00     0.102 C 
BRANCH   5   6
HETATM    6  C4  UNL     1     -26.030   2.888   7.787  1.00  0.00     0.133 C 
BRANCH   6   7
HETATM    7  N1  UNL     1     -26.610   1.737   7.127  1.00  0.00    -0.360 N 
HETATM    8  C5  UNL     1     -27.704   1.851   6.302  1.00  0.00     0.219 C 
HETATM    9  O2  UNL     1     -28.300   2.910   6.137  1.00  0.00    -0.274 OA
HETATM   10  H8  UNL     1     -26.191   0.829   7.276  1.00  0.00     0.162 HD
BRANCH   8  11
HETATM   11  C6  UNL     1     -28.117   0.539   5.670  1.00  0.00     0.122 C 
BRANCH  11  12
HETATM   12  C7  UNL     1     -28.915   0.751   4.384  1.00  0.00     0.132 C 
BRANCH  12  13
HETATM   13  N2  UNL     1     -28.108   1.254   3.292  1.00  0.00    -0.358 N 
HETATM   14  C8  UNL     1     -28.422   2.460   2.691  1.00  0.00     0.247 C 
HETATM   15  O3  UNL     1     -29.439   3.081   2.969  1.00  0.00    -0.271 OA
HETATM   16  H13 UNL     1     -27.127   0.986   3.313  1.00  0.00     0.162 HD
BRANCH  14  17
HETATM   17  C9  UNL     1     -27.387   2.960   1.672  1.00  0.00     0.219 C 
BRANCH  17  18
HETATM   18  C10 UNL     1     -26.445   4.072   2.204  1.00  0.00     0.009 C 
HETATM   19  C11 UNL     1     -25.279   4.349   1.245  1.00  0.00     0.020 C 
HETATM   20  C12 UNL     1     -27.204   5.396   2.426  1.00  0.00     0.020 C 
BRANCH  18  21
HETATM   21  C13 UNL     1     -25.893   3.549   3.561  1.00  0.00     0.192 C 
BRANCH  21  22
HETATM   22  O4  UNL     1     -24.613   2.964   3.432  1.00  0.00    -0.296 OA
BRANCH  22  23
HETATM   23  P1  UNL     1     -24.294   1.459   3.884  1.00  0.00     0.401 P 
HETATM   24  O5  UNL     1     -25.378   0.480   3.559  1.00  0.00    -0.631 OA
BRANCH  23  25
HETATM   25  O6  UNL     1     -23.917   1.513   5.448  1.00  0.00    -0.307 OA
HETATM   26  H23 UNL     1     -23.258   2.194   5.638  1.00  0.00     0.222 HD
ENDBRANCH  23  25
BRANCH  23  27
HETATM   27  O7  UNL     1     -22.880   1.126   3.236  1.00  0.00    -0.195 OA
BRANCH  27  28
HETATM   28  P2  UNL     1     -21.757   0.452   4.143  1.00  0.00     0.401 P 
HETATM   29  O8  UNL     1     -22.150  -0.767   4.912  1.00  0.00    -0.631 OA
BRANCH  28  30
HETATM   30  O9  UNL     1     -20.553   0.218   3.122  1.00  0.00    -0.307 OA
HETATM   31  H24 UNL     1     -19.760  -0.215   3.524  1.00  0.00     0.222 HD
ENDBRANCH  28  30
BRANCH  28  32
HETATM   32  O10 UNL     1     -21.179   1.665   5.006  1.00  0.00    -0.294 OA
BRANCH  32  33
HETATM   33  C14 UNL     1     -20.382   1.408   6.133  1.00  0.00     0.215 C 
BRANCH  33  34
HETATM   34  C15 UNL     1     -20.120   2.763   6.788  1.00  0.00     0.180 C 
HETATM   35  C16 UNL     1     -21.035   2.939   7.993  1.00  0.00     0.197 C 
HETATM   36  C17 UNL     1     -21.894   4.141   7.651  1.00  0.00     0.199 C 
HETATM   37  C18 UNL     1     -21.006   4.903   6.664  1.00  0.00     0.262 C 
HETATM   38  O11 UNL     1     -20.349   3.866   5.903  1.00  0.00    -0.353 OA
BRANCH  35  39
HETATM   39  O13 UNL     1     -20.219   3.169   9.137  1.00  0.00    -0.286 OA
BRANCH  39  40
HETATM   40  P3  UNL     1     -20.608   2.330  10.441  1.00  0.00     0.391 P 
HETATM   41  O14 UNL     1     -21.762   2.898  11.201  1.00  0.00    -0.632 OA
BRANCH  40  42
HETATM   42  O15 UNL     1     -19.193   2.260  11.184  1.00  0.00    -0.307 OA
HETATM   43  H36 UNL     1     -18.459   2.462  10.556  1.00  0.00     0.222 HD
ENDBRANCH  40  42
BRANCH  40  44
HETATM   44  O16 UNL     1     -20.772   0.868   9.837  1.00  0.00    -0.307 OA
HETATM   45  H37 UNL     1     -19.924   0.466   9.589  1.00  0.00     0.222 HD
ENDBRANCH  40  44
ENDBRANCH  39  40
ENDBRANCH  35  39
BRANCH  36  46
HETATM   46  O12 UNL     1     -22.287   4.825   8.844  1.00  0.00    -0.388 OA
HETATM   47  H35 UNL     1     -22.719   5.663   8.555  1.00  0.00     0.210 HD
ENDBRANCH  36  46
BRANCH  37  48
HETATM   48  N3  UNL     1     -21.769   5.735   5.757  1.00  0.00    -0.297 N 
HETATM   49  C19 UNL     1     -23.081   5.567   5.378  1.00  0.00     0.188 A 
HETATM   50  N4  UNL     1     -23.519   6.564   4.641  1.00  0.00    -0.346 N 
HETATM   51  C20 UNL     1     -22.440   7.424   4.541  1.00  0.00     0.116 A 
HETATM   52  H4  UNL     1     -24.448   6.678   4.235  1.00  0.00     0.167 HD
HETATM   53  C21 UNL     1     -22.275   8.678   3.927  1.00  0.00     0.109 A 
HETATM   54  C23 UNL     1     -21.338   6.904   5.194  1.00  0.00     0.142 A 
HETATM   55  N5  UNL     1     -21.063   9.280   3.997  1.00  0.00    -0.341 N 
HETATM   56  C22 UNL     1     -20.070   8.642   4.649  1.00  0.00     0.183 A 
HETATM   57  H5  UNL     1     -20.906  10.192   3.567  1.00  0.00     0.167 HD
HETATM   58  N6  UNL     1     -20.112   7.451   5.279  1.00  0.00    -0.336 N 
HETATM   59  H6  UNL     1     -19.320   7.021   5.757  1.00  0.00     0.168 HD
BRANCH  53  60
HETATM   60  N7  UNL     1     -23.288   9.331   3.243  1.00  0.00    -0.287 NA
HETATM   61  H33 UNL     1     -24.154   9.429   3.769  1.00  0.00     0.125 HD
HETATM   62  H34 UNL     1     -23.371   9.031   2.281  1.00  0.00     0.125 HD
ENDBRANCH  53  60
ENDBRANCH  37  48
ENDBRANCH  33  34
ENDBRANCH  32  33
ENDBRANCH  28  32
ENDBRANCH  27  28
ENDBRANCH  23  27
ENDBRANCH  22  23
ENDBRANCH  21  22
ENDBRANCH  18  21
ENDBRANCH  17  18
BRANCH  17  63
HETATM   63  O17 UNL     1     -26.585   1.868   1.208  1.00  0.00    -0.385 OA
HETATM   64  H38 UNL     1     -25.997   2.201   0.510  1.00  0.00     0.210 HD
ENDBRANCH  17  63
ENDBRANCH  14  17
ENDBRANCH  12  13
ENDBRANCH  11  12
ENDBRANCH   8  11
ENDBRANCH   6   7
ENDBRANCH   5   6
ENDBRANCH   4   5
ENDBRANCH   2   4
TORSDOF 27
ENDMDL
MODEL 7
REMARK VINA RESULT:      -4.3      5.751      9.019
REMARK  27 active torsions:
REMARK  status: ('A' for Active; 'I' for Inactive)
REMARK    1  A    between atoms: C2_2  and  S1_4 
REMARK    2  A    between atoms: S1_4  and  C3_5 
REMARK    3  A    between atoms: C3_5  and  C4_6 
REMARK    4  A    between atoms: C4_6  and  N1_7 
REMARK       I    between atoms: N1_7  and  C5_8 
REMARK    5  A    between atoms: C5_8  and  C6_10 
REMARK    6  A    between atoms: C6_10  and  C7_11 
REMARK    7  A    between atoms: C7_11  and  N2_12 
REMARK       I    between atoms: N2_12  and  C8_13 
REMARK    8  A    between atoms: C8_13  and  C9_15 
REMARK    9  A    between atoms: C9_15  and  C10_16 
REMARK   10  A    between atoms: C9_15  and  O17_54 
REMARK   11  A    between atoms: C10_16  and  C13_19 
REMARK   12  A    between atoms: C13_19  and  O4_20 
REMARK   13  A    between atoms: O4_20  and  P1_21 
REMARK   14  A    between atoms: P1_21  and  O6_23 
REMARK   15  A    between atoms: P1_21  and  O7_24 
REMARK   16  A    between atoms: O7_24  and  P2_25 
REMARK   17  A    between atoms: P2_25  and  O9_27 
REMARK   18  A    between atoms: P2_25  and  O10_28 
REMARK   19  A    between atoms: O10_28  and  C14_29 
REMARK   20  A    between atoms: C14_29  and  C15_30 
REMARK   21  A    between atoms: C16_31  and  O13_49 
REMARK   22  A    between atoms: C17_32  and  O12_48 
REMARK   23  A    between atoms: C18_33  and  N3_35 
REMARK   24  A    between atoms: C21_40  and  N7_47 
REMARK   25  A    between atoms: O13_49  and  P3_50 
REMARK   26  A    between atoms: P3_50  and  O15_52 
REMARK   27  A    between atoms: P3_50  and  O16_53 
ROOT
HETATM    1  C1  UNL     1     -18.741  15.509  13.407  1.00  0.00     0.104 C 
HETATM    2  C2  UNL     1     -18.067  14.291  12.852  1.00  0.00     0.182 C 
HETATM    3  O1  UNL     1     -18.566  13.169  12.888  1.00  0.00    -0.286 OA
ENDROOT
BRANCH   2   4
HETATM    4  S1  UNL     1     -16.473  14.590  12.174  1.00  0.00    -0.091 SA
BRANCH   4   5
HETATM    5  C3  UNL     1     -16.367  13.218  10.980  1.00  0.00     0.102 C 
BRANCH   5   6
HETATM    6  C4  UNL     1     -15.925  13.699   9.596  1.00  0.00     0.133 C 
BRANCH   6   7
HETATM    7  N1  UNL     1     -15.741  12.611   8.658  1.00  0.00    -0.360 N 
HETATM    8  C5  UNL     1     -14.521  12.353   8.079  1.00  0.00     0.219 C 
HETATM    9  O2  UNL     1     -13.542  13.069   8.256  1.00  0.00    -0.274 OA
HETATM   10  H8  UNL     1     -16.533  12.024   8.432  1.00  0.00     0.162 HD
BRANCH   8  11
HETATM   11  C6  UNL     1     -14.532  11.140   7.173  1.00  0.00     0.122 C 
BRANCH  11  12
HETATM   12  C7  UNL     1     -14.293   9.846   7.950  1.00  0.00     0.132 C 
BRANCH  12  13
HETATM   13  N2  UNL     1     -12.992   9.795   8.583  1.00  0.00    -0.358 N 
HETATM   14  C8  UNL     1     -12.882   9.475   9.924  1.00  0.00     0.247 C 
HETATM   15  O3  UNL     1     -13.863   9.342  10.645  1.00  0.00    -0.271 OA
HETATM   16  H13 UNL     1     -12.220   9.529   7.976  1.00  0.00     0.162 HD
BRANCH  14  17
HETATM   17  C9  UNL     1     -11.443   9.283  10.425  1.00  0.00     0.219 C 
BRANCH  17  18
HETATM   18  C10 UNL     1     -11.187   7.931  11.141  1.00  0.00     0.009 C 
HETATM   19  C11 UNL     1     -11.844   7.878  12.528  1.00  0.00     0.020 C 
HETATM   20  C12 UNL     1     -11.722   6.743  10.316  1.00  0.00     0.020 C 
BRANCH  18  21
HETATM   21  C13 UNL     1      -9.643   7.813  11.290  1.00  0.00     0.192 C 
BRANCH  21  22
HETATM   22  O4  UNL     1      -9.099   6.799  10.470  1.00  0.00    -0.296 OA
BRANCH  22  23
HETATM   23  P1  UNL     1      -7.522   6.610  10.249  1.00  0.00     0.401 P 
HETATM   24  O5  UNL     1      -7.159   5.424   9.413  1.00  0.00    -0.631 OA
BRANCH  23  25
HETATM   25  O6  UNL     1      -6.845   6.605  11.710  1.00  0.00    -0.307 OA
HETATM   26  H23 UNL     1      -6.713   5.709  12.045  1.00  0.00     0.222 HD
ENDBRANCH  23  25
BRANCH  23  27
HETATM   27  O7  UNL     1      -7.016   8.006   9.679  1.00  0.00    -0.195 OA
BRANCH  27  28
HETATM   28  P2  UNL     1      -5.476   8.387   9.828  1.00  0.00     0.401 P 
HETATM   29  O8  UNL     1      -5.076   9.106  11.075  1.00  0.00    -0.631 OA
BRANCH  28  30
HETATM   30  O9  UNL     1      -4.731   6.991   9.614  1.00  0.00    -0.307 OA
HETATM   31  H24 UNL     1      -5.319   6.202   9.702  1.00  0.00     0.222 HD
ENDBRANCH  28  30
BRANCH  28  32
HETATM   32  O10 UNL     1      -5.125   9.122   8.455  1.00  0.00    -0.294 OA
BRANCH  32  33
HETATM   33  C14 UNL     1      -5.746  10.338   8.130  1.00  0.00     0.215 C 
BRANCH  33  34
HETATM   34  C15 UNL     1      -6.342  10.155   6.736  1.00  0.00     0.180 C 
HETATM   35  C16 UNL     1      -7.833   9.866   6.847  1.00  0.00     0.197 C 
HETATM   36  C17 UNL     1      -8.002   8.480   6.255  1.00  0.00     0.199 C 
HETATM   37  C18 UNL     1      -6.801   8.384   5.311  1.00  0.00     0.262 C 
HETATM   38  O11 UNL     1      -5.742   9.076   6.009  1.00  0.00    -0.353 OA
BRANCH  35  39
HETATM   39  O13 UNL     1      -8.531  10.857   6.100  1.00  0.00    -0.286 OA
BRANCH  39  40
HETATM   40  P3  UNL     1      -9.629  11.687   6.914  1.00  0.00     0.391 P 
HETATM   41  O14 UNL     1      -9.270  11.919   8.346  1.00  0.00    -0.632 OA
BRANCH  40  42
HETATM   42  O15 UNL     1     -10.942  10.825   6.610  1.00  0.00    -0.307 OA
HETATM   43  H36 UNL     1     -11.189  10.891   5.657  1.00  0.00     0.222 HD
ENDBRANCH  40  42
BRANCH  40  44
HETATM   44  O16 UNL     1      -9.811  12.965   5.984  1.00  0.00    -0.307 OA
HETATM   45  H37 UNL     1     -10.297  13.682   6.421  1.00  0.00     0.222 HD
ENDBRANCH  40  44
ENDBRANCH  39  40
ENDBRANCH  35  39
BRANCH  36  46
HETATM   46  O12 UNL     1      -9.303   8.342   5.678  1.00  0.00    -0.388 OA
HETATM   47  H35 UNL     1      -9.412   9.098   5.053  1.00  0.00     0.210 HD
ENDBRANCH  36  46
BRANCH  37  48
HETATM   48  N3  UNL     1      -6.386   7.015   5.075  1.00  0.00    -0.297 N 
HETATM   49  C19 UNL     1      -5.326   6.588   4.310  1.00  0.00     0.188 A 
HETATM   50  N4  UNL     1      -5.138   5.290   4.400  1.00  0.00    -0.346 N 
HETATM   51  C20 UNL     1      -6.122   4.854   5.269  1.00  0.00     0.116 A 
HETATM   52  H4  UNL     1      -4.425   4.729   3.933  1.00  0.00     0.167 HD
HETATM   53  C21 UNL     1      -6.431   3.591   5.803  1.00  0.00     0.109 A 
HETATM   54  C23 UNL     1      -6.927   5.907   5.664  1.00  0.00     0.142 A 
HETATM   55  N5  UNL     1      -7.490   3.482   6.641  1.00  0.00    -0.341 N 
HETATM   56  C22 UNL     1      -8.201   4.593   6.919  1.00  0.00     0.183 A 
HETATM   57  H5  UNL     1      -7.743   2.582   7.051  1.00  0.00     0.167 HD
HETATM   58  N6  UNL     1      -7.996   5.850   6.477  1.00  0.00    -0.336 N 
HETATM   59  H6  UNL     1      -8.575   6.653   6.727  1.00  0.00     0.168 HD
BRANCH  53  60
HETATM   60  N7  UNL     1      -5.713   2.443   5.509  1.00  0.00    -0.287 NA
HETATM   61  H33 UNL     1      -4.832   2.359   6.012  1.00  0.00     0.125 HD
HETATM   62  H34 UNL     1      -5.694   2.231   4.520  1.00  0.00     0.125 HD
ENDBRANCH  53  60
ENDBRANCH  37  48
ENDBRANCH  33  34
ENDBRANCH  32  33
ENDBRANCH  28  32
ENDBRANCH  27  28
ENDBRANCH  23  27
ENDBRANCH  22  23
ENDBRANCH  21  22
ENDBRANCH  18  21
ENDBRANCH  17  18
BRANCH  17  63
HETATM   63  O17 UNL     1     -10.522   9.401   9.334  1.00  0.00    -0.385 OA
HETATM   64  H38 UNL     1     -10.605   8.606   8.782  1.00  0.00     0.210 HD
ENDBRANCH  17  63
ENDBRANCH  14  17
ENDBRANCH  12  13
ENDBRANCH  11  12
ENDBRANCH   8  11
ENDBRANCH   6   7
ENDBRANCH   5   6
ENDBRANCH   4   5
ENDBRANCH   2   4
TORSDOF 27
ENDMDL
MODEL 8
REMARK VINA RESULT:      -4.2     16.027     20.078
REMARK  27 active torsions:
REMARK  status: ('A' for Active; 'I' for Inactive)
REMARK    1  A    between atoms: C2_2  and  S1_4 
REMARK    2  A    between atoms: S1_4  and  C3_5 
REMARK    3  A    between atoms: C3_5  and  C4_6 
REMARK    4  A    between atoms: C4_6  and  N1_7 
REMARK       I    between atoms: N1_7  and  C5_8 
REMARK    5  A    between atoms: C5_8  and  C6_10 
REMARK    6  A    between atoms: C6_10  and  C7_11 
REMARK    7  A    between atoms: C7_11  and  N2_12 
REMARK       I    between atoms: N2_12  and  C8_13 
REMARK    8  A    between atoms: C8_13  and  C9_15 
REMARK    9  A    between atoms: C9_15  and  C10_16 
REMARK   10  A    between atoms: C9_15  and  O17_54 
REMARK   11  A    between atoms: C10_16  and  C13_19 
REMARK   12  A    between atoms: C13_19  and  O4_20 
REMARK   13  A    between atoms: O4_20  and  P1_21 
REMARK   14  A    between atoms: P1_21  and  O6_23 
REMARK   15  A    between atoms: P1_21  and  O7_24 
REMARK   16  A    between atoms: O7_24  and  P2_25 
REMARK   17  A    between atoms: P2_25  and  O9_27 
REMARK   18  A    between atoms: P2_25  and  O10_28 
REMARK   19  A    between atoms: O10_28  and  C14_29 
REMARK   20  A    between atoms: C14_29  and  C15_30 
REMARK   21  A    between atoms: C16_31  and  O13_49 
REMARK   22  A    between atoms: C17_32  and  O12_48 
REMARK   23  A    between atoms: C18_33  and  N3_35 
REMARK   24  A    between atoms: C21_40  and  N7_47 
REMARK   25  A    between atoms: O13_49  and  P3_50 
REMARK   26  A    between atoms: P3_50  and  O15_52 
REMARK   27  A    between atoms: P3_50  and  O16_53 
ROOT
HETATM    1  C1  UNL     1     -22.941   6.502  10.441  1.00  0.00     0.104 C 
HETATM    2  C2  UNL     1     -21.481   6.209  10.272  1.00  0.00     0.182 C 
HETATM    3  O1  UNL     1     -20.908   6.239   9.186  1.00  0.00    -0.286 OA
ENDROOT
BRANCH   2   4
HETATM    4  S1  UNL     1     -20.652   5.776  11.761  1.00  0.00    -0.091 SA
BRANCH   4   5
HETATM    5  C3  UNL     1     -19.809   4.251  11.230  1.00  0.00     0.102 C 
BRANCH   5   6
HETATM    6  C4  UNL     1     -20.753   3.310  10.478  1.00  0.00     0.133 C 
BRANCH   6   7
HETATM    7  N1  UNL     1     -20.305   3.029   9.130  1.00  0.00    -0.360 N 
HETATM    8  C5  UNL     1     -20.701   1.897   8.456  1.00  0.00     0.219 C 
HETATM    9  O2  UNL     1     -21.386   1.025   8.978  1.00  0.00    -0.274 OA
HETATM   10  H8  UNL     1     -19.690   3.690   8.674  1.00  0.00     0.162 HD
BRANCH   8  11
HETATM   11  C6  UNL     1     -20.166   1.822   7.043  1.00  0.00     0.122 C 
BRANCH  11  12
HETATM   12  C7  UNL     1     -21.017   2.633   6.066  1.00  0.00     0.132 C 
BRANCH  12  13
HETATM   13  N2  UNL     1     -22.439   2.484   6.294  1.00  0.00    -0.358 N 
HETATM   14  C8  UNL     1     -23.226   3.595   6.533  1.00  0.00     0.247 C 
HETATM   15  O3  UNL     1     -22.749   4.713   6.678  1.00  0.00    -0.271 OA
HETATM   16  H13 UNL     1     -22.877   1.695   5.823  1.00  0.00     0.162 HD
BRANCH  14  17
HETATM   17  C9  UNL     1     -24.736   3.317   6.580  1.00  0.00     0.219 C 
BRANCH  17  18
HETATM   18  C10 UNL     1     -25.274   2.928   7.982  1.00  0.00     0.009 C 
HETATM   19  C11 UNL     1     -24.338   3.388   9.109  1.00  0.00     0.020 C 
HETATM   20  C12 UNL     1     -26.666   3.539   8.243  1.00  0.00     0.020 C 
BRANCH  18  21
HETATM   21  C13 UNL     1     -25.373   1.376   7.986  1.00  0.00     0.192 C 
BRANCH  21  22
HETATM   22  O4  UNL     1     -26.327   0.895   7.061  1.00  0.00    -0.296 OA
BRANCH  22  23
HETATM   23  P1  UNL     1     -25.943  -0.057   5.829  1.00  0.00     0.401 P 
HETATM   24  O5  UNL     1     -26.564   0.344   4.529  1.00  0.00    -0.631 OA
BRANCH  23  25
HETATM   25  O6  UNL     1     -26.292  -1.563   6.279  1.00  0.00    -0.307 OA
HETATM   26  H23 UNL     1     -26.056  -2.207   5.599  1.00  0.00     0.222 HD
ENDBRANCH  23  25
BRANCH  23  27
HETATM   27  O7  UNL     1     -24.353  -0.098   5.822  1.00  0.00    -0.195 OA
BRANCH  27  28
HETATM   28  P2  UNL     1     -23.593  -0.270   4.433  1.00  0.00     0.401 P 
HETATM   29  O8  UNL     1     -22.336  -1.077   4.444  1.00  0.00    -0.631 OA
BRANCH  28  30
HETATM   30  O9  UNL     1     -24.726  -0.844   3.464  1.00  0.00    -0.307 OA
HETATM   31  H24 UNL     1     -25.443  -1.338   3.931  1.00  0.00     0.222 HD
ENDBRANCH  28  30
BRANCH  28  32
HETATM   32  O10 UNL     1     -23.460   1.221   3.877  1.00  0.00    -0.294 OA
BRANCH  32  33
HETATM   33  C14 UNL     1     -23.970   1.547   2.611  1.00  0.00     0.215 C 
BRANCH  33  34
HETATM   34  C15 UNL     1     -25.001   2.651   2.838  1.00  0.00     0.180 C 
HETATM   35  C16 UNL     1     -25.855   2.824   1.589  1.00  0.00     0.197 C 
HETATM   36  C17 UNL     1     -25.582   4.243   1.129  1.00  0.00     0.199 C 
HETATM   37  C18 UNL     1     -25.161   4.929   2.431  1.00  0.00     0.262 C 
HETATM   38  O11 UNL     1     -24.406   3.919   3.137  1.00  0.00    -0.353 OA
BRANCH  35  39
HETATM   39  O13 UNL     1     -27.218   2.631   1.956  1.00  0.00    -0.286 OA
BRANCH  39  40
HETATM   40  P3  UNL     1     -27.976   1.447   1.195  1.00  0.00     0.391 P 
HETATM   41  O14 UNL     1     -29.099   0.849   1.979  1.00  0.00    -0.632 OA
BRANCH  40  42
HETATM   42  O15 UNL     1     -26.745   0.496   0.820  1.00  0.00    -0.307 OA
HETATM   43  H36 UNL     1     -26.565   0.525  -0.150  1.00  0.00     0.222 HD
ENDBRANCH  40  42
BRANCH  40  44
HETATM   44  O16 UNL     1     -28.332   2.141  -0.191  1.00  0.00    -0.307 OA
HETATM   45  H37 UNL     1     -29.095   2.738  -0.128  1.00  0.00     0.222 HD
ENDBRANCH  40  44
ENDBRANCH  39  40
ENDBRANCH  35  39
BRANCH  36  46
HETATM   46  O12 UNL     1     -26.723   4.772   0.448  1.00  0.00    -0.388 OA
HETATM   47  H35 UNL     1     -26.906   5.652   0.855  1.00  0.00     0.210 HD
ENDBRANCH  36  46
BRANCH  37  48
HETATM   48  N3  UNL     1     -24.305   6.076   2.204  1.00  0.00    -0.297 N 
HETATM   49  C19 UNL     1     -23.978   6.642   0.994  1.00  0.00     0.188 A 
HETATM   50  N4  UNL     1     -23.284   7.751   1.133  1.00  0.00    -0.346 N 
HETATM   51  C20 UNL     1     -23.159   7.914   2.502  1.00  0.00     0.116 A 
HETATM   52  H4  UNL     1     -22.919   8.355   0.398  1.00  0.00     0.167 HD
HETATM   53  C21 UNL     1     -22.568   8.916   3.292  1.00  0.00     0.109 A 
HETATM   54  C23 UNL     1     -23.753   6.863   3.176  1.00  0.00     0.142 A 
HETATM   55  N5  UNL     1     -22.601   8.782   4.640  1.00  0.00    -0.341 N 
HETATM   56  C22 UNL     1     -23.196   7.690   5.159  1.00  0.00     0.183 A 
HETATM   57  H5  UNL     1     -22.187   9.490   5.246  1.00  0.00     0.167 HD
HETATM   58  N6  UNL     1     -23.800   6.675   4.507  1.00  0.00    -0.336 N 
HETATM   59  H6  UNL     1     -24.234   5.871   4.962  1.00  0.00     0.168 HD
BRANCH  53  60
HETATM   60  N7  UNL     1     -21.943  10.033   2.763  1.00  0.00    -0.287 NA
HETATM   61  H33 UNL     1     -22.323  10.344   1.872  1.00  0.00     0.125 HD
HETATM   62  H34 UNL     1     -20.935   9.995   2.840  1.00  0.00     0.125 HD
ENDBRANCH  53  60
ENDBRANCH  37  48
ENDBRANCH  33  34
ENDBRANCH  32  33
ENDBRANCH  28  32
ENDBRANCH  27  28
ENDBRANCH  23  27
ENDBRANCH  22  23
ENDBRANCH  21  22
ENDBRANCH  18  21
ENDBRANCH  17  18
BRANCH  17  63
HETATM   63  O17 UNL     1     -25.463   4.459   6.115  1.00  0.00    -0.385 OA
HETATM   64  H38 UNL     1     -24.820   5.143   5.862  1.00  0.00     0.210 HD
ENDBRANCH  17  63
ENDBRANCH  14  17
ENDBRANCH  12  13
ENDBRANCH  11  12
ENDBRANCH   8  11
ENDBRANCH   6   7
ENDBRANCH   5   6
ENDBRANCH   4   5
ENDBRANCH   2   4
TORSDOF 27
ENDMDL
MODEL 9
REMARK VINA RESULT:      -4.2     14.069     17.548
REMARK  27 active torsions:
REMARK  status: ('A' for Active; 'I' for Inactive)
REMARK    1  A    between atoms: C2_2  and  S1_4 
REMARK    2  A    between atoms: S1_4  and  C3_5 
REMARK    3  A    between atoms: C3_5  and  C4_6 
REMARK    4  A    between atoms: C4_6  and  N1_7 
REMARK       I    between atoms: N1_7  and  C5_8 
REMARK    5  A    between atoms: C5_8  and  C6_10 
REMARK    6  A    between atoms: C6_10  and  C7_11 
REMARK    7  A    between atoms: C7_11  and  N2_12 
REMARK       I    between atoms: N2_12  and  C8_13 
REMARK    8  A    between atoms: C8_13  and  C9_15 
REMARK    9  A    between atoms: C9_15  and  C10_16 
REMARK   10  A    between atoms: C9_15  and  O17_54 
REMARK   11  A    between atoms: C10_16  and  C13_19 
REMARK   12  A    between atoms: C13_19  and  O4_20 
REMARK   13  A    between atoms: O4_20  and  P1_21 
REMARK   14  A    between atoms: P1_21  and  O6_23 
REMARK   15  A    between atoms: P1_21  and  O7_24 
REMARK   16  A    between atoms: O7_24  and  P2_25 
REMARK   17  A    between atoms: P2_25  and  O9_27 
REMARK   18  A    between atoms: P2_25  and  O10_28 
REMARK   19  A    between atoms: O10_28  and  C14_29 
REMARK   20  A    between atoms: C14_29  and  C15_30 
REMARK   21  A    between atoms: C16_31  and  O13_49 
REMARK   22  A    between atoms: C17_32  and  O12_48 
REMARK   23  A    between atoms: C18_33  and  N3_35 
REMARK   24  A    between atoms: C21_40  and  N7_47 
REMARK   25  A    between atoms: O13_49  and  P3_50 
REMARK   26  A    between atoms: P3_50  and  O15_52 
REMARK   27  A    between atoms: P3_50  and  O16_53 
ROOT
HETATM    1  C1  UNL     1     -29.278  20.961   6.241  1.00  0.00     0.104 C 
HETATM    2  C2  UNL     1     -28.739  19.750   6.939  1.00  0.00     0.182 C 
HETATM    3  O1  UNL     1     -29.326  19.184   7.858  1.00  0.00    -0.286 OA
ENDROOT
BRANCH   2   4
HETATM    4  S1  UNL     1     -27.165  19.221   6.361  1.00  0.00    -0.091 SA
BRANCH   4   5
HETATM    5  C3  UNL     1     -27.394  19.425   4.565  1.00  0.00     0.102 C 
BRANCH   5   6
HETATM    6  C4  UNL     1     -26.166  18.963   3.777  1.00  0.00     0.133 C 
BRANCH   6   7
HETATM    7  N1  UNL     1     -25.996  19.685   2.533  1.00  0.00    -0.360 N 
HETATM    8  C5  UNL     1     -25.760  19.034   1.345  1.00  0.00     0.219 C 
HETATM    9  O2  UNL     1     -25.601  17.821   1.277  1.00  0.00    -0.274 OA
HETATM   10  H8  UNL     1     -26.060  20.694   2.544  1.00  0.00     0.162 HD
BRANCH   8  11
HETATM   11  C6  UNL     1     -25.669  19.968   0.158  1.00  0.00     0.122 C 
BRANCH  11  12
HETATM   12  C7  UNL     1     -26.762  19.691  -0.873  1.00  0.00     0.132 C 
BRANCH  12  13
HETATM   13  N2  UNL     1     -26.256  19.093  -2.091  1.00  0.00    -0.358 N 
HETATM   14  C8  UNL     1     -26.149  19.847  -3.245  1.00  0.00     0.247 C 
HETATM   15  O3  UNL     1     -26.580  20.991  -3.318  1.00  0.00    -0.271 OA
HETATM   16  H13 UNL     1     -25.583  18.341  -1.963  1.00  0.00     0.162 HD
BRANCH  14  17
HETATM   17  C9  UNL     1     -25.435  19.145  -4.410  1.00  0.00     0.219 C 
BRANCH  17  18
HETATM   18  C10 UNL     1     -23.893  19.317  -4.415  1.00  0.00     0.009 C 
HETATM   19  C11 UNL     1     -23.346  19.583  -5.825  1.00  0.00     0.020 C 
HETATM   20  C12 UNL     1     -23.451  20.481  -3.506  1.00  0.00     0.020 C 
BRANCH  18  21
HETATM   21  C13 UNL     1     -23.313  17.978  -3.874  1.00  0.00     0.192 C 
BRANCH  21  22
HETATM   22  O4  UNL     1     -23.401  17.883  -2.467  1.00  0.00    -0.296 OA
BRANCH  22  23
HETATM   23  P1  UNL     1     -23.593  16.489  -1.699  1.00  0.00     0.401 P 
HETATM   24  O5  UNL     1     -23.174  15.291  -2.492  1.00  0.00    -0.631 OA
BRANCH  23  25
HETATM   25  O6  UNL     1     -25.124  16.437  -1.203  1.00  0.00    -0.307 OA
HETATM   26  H23 UNL     1     -25.385  15.549  -0.930  1.00  0.00     0.222 HD
ENDBRANCH  23  25
BRANCH  23  27
HETATM   27  O7  UNL     1     -22.827  16.672  -0.317  1.00  0.00    -0.195 OA
BRANCH  27  28
HETATM   28  P2  UNL     1     -22.710  15.427   0.670  1.00  0.00     0.401 P 
HETATM   29  O8  UNL     1     -23.951  14.629   0.901  1.00  0.00    -0.631 OA
BRANCH  28  30
HETATM   30  O9  UNL     1     -21.499  14.586   0.058  1.00  0.00    -0.307 OA
HETATM   31  H24 UNL     1     -21.236  14.863  -0.854  1.00  0.00     0.222 HD
ENDBRANCH  28  30
BRANCH  28  32
HETATM   32  O10 UNL     1     -22.017  16.033   1.975  1.00  0.00    -0.294 OA
BRANCH  32  33
HETATM   33  C14 UNL     1     -22.171  15.391   3.214  1.00  0.00     0.215 C 
BRANCH  33  34
HETATM   34  C15 UNL     1     -20.791  15.392   3.869  1.00  0.00     0.180 C 
HETATM   35  C16 UNL     1     -19.713  15.516   2.801  1.00  0.00     0.197 C 
HETATM   36  C17 UNL     1     -18.911  14.233   2.914  1.00  0.00     0.199 C 
HETATM   37  C18 UNL     1     -19.154  13.827   4.370  1.00  0.00     0.262 C 
HETATM   38  O11 UNL     1     -20.528  14.200   4.618  1.00  0.00    -0.353 OA
BRANCH  35  39
HETATM   39  O13 UNL     1     -18.930  16.667   3.096  1.00  0.00    -0.286 OA
BRANCH  39  40
HETATM   40  P3  UNL     1     -18.601  17.615   1.852  1.00  0.00     0.391 P 
HETATM   41  O14 UNL     1     -18.916  19.056   2.092  1.00  0.00    -0.632 OA
BRANCH  40  42
HETATM   42  O15 UNL     1     -19.402  16.867   0.686  1.00  0.00    -0.307 OA
HETATM   43  H36 UNL     1     -19.296  17.344  -0.171  1.00  0.00     0.222 HD
ENDBRANCH  40  42
BRANCH  40  44
HETATM   44  O16 UNL     1     -17.087  17.232   1.554  1.00  0.00    -0.307 OA
HETATM   45  H37 UNL     1     -16.461  17.697   2.132  1.00  0.00     0.222 HD
ENDBRANCH  40  44
ENDBRANCH  39  40
ENDBRANCH  35  39
BRANCH  36  46
HETATM   46  O12 UNL     1     -17.557  14.459   2.513  1.00  0.00    -0.388 OA
HETATM   47  H35 UNL     1     -17.045  13.668   2.807  1.00  0.00     0.210 HD
ENDBRANCH  36  46
BRANCH  37  48
HETATM   48  N3  UNL     1     -19.013  12.401   4.580  1.00  0.00    -0.297 N 
HETATM   49  C19 UNL     1     -17.989  11.754   5.233  1.00  0.00     0.188 A 
HETATM   50  N4  UNL     1     -18.217  10.466   5.367  1.00  0.00    -0.346 N 
HETATM   51  C20 UNL     1     -19.452  10.268   4.775  1.00  0.00     0.116 A 
HETATM   52  H4  UNL     1     -17.618   9.769   5.808  1.00  0.00     0.167 HD
HETATM   53  C21 UNL     1     -20.267   9.131   4.627  1.00  0.00     0.109 A 
HETATM   54  C23 UNL     1     -19.938  11.451   4.249  1.00  0.00     0.142 A 
HETATM   55  N5  UNL     1     -21.447   9.259   3.974  1.00  0.00    -0.341 N 
HETATM   56  C22 UNL     1     -21.782  10.473   3.492  1.00  0.00     0.183 A 
HETATM   57  H5  UNL     1     -22.066   8.458   3.850  1.00  0.00     0.167 HD
HETATM   58  N6  UNL     1     -21.091  11.628   3.580  1.00  0.00    -0.336 N 
HETATM   59  H6  UNL     1     -21.402  12.519   3.191  1.00  0.00     0.168 HD
BRANCH  53  60
HETATM   60  N7  UNL     1     -19.921   7.878   5.108  1.00  0.00    -0.287 NA
HETATM   61  H33 UNL     1     -20.584   7.143   4.874  1.00  0.00     0.125 HD
HETATM   62  H34 UNL     1     -19.582   7.900   6.060  1.00  0.00     0.125 HD
ENDBRANCH  53  60
ENDBRANCH  37  48
ENDBRANCH  33  34
ENDBRANCH  32  33
ENDBRANCH  28  32
ENDBRANCH  27  28
ENDBRANCH  23  27
ENDBRANCH  22  23
ENDBRANCH  21  22
ENDBRANCH  18  21
ENDBRANCH  17  18
BRANCH  17  63
HETATM   63  O17 UNL     1     -25.737  17.746  -4.401  1.00  0.00    -0.385 OA
HETATM   64  H38 UNL     1     -26.429  17.582  -5.063  1.00  0.00     0.210 HD
ENDBRANCH  17  63
ENDBRANCH  14  17
ENDBRANCH  12  13
ENDBRANCH  11  12
ENDBRANCH   8  11
ENDBRANCH   6   7
ENDBRANCH   5   6
ENDBRANCH   4   5
ENDBRANCH   2   4
TORSDOF 27
ENDMDL
MODEL 10
REMARK VINA RESULT:      -4.1      5.986      8.179
REMARK  27 active torsions:
REMARK  status: ('A' for Active; 'I' for Inactive)
REMARK    1  A    between atoms: C2_2  and  S1_4 
REMARK    2  A    between atoms: S1_4  and  C3_5 
REMARK    3  A    between atoms: C3_5  and  C4_6 
REMARK    4  A    between atoms: C4_6  and  N1_7 
REMARK       I    between atoms: N1_7  and  C5_8 
REMARK    5  A    between atoms: C5_8  and  C6_10 
REMARK    6  A    between atoms: C6_10  and  C7_11 
REMARK    7  A    between atoms: C7_11  and  N2_12 
REMARK       I    between atoms: N2_12  and  C8_13 
REMARK    8  A    between atoms: C8_13  and  C9_15 
REMARK    9  A    between atoms: C9_15  and  C10_16 
REMARK   10  A    between atoms: C9_15  and  O17_54 
REMARK   11  A    between atoms: C10_16  and  C13_19 
REMARK   12  A    between atoms: C13_19  and  O4_20 
REMARK   13  A    between atoms: O4_20  and  P1_21 
REMARK   14  A    between atoms: P1_21  and  O6_23 
REMARK   15  A    between atoms: P1_21  and  O7_24 
REMARK   16  A    between atoms: O7_24  and  P2_25 
REMARK   17  A    between atoms: P2_25  and  O9_27 
REMARK   18  A    between atoms: P2_25  and  O10_28 
REMARK   19  A    between atoms: O10_28  and  C14_29 
REMARK   20  A    between atoms: C14_29  and  C15_30 
REMARK   21  A    between atoms: C16_31  and  O13_49 
REMARK   22  A    between atoms: C17_32  and  O12_48 
REMARK   23  A    between atoms: C18_33  and  N3_35 
REMARK   24  A    between atoms: C21_40  and  N7_47 
REMARK   25  A    between atoms: O13_49  and  P3_50 
REMARK   26  A    between atoms: P3_50  and  O15_52 
REMARK   27  A    between atoms: P3_50  and  O16_53 
ROOT
HETATM    1  C1  UNL     1     -20.561  18.017   3.974  1.00  0.00     0.104 C 
HETATM    2  C2  UNL     1     -19.853  18.002   2.654  1.00  0.00     0.182 C 
HETATM    3  O1  UNL     1     -20.382  17.632   1.608  1.00  0.00    -0.286 OA
ENDROOT
BRANCH   2   4
HETATM    4  S1  UNL     1     -18.175  18.524   2.726  1.00  0.00    -0.091 SA
BRANCH   4   5
HETATM    5  C3  UNL     1     -17.368  17.137   1.862  1.00  0.00     0.102 C 
BRANCH   5   6
HETATM    6  C4  UNL     1     -17.176  15.928   2.780  1.00  0.00     0.133 C 
BRANCH   6   7
HETATM    7  N1  UNL     1     -18.366  15.109   2.883  1.00  0.00    -0.360 N 
HETATM    8  C5  UNL     1     -18.298  13.769   3.184  1.00  0.00     0.219 C 
HETATM    9  O2  UNL     1     -17.235  13.172   3.302  1.00  0.00    -0.274 OA
HETATM   10  H8  UNL     1     -19.268  15.542   2.736  1.00  0.00     0.162 HD
BRANCH   8  11
HETATM   11  C6  UNL     1     -19.657  13.111   3.298  1.00  0.00     0.122 C 
BRANCH  11  12
HETATM   12  C7  UNL     1     -20.138  13.043   4.747  1.00  0.00     0.132 C 
BRANCH  12  13
HETATM   13  N2  UNL     1     -19.121  13.433   5.701  1.00  0.00    -0.358 N 
HETATM   14  C8  UNL     1     -19.008  12.770   6.909  1.00  0.00     0.247 C 
HETATM   15  O3  UNL     1     -19.819  11.924   7.267  1.00  0.00    -0.271 OA
HETATM   16  H13 UNL     1     -18.269  13.819   5.300  1.00  0.00     0.162 HD
BRANCH  14  17
HETATM   17  C9  UNL     1     -17.783  13.163   7.748  1.00  0.00     0.219 C 
BRANCH  17  18
HETATM   18  C10 UNL     1     -16.766  12.014   7.979  1.00  0.00     0.009 C 
HETATM   19  C11 UNL     1     -17.296  10.962   8.963  1.00  0.00     0.020 C 
HETATM   20  C12 UNL     1     -16.416  11.297   6.660  1.00  0.00     0.020 C 
BRANCH  18  21
HETATM   21  C13 UNL     1     -15.491  12.685   8.566  1.00  0.00     0.192 C 
BRANCH  21  22
HETATM   22  O4  UNL     1     -14.345  12.448   7.774  1.00  0.00    -0.296 OA
BRANCH  22  23
HETATM   23  P1  UNL     1     -12.917  12.072   8.400  1.00  0.00     0.401 P 
HETATM   24  O5  UNL     1     -12.923  10.832   9.237  1.00  0.00    -0.631 OA
BRANCH  23  25
HETATM   25  O6  UNL     1     -12.391  13.379   9.179  1.00  0.00    -0.307 OA
HETATM   26  H23 UNL     1     -11.433  13.480   9.110  1.00  0.00     0.222 HD
ENDBRANCH  23  25
BRANCH  23  27
HETATM   27  O7  UNL     1     -11.923  12.031   7.158  1.00  0.00    -0.195 OA
BRANCH  27  28
HETATM   28  P2  UNL     1     -10.398  11.641   7.405  1.00  0.00     0.401 P 
HETATM   29  O8  UNL     1      -9.372  12.401   6.630  1.00  0.00    -0.631 OA
BRANCH  28  30
HETATM   30  O9  UNL     1     -10.241  11.764   8.990  1.00  0.00    -0.307 OA
HETATM   31  H24 UNL     1      -9.795  10.990   9.412  1.00  0.00     0.222 HD
ENDBRANCH  28  30
BRANCH  28  32
HETATM   32  O10 UNL     1     -10.372  10.054   7.230  1.00  0.00    -0.294 OA
BRANCH  32  33
HETATM   33  C14 UNL     1      -9.173   9.404   6.897  1.00  0.00     0.215 C 
BRANCH  33  34
HETATM   34  C15 UNL     1      -9.425   7.912   7.104  1.00  0.00     0.180 C 
HETATM   35  C16 UNL     1      -8.934   7.493   8.483  1.00  0.00     0.197 C 
HETATM   36  C17 UNL     1      -7.839   6.479   8.210  1.00  0.00     0.199 C 
HETATM   37  C18 UNL     1      -8.234   5.941   6.833  1.00  0.00     0.262 C 
HETATM   38  O11 UNL     1      -8.759   7.093   6.137  1.00  0.00    -0.353 OA
BRANCH  35  39
HETATM   39  O13 UNL     1     -10.031   6.922   9.188  1.00  0.00    -0.286 OA
BRANCH  39  40
HETATM   40  P3  UNL     1     -10.552   7.758  10.447  1.00  0.00     0.391 P 
HETATM   41  O14 UNL     1     -10.302   7.089  11.760  1.00  0.00    -0.632 OA
BRANCH  40  42
HETATM   42  O15 UNL     1     -12.073   8.017  10.025  1.00  0.00    -0.307 OA
HETATM   43  H36 UNL     1     -12.226   8.975   9.844  1.00  0.00     0.222 HD
ENDBRANCH  40  42
BRANCH  40  44
HETATM   44  O16 UNL     1      -9.862   9.168  10.196  1.00  0.00    -0.307 OA
HETATM   45  H37 UNL     1      -9.899   9.446   9.267  1.00  0.00     0.222 HD
ENDBRANCH  40  44
ENDBRANCH  39  40
ENDBRANCH  35  39
BRANCH  36  46
HETATM   46  O12 UNL     1      -7.755   5.539   9.284  1.00  0.00    -0.388 OA
HETATM   47  H35 UNL     1      -7.062   5.879   9.898  1.00  0.00     0.210 HD
ENDBRANCH  36  46
BRANCH  37  48
HETATM   48  N3  UNL     1      -7.102   5.423   6.092  1.00  0.00    -0.297 N 
HETATM   49  C19 UNL     1      -6.637   4.129   6.081  1.00  0.00     0.188 A 
HETATM   50  N4  UNL     1      -5.669   3.954   5.207  1.00  0.00    -0.346 N 
HETATM   51  C20 UNL     1      -5.502   5.195   4.619  1.00  0.00     0.116 A 
HETATM   52  H4  UNL     1      -5.156   3.096   5.008  1.00  0.00     0.167 HD
HETATM   53  C21 UNL     1      -4.662   5.657   3.591  1.00  0.00     0.109 A 
HETATM   54  C23 UNL     1      -6.356   6.124   5.185  1.00  0.00     0.142 A 
HETATM   55  N5  UNL     1      -4.727   6.964   3.237  1.00  0.00    -0.341 N 
HETATM   56  C22 UNL     1      -5.593   7.760   3.894  1.00  0.00     0.183 A 
HETATM   57  H5  UNL     1      -4.136   7.335   2.493  1.00  0.00     0.167 HD
HETATM   58  N6  UNL     1      -6.449   7.431   4.884  1.00  0.00    -0.336 N 
HETATM   59  H6  UNL     1      -7.082   8.086   5.342  1.00  0.00     0.168 HD
BRANCH  53  60
HETATM   60  N7  UNL     1      -3.759   4.846   2.922  1.00  0.00    -0.287 NA
HETATM   61  H33 UNL     1      -2.817   5.226   2.866  1.00  0.00     0.125 HD
HETATM   62  H34 UNL     1      -4.140   4.445   2.076  1.00  0.00     0.125 HD
ENDBRANCH  53  60
ENDBRANCH  37  48
ENDBRANCH  33  34
ENDBRANCH  32  33
ENDBRANCH  28  32
ENDBRANCH  27  28
ENDBRANCH  23  27
ENDBRANCH  22  23
ENDBRANCH  21  22
ENDBRANCH  18  21
ENDBRANCH  17  18
BRANCH  17  63
HETATM   63  O17 UNL     1     -17.098  14.261   7.135  1.00  0.00    -0.385 OA
HETATM   64  H38 UNL     1     -16.638  14.757   7.833  1.00  0.00     0.210 HD
ENDBRANCH  17  63
ENDBRANCH  14  17
ENDBRANCH  12  13
ENDBRANCH  11  12
ENDBRANCH   8  11
ENDBRANCH   6   7
ENDBRANCH   5   6
ENDBRANCH   4   5
ENDBRANCH   2   4
TORSDOF 27
ENDMDL
MODEL 11
REMARK VINA RESULT:      -4.1     16.069     19.147
REMARK  27 active torsions:
REMARK  status: ('A' for Active; 'I' for Inactive)
REMARK    1  A    between atoms: C2_2  and  S1_4 
REMARK    2  A    between atoms: S1_4  and  C3_5 
REMARK    3  A    between atoms: C3_5  and  C4_6 
REMARK    4  A    between atoms: C4_6  and  N1_7 
REMARK       I    between atoms: N1_7  and  C5_8 
REMARK    5  A    between atoms: C5_8  and  C6_10 
REMARK    6  A    between atoms: C6_10  and  C7_11 
REMARK    7  A    between atoms: C7_11  and  N2_12 
REMARK       I    between atoms: N2_12  and  C8_13 
REMARK    8  A    between atoms: C8_13  and  C9_15 
REMARK    9  A    between atoms: C9_15  and  C10_16 
REMARK   10  A    between atoms: C9_15  and  O17_54 
REMARK   11  A    between atoms: C10_16  and  C13_19 
REMARK   12  A    between atoms: C13_19  and  O4_20 
REMARK   13  A    between atoms: O4_20  and  P1_21 
REMARK   14  A    between atoms: P1_21  and  O6_23 
REMARK   15  A    between atoms: P1_21  and  O7_24 
REMARK   16  A    between atoms: O7_24  and  P2_25 
REMARK   17  A    between atoms: P2_25  and  O9_27 
REMARK   18  A    between atoms: P2_25  and  O10_28 
REMARK   19  A    between atoms: O10_28  and  C14_29 
REMARK   20  A    between atoms: C14_29  and  C15_30 
REMARK   21  A    between atoms: C16_31  and  O13_49 
REMARK   22  A    between atoms: C17_32  and  O12_48 
REMARK   23  A    between atoms: C18_33  and  N3_35 
REMARK   24  A    between atoms: C21_40  and  N7_47 
REMARK   25  A    between atoms: O13_49  and  P3_50 
REMARK   26  A    between atoms: P3_50  and  O15_52 
REMARK   27  A    between atoms: P3_50  and  O16_53 
ROOT
HETATM    1  C1  UNL     1     -19.148  11.417   4.690  1.00  0.00     0.104 C 
HETATM    2  C2  UNL     1     -20.504  11.247   4.077  1.00  0.00     0.182 C 
HETATM    3  O1  UNL     1     -20.713  11.326   2.869  1.00  0.00    -0.286 OA
ENDROOT
BRANCH   2   4
HETATM    4  S1  UNL     1     -21.794  10.962   5.238  1.00  0.00    -0.091 SA
BRANCH   4   5
HETATM    5  C3  UNL     1     -22.921   9.949   4.227  1.00  0.00     0.102 C 
BRANCH   5   6
HETATM    6  C4  UNL     1     -23.107   8.547   4.812  1.00  0.00     0.133 C 
BRANCH   6   7
HETATM    7  N1  UNL     1     -21.882   8.003   5.360  1.00  0.00    -0.360 N 
HETATM    8  C5  UNL     1     -21.753   6.666   5.657  1.00  0.00     0.219 C 
HETATM    9  O2  UNL     1     -22.683   5.874   5.553  1.00  0.00    -0.274 OA
HETATM   10  H8  UNL     1     -21.101   8.626   5.520  1.00  0.00     0.162 HD
BRANCH   8  11
HETATM   11  C6  UNL     1     -20.377   6.295   6.165  1.00  0.00     0.122 C 
BRANCH  11  12
HETATM   12  C7  UNL     1     -20.356   6.127   7.684  1.00  0.00     0.132 C 
BRANCH  12  13
HETATM   13  N2  UNL     1     -20.915   4.866   8.124  1.00  0.00    -0.358 N 
HETATM   14  C8  UNL     1     -21.620   4.793   9.311  1.00  0.00     0.247 C 
HETATM   15  O3  UNL     1     -21.697   5.740  10.083  1.00  0.00    -0.271 OA
HETATM   16  H13 UNL     1     -21.185   4.224   7.382  1.00  0.00     0.162 HD
BRANCH  14  17
HETATM   17  C9  UNL     1     -22.307   3.444   9.570  1.00  0.00     0.219 C 
BRANCH  17  18
HETATM   18  C10 UNL     1     -21.365   2.336  10.111  1.00  0.00     0.009 C 
HETATM   19  C11 UNL     1     -20.020   2.902  10.588  1.00  0.00     0.020 C 
HETATM   20  C12 UNL     1     -22.006   1.575  11.290  1.00  0.00     0.020 C 
BRANCH  18  21
HETATM   21  C13 UNL     1     -21.129   1.359   8.923  1.00  0.00     0.192 C 
BRANCH  21  22
HETATM   22  O4  UNL     1     -20.585   2.009   7.792  1.00  0.00    -0.296 OA
BRANCH  22  23
HETATM   23  P1  UNL     1     -21.129   1.766   6.303  1.00  0.00     0.401 P 
HETATM   24  O5  UNL     1     -20.073   1.842   5.246  1.00  0.00    -0.631 OA
BRANCH  23  25
HETATM   25  O6  UNL     1     -22.348   2.794   6.079  1.00  0.00    -0.307 OA
HETATM   26  H23 UNL     1     -23.177   2.457   6.443  1.00  0.00     0.222 HD
ENDBRANCH  23  25
BRANCH  23  27
HETATM   27  O7  UNL     1     -21.904   0.378   6.370  1.00  0.00    -0.195 OA
BRANCH  27  28
HETATM   28  P2  UNL     1     -22.798  -0.065   5.129  1.00  0.00     0.401 P 
HETATM   29  O8  UNL     1     -22.920   0.907   4.001  1.00  0.00    -0.631 OA
BRANCH  28  30
HETATM   30  O9  UNL     1     -22.173  -1.473   4.711  1.00  0.00    -0.307 OA
HETATM   31  H24 UNL     1     -21.426  -1.770   5.287  1.00  0.00     0.222 HD
ENDBRANCH  28  30
BRANCH  28  32
HETATM   32  O10 UNL     1     -24.172  -0.539   5.792  1.00  0.00    -0.294 OA
BRANCH  32  33
HETATM   33  C14 UNL     1     -25.154   0.406   6.125  1.00  0.00     0.215 C 
BRANCH  33  34
HETATM   34  C15 UNL     1     -26.433  -0.041   5.420  1.00  0.00     0.180 C 
HETATM   35  C16 UNL     1     -26.141  -1.250   4.540  1.00  0.00     0.197 C 
HETATM   36  C17 UNL     1     -26.451  -0.783   3.130  1.00  0.00     0.199 C 
HETATM   37  C18 UNL     1     -27.462   0.339   3.376  1.00  0.00     0.262 C 
HETATM   38  O11 UNL     1     -26.998   0.978   4.587  1.00  0.00    -0.353 OA
BRANCH  35  39
HETATM   39  O13 UNL     1     -26.994  -2.312   4.953  1.00  0.00    -0.286 OA
BRANCH  39  40
HETATM   40  P3  UNL     1     -26.264  -3.698   5.274  1.00  0.00     0.391 P 
HETATM   41  O14 UNL     1     -26.662  -4.301   6.582  1.00  0.00    -0.632 OA
BRANCH  40  42
HETATM   42  O15 UNL     1     -24.731  -3.278   5.088  1.00  0.00    -0.307 OA
HETATM   43  H36 UNL     1     -24.158  -4.077   5.008  1.00  0.00     0.222 HD
ENDBRANCH  40  42
BRANCH  40  44
HETATM   44  O16 UNL     1     -26.574  -4.530   3.954  1.00  0.00    -0.307 OA
HETATM   45  H37 UNL     1     -26.621  -5.486   4.115  1.00  0.00     0.222 HD
ENDBRANCH  40  44
ENDBRANCH  39  40
ENDBRANCH  35  39
BRANCH  36  46
HETATM   46  O12 UNL     1     -26.877  -1.885   2.325  1.00  0.00    -0.388 OA
HETATM   47  H35 UNL     1     -27.823  -1.717   2.101  1.00  0.00     0.210 HD
ENDBRANCH  36  46
BRANCH  37  48
HETATM   48  N3  UNL     1     -27.477   1.319   2.309  1.00  0.00    -0.297 N 
HETATM   49  C19 UNL     1     -28.470   1.521   1.379  1.00  0.00     0.188 A 
HETATM   50  N4  UNL     1     -28.239   2.572   0.623  1.00  0.00    -0.346 N 
HETATM   51  C20 UNL     1     -27.039   3.079   1.088  1.00  0.00     0.116 A 
HETATM   52  H4  UNL     1     -28.816   2.932  -0.137  1.00  0.00     0.167 HD
HETATM   53  C21 UNL     1     -26.279   4.206   0.730  1.00  0.00     0.109 A 
HETATM   54  C23 UNL     1     -26.536   2.290   2.106  1.00  0.00     0.142 A 
HETATM   55  N5  UNL     1     -25.112   4.435   1.381  1.00  0.00    -0.341 N 
HETATM   56  C22 UNL     1     -24.734   3.565   2.339  1.00  0.00     0.183 A 
HETATM   57  H5  UNL     1     -24.535   5.245   1.152  1.00  0.00     0.167 HD
HETATM   58  N6  UNL     1     -25.380   2.463   2.771  1.00  0.00    -0.336 N 
HETATM   59  H6  UNL     1     -25.038   1.842   3.505  1.00  0.00     0.168 HD
BRANCH  53  60
HETATM   60  N7  UNL     1     -26.655   5.095  -0.264  1.00  0.00    -0.287 NA
HETATM   61  H33 UNL     1     -27.488   4.820  -0.779  1.00  0.00     0.125 HD
HETATM   62  H34 UNL     1     -25.873   5.432  -0.809  1.00  0.00     0.125 HD
ENDBRANCH  53  60
ENDBRANCH  37  48
ENDBRANCH  33  34
ENDBRANCH  32  33
ENDBRANCH  28  32
ENDBRANCH  27  28
ENDBRANCH  23  27
ENDBRANCH  22  23
ENDBRANCH  21  22
ENDBRANCH  18  21
ENDBRANCH  17  18
BRANCH  17  63
HETATM   63  O17 UNL     1     -23.389   3.611  10.492  1.00  0.00    -0.385 OA
HETATM   64  H38 UNL     1     -23.245   3.006  11.239  1.00  0.00     0.210 HD
ENDBRANCH  17  63
ENDBRANCH  14  17
ENDBRANCH  12  13
ENDBRANCH  11  12
ENDBRANCH   8  11
ENDBRANCH   6   7
ENDBRANCH   5   6
ENDBRANCH   4   5
ENDBRANCH   2   4
TORSDOF 27
ENDMDL
MODEL 12
REMARK VINA RESULT:      -4.0     14.247     18.421
REMARK  27 active torsions:
REMARK  status: ('A' for Active; 'I' for Inactive)
REMARK    1  A    between atoms: C2_2  and  S1_4 
REMARK    2  A    between atoms: S1_4  and  C3_5 
REMARK    3  A    between atoms: C3_5  and  C4_6 
REMARK    4  A    between atoms: C4_6  and  N1_7 
REMARK       I    between atoms: N1_7  and  C5_8 
REMARK    5  A    between atoms: C5_8  and  C6_10 
REMARK    6  A    between atoms: C6_10  and  C7_11 
REMARK    7  A    between atoms: C7_11  and  N2_12 
REMARK       I    between atoms: N2_12  and  C8_13 
REMARK    8  A    between atoms: C8_13  and  C9_15 
REMARK    9  A    between atoms: C9_15  and  C10_16 
REMARK   10  A    between atoms: C9_15  and  O17_54 
REMARK   11  A    between atoms: C10_16  and  C13_19 
REMARK   12  A    between atoms: C13_19  and  O4_20 
REMARK   13  A    between atoms: O4_20  and  P1_21 
REMARK   14  A    between atoms: P1_21  and  O6_23 
REMARK   15  A    between atoms: P1_21  and  O7_24 
REMARK   16  A    between atoms: O7_24  and  P2_25 
REMARK   17  A    between atoms: P2_25  and  O9_27 
REMARK   18  A    between atoms: P2_25  and  O10_28 
REMARK   19  A    between atoms: O10_28  and  C14_29 
REMARK   20  A    between atoms: C14_29  and  C15_30 
REMARK   21  A    between atoms: C16_31  and  O13_49 
REMARK   22  A    between atoms: C17_32  and  O12_48 
REMARK   23  A    between atoms: C18_33  and  N3_35 
REMARK   24  A    between atoms: C21_40  and  N7_47 
REMARK   25  A    between atoms: O13_49  and  P3_50 
REMARK   26  A    between atoms: P3_50  and  O15_52 
REMARK   27  A    between atoms: P3_50  and  O16_53 
ROOT
HETATM    1  C1  UNL     1     -27.753   2.998   4.275  1.00  0.00     0.104 C 
HETATM    2  C2  UNL     1     -27.159   1.974   3.356  1.00  0.00     0.182 C 
HETATM    3  O1  UNL     1     -27.506   1.835   2.186  1.00  0.00    -0.286 OA
ENDROOT
BRANCH   2   4
HETATM    4  S1  UNL     1     -25.942   0.948   4.104  1.00  0.00    -0.091 SA
BRANCH   4   5
HETATM    5  C3  UNL     1     -24.427   1.691   3.417  1.00  0.00     0.102 C 
BRANCH   5   6
HETATM    6  C4  UNL     1     -23.228   0.746   3.528  1.00  0.00     0.133 C 
BRANCH   6   7
HETATM    7  N1  UNL     1     -22.357   1.076   4.637  1.00  0.00    -0.360 N 
HETATM    8  C5  UNL     1     -20.990   0.945   4.547  1.00  0.00     0.219 C 
HETATM    9  O2  UNL     1     -20.436   0.470   3.563  1.00  0.00    -0.274 OA
HETATM   10  H8  UNL     1     -22.769   1.418   5.494  1.00  0.00     0.162 HD
BRANCH   8  11
HETATM   11  C6  UNL     1     -20.262   1.396   5.795  1.00  0.00     0.122 C 
BRANCH  11  12
HETATM   12  C7  UNL     1     -21.228   1.716   6.935  1.00  0.00     0.132 C 
BRANCH  12  13
HETATM   13  N2  UNL     1     -21.308   3.131   7.231  1.00  0.00    -0.358 N 
HETATM   14  C8  UNL     1     -20.857   3.616   8.444  1.00  0.00     0.247 C 
HETATM   15  O3  UNL     1     -20.490   2.874   9.347  1.00  0.00    -0.271 OA
HETATM   16  H13 UNL     1     -21.238   3.751   6.426  1.00  0.00     0.162 HD
BRANCH  14  17
HETATM   17  C9  UNL     1     -20.835   5.148   8.558  1.00  0.00     0.219 C 
BRANCH  17  18
HETATM   18  C10 UNL     1     -21.972   5.744   9.429  1.00  0.00     0.009 C 
HETATM   19  C11 UNL     1     -21.694   5.583  10.931  1.00  0.00     0.020 C 
HETATM   20  C12 UNL     1     -22.176   7.245   9.142  1.00  0.00     0.020 C 
BRANCH  18  21
HETATM   21  C13 UNL     1     -23.258   4.957   9.048  1.00  0.00     0.192 C 
BRANCH  21  22
HETATM   22  O4  UNL     1     -23.689   5.234   7.731  1.00  0.00    -0.296 OA
BRANCH  22  23
HETATM   23  P1  UNL     1     -24.882   4.434   7.018  1.00  0.00     0.401 P 
HETATM   24  O5  UNL     1     -26.074   4.205   7.894  1.00  0.00    -0.631 OA
BRANCH  23  25
HETATM   25  O6  UNL     1     -24.244   3.082   6.423  1.00  0.00    -0.307 OA
HETATM   26  H23 UNL     1     -23.403   3.244   5.977  1.00  0.00     0.222 HD
ENDBRANCH  23  25
BRANCH  23  27
HETATM   27  O7  UNL     1     -25.183   5.248   5.685  1.00  0.00    -0.195 OA
BRANCH  27  28
HETATM   28  P2  UNL     1     -26.181   6.488   5.748  1.00  0.00     0.401 P 
HETATM   29  O8  UNL     1     -27.640   6.189   5.632  1.00  0.00    -0.631 OA
BRANCH  28  30
HETATM   30  O9  UNL     1     -25.773   7.218   7.108  1.00  0.00    -0.307 OA
HETATM   31  H24 UNL     1     -25.234   6.660   7.720  1.00  0.00     0.222 HD
ENDBRANCH  28  30
BRANCH  28  32
HETATM   32  O10 UNL     1     -25.592   7.513   4.675  1.00  0.00    -0.294 OA
BRANCH  32  33
HETATM   33  C14 UNL     1     -24.840   8.620   5.100  1.00  0.00     0.215 C 
BRANCH  33  34
HETATM   34  C15 UNL     1     -24.098   9.131   3.867  1.00  0.00     0.180 C 
HETATM   35  C16 UNL     1     -23.434   7.965   3.145  1.00  0.00     0.197 C 
HETATM   36  C17 UNL     1     -21.949   8.270   3.208  1.00  0.00     0.199 C 
HETATM   37  C18 UNL     1     -21.938   9.794   3.345  1.00  0.00     0.262 C 
HETATM   38  O11 UNL     1     -23.078  10.085   4.184  1.00  0.00    -0.353 OA
BRANCH  35  39
HETATM   39  O13 UNL     1     -23.921   7.940   1.807  1.00  0.00    -0.286 OA
BRANCH  39  40
HETATM   40  P3  UNL     1     -24.513   6.539   1.315  1.00  0.00     0.391 P 
HETATM   41  O14 UNL     1     -25.842   6.649   0.641  1.00  0.00    -0.632 OA
BRANCH  40  42
HETATM   42  O15 UNL     1     -24.438   5.691   2.670  1.00  0.00    -0.307 OA
HETATM   43  H36 UNL     1     -23.500   5.497   2.908  1.00  0.00     0.222 HD
ENDBRANCH  40  42
BRANCH  40  44
HETATM   44  O16 UNL     1     -23.299   5.966   0.462  1.00  0.00    -0.307 OA
HETATM   45  H37 UNL     1     -23.397   5.024   0.253  1.00  0.00     0.222 HD
ENDBRANCH  40  44
ENDBRANCH  39  40
ENDBRANCH  35  39
BRANCH  36  46
HETATM   46  O12 UNL     1     -21.280   7.707   2.076  1.00  0.00    -0.388 OA
HETATM   47  H35 UNL     1     -20.334   7.977   2.150  1.00  0.00     0.210 HD
ENDBRANCH  36  46
BRANCH  37  48
HETATM   48  N3  UNL     1     -20.741  10.284   3.999  1.00  0.00    -0.297 N 
HETATM   49  C19 UNL     1     -19.978   9.629   4.937  1.00  0.00     0.188 A 
HETATM   50  N4  UNL     1     -18.884  10.292   5.242  1.00  0.00    -0.346 N 
HETATM   51  C20 UNL     1     -18.937  11.431   4.459  1.00  0.00     0.116 A 
HETATM   52  H4  UNL     1     -18.158  10.026   5.907  1.00  0.00     0.167 HD
HETATM   53  C21 UNL     1     -18.056  12.513   4.289  1.00  0.00     0.109 A 
HETATM   54  C23 UNL     1     -20.102  11.458   3.713  1.00  0.00     0.142 A 
HETATM   55  N5  UNL     1     -18.404  13.506   3.435  1.00  0.00    -0.341 N 
HETATM   56  C22 UNL     1     -19.584  13.410   2.792  1.00  0.00     0.183 A 
HETATM   57  H5  UNL     1     -17.788  14.305   3.284  1.00  0.00     0.167 HD
HETATM   58  N6  UNL     1     -20.501  12.424   2.867  1.00  0.00    -0.336 N 
HETATM   59  H6  UNL     1     -21.381  12.412   2.350  1.00  0.00     0.168 HD
BRANCH  53  60
HETATM   60  N7  UNL     1     -16.848  12.624   4.960  1.00  0.00    -0.287 NA
HETATM   61  H33 UNL     1     -16.770  13.450   5.549  1.00  0.00     0.125 HD
HETATM   62  H34 UNL     1     -16.051  12.403   4.377  1.00  0.00     0.125 HD
ENDBRANCH  53  60
ENDBRANCH  37  48
ENDBRANCH  33  34
ENDBRANCH  32  33
ENDBRANCH  28  32
ENDBRANCH  27  28
ENDBRANCH  23  27
ENDBRANCH  22  23
ENDBRANCH  21  22
ENDBRANCH  18  21
ENDBRANCH  17  18
BRANCH  17  63
HETATM   63  O17 UNL     1     -19.579   5.585   9.089  1.00  0.00    -0.385 OA
HETATM   64  H38 UNL     1     -19.539   5.322  10.023  1.00  0.00     0.210 HD
ENDBRANCH  17  63
ENDBRANCH  14  17
ENDBRANCH  12  13
ENDBRANCH  11  12
ENDBRANCH   8  11
ENDBRANCH   6   7
ENDBRANCH   5   6
ENDBRANCH   4   5
ENDBRANCH   2   4
TORSDOF 27
ENDMDL
MODEL 13
REMARK VINA RESULT:      -4.0     15.674     18.388
REMARK  27 active torsions:
REMARK  status: ('A' for Active; 'I' for Inactive)
REMARK    1  A    between atoms: C2_2  and  S1_4 
REMARK    2  A    between atoms: S1_4  and  C3_5 
REMARK    3  A    between atoms: C3_5  and  C4_6 
REMARK    4  A    between atoms: C4_6  and  N1_7 
REMARK       I    between atoms: N1_7  and  C5_8 
REMARK    5  A    between atoms: C5_8  and  C6_10 
REMARK    6  A    between atoms: C6_10  and  C7_11 
REMARK    7  A    between atoms: C7_11  and  N2_12 
REMARK       I    between atoms: N2_12  and  C8_13 
REMARK    8  A    between atoms: C8_13  and  C9_15 
REMARK    9  A    between atoms: C9_15  and  C10_16 
REMARK   10  A    between atoms: C9_15  and  O17_54 
REMARK   11  A    between atoms: C10_16  and  C13_19 
REMARK   12  A    between atoms: C13_19  and  O4_20 
REMARK   13  A    between atoms: O4_20  and  P1_21 
REMARK   14  A    between atoms: P1_21  and  O6_23 
REMARK   15  A    between atoms: P1_21  and  O7_24 
REMARK   16  A    between atoms: O7_24  and  P2_25 
REMARK   17  A    between atoms: P2_25  and  O9_27 
REMARK   18  A    between atoms: P2_25  and  O10_28 
REMARK   19  A    between atoms: O10_28  and  C14_29 
REMARK   20  A    between atoms: C14_29  and  C15_30 
REMARK   21  A    between atoms: C16_31  and  O13_49 
REMARK   22  A    between atoms: C17_32  and  O12_48 
REMARK   23  A    between atoms: C18_33  and  N3_35 
REMARK   24  A    between atoms: C21_40  and  N7_47 
REMARK   25  A    between atoms: O13_49  and  P3_50 
REMARK   26  A    between atoms: P3_50  and  O15_52 
REMARK   27  A    between atoms: P3_50  and  O16_53 
ROOT
HETATM    1  C1  UNL     1     -19.073  14.795   3.091  1.00  0.00     0.104 C 
HETATM    2  C2  UNL     1     -18.753  13.339   3.242  1.00  0.00     0.182 C 
HETATM    3  O1  UNL     1     -19.108  12.483   2.436  1.00  0.00    -0.286 OA
ENDROOT
BRANCH   2   4
HETATM    4  S1  UNL     1     -17.852  12.943   4.699  1.00  0.00    -0.091 SA
BRANCH   4   5
HETATM    5  C3  UNL     1     -18.386  11.219   4.950  1.00  0.00     0.102 C 
BRANCH   5   6
HETATM    6  C4  UNL     1     -19.888  11.121   5.222  1.00  0.00     0.133 C 
BRANCH   6   7
HETATM    7  N1  UNL     1     -20.452   9.855   4.802  1.00  0.00    -0.360 N 
HETATM    8  C5  UNL     1     -21.627   9.787   4.090  1.00  0.00     0.219 C 
HETATM    9  O2  UNL     1     -22.306  10.776   3.839  1.00  0.00    -0.274 OA
HETATM   10  H8  UNL     1     -19.961   9.003   5.034  1.00  0.00     0.162 HD
BRANCH   8  11
HETATM   11  C6  UNL     1     -22.011   8.375   3.702  1.00  0.00     0.122 C 
BRANCH  11  12
HETATM   12  C7  UNL     1     -22.618   7.606   4.874  1.00  0.00     0.132 C 
BRANCH  12  13
HETATM   13  N2  UNL     1     -21.819   6.470   5.283  1.00  0.00    -0.358 N 
HETATM   14  C8  UNL     1     -20.912   6.592   6.319  1.00  0.00     0.247 C 
HETATM   15  O3  UNL     1     -20.665   7.670   6.845  1.00  0.00    -0.271 OA
HETATM   16  H13 UNL     1     -22.252   5.558   5.148  1.00  0.00     0.162 HD
BRANCH  14  17
HETATM   17  C9  UNL     1     -20.262   5.274   6.766  1.00  0.00     0.219 C 
BRANCH  17  18
HETATM   18  C10 UNL     1     -21.002   4.553   7.924  1.00  0.00     0.009 C 
HETATM   19  C11 UNL     1     -20.034   3.795   8.845  1.00  0.00     0.020 C 
HETATM   20  C12 UNL     1     -21.801   5.547   8.790  1.00  0.00     0.020 C 
BRANCH  18  21
HETATM   21  C13 UNL     1     -21.975   3.546   7.247  1.00  0.00     0.192 C 
BRANCH  21  22
HETATM   22  O4  UNL     1     -21.928   2.267   7.846  1.00  0.00    -0.296 OA
BRANCH  22  23
HETATM   23  P1  UNL     1     -21.939   0.907   6.996  1.00  0.00     0.401 P 
HETATM   24  O5  UNL     1     -22.858  -0.144   7.534  1.00  0.00    -0.631 OA
BRANCH  23  25
HETATM   25  O6  UNL     1     -20.408   0.427   6.867  1.00  0.00    -0.307 OA
HETATM   26  H23 UNL     1     -20.310  -0.311   6.252  1.00  0.00     0.222 HD
ENDBRANCH  23  25
BRANCH  23  27
HETATM   27  O7  UNL     1     -22.247   1.358   5.502  1.00  0.00    -0.195 OA
BRANCH  27  28
HETATM   28  P2  UNL     1     -22.008   0.319   4.318  1.00  0.00     0.401 P 
HETATM   29  O8  UNL     1     -20.880   0.609   3.382  1.00  0.00    -0.631 OA
BRANCH  28  30
HETATM   30  O9  UNL     1     -21.880  -1.079   5.078  1.00  0.00    -0.307 OA
HETATM   31  H24 UNL     1     -21.721  -0.997   6.050  1.00  0.00     0.222 HD
ENDBRANCH  28  30
BRANCH  28  32
HETATM   32  O10 UNL     1     -23.448   0.159   3.648  1.00  0.00    -0.294 OA
BRANCH  32  33
HETATM   33  C14 UNL     1     -24.372  -0.755   4.179  1.00  0.00     0.215 C 
BRANCH  33  34
HETATM   34  C15 UNL     1     -25.723  -0.041   4.183  1.00  0.00     0.180 C 
HETATM   35  C16 UNL     1     -26.378  -0.171   2.814  1.00  0.00     0.197 C 
HETATM   36  C17 UNL     1     -26.501   1.255   2.310  1.00  0.00     0.199 C 
HETATM   37  C18 UNL     1     -26.531   2.056   3.614  1.00  0.00     0.262 C 
HETATM   38  O11 UNL     1     -25.617   1.355   4.485  1.00  0.00    -0.353 OA
BRANCH  35  39
HETATM   39  O13 UNL     1     -27.648  -0.789   2.990  1.00  0.00    -0.286 OA
BRANCH  39  40
HETATM   40  P3  UNL     1     -27.719  -2.339   2.605  1.00  0.00     0.391 P 
HETATM   41  O14 UNL     1     -27.813  -3.250   3.787  1.00  0.00    -0.632 OA
BRANCH  40  42
HETATM   42  O15 UNL     1     -26.430  -2.474   1.667  1.00  0.00    -0.307 OA
HETATM   43  H36 UNL     1     -25.811  -1.721   1.815  1.00  0.00     0.222 HD
ENDBRANCH  40  42
BRANCH  40  44
HETATM   44  O16 UNL     1     -28.924  -2.352   1.568  1.00  0.00    -0.307 OA
HETATM   45  H37 UNL     1     -29.255  -3.246   1.386  1.00  0.00     0.222 HD
ENDBRANCH  40  44
ENDBRANCH  39  40
ENDBRANCH  35  39
BRANCH  36  46
HETATM   46  O12 UNL     1     -27.628   1.377   1.438  1.00  0.00    -0.388 OA
HETATM   47  H35 UNL     1     -27.660   2.323   1.156  1.00  0.00     0.210 HD
ENDBRANCH  36  46
BRANCH  37  48
HETATM   48  N3  UNL     1     -26.060   3.416   3.442  1.00  0.00    -0.297 N 
HETATM   49  C19 UNL     1     -24.839   3.926   3.815  1.00  0.00     0.188 A 
HETATM   50  N4  UNL     1     -24.669   5.164   3.406  1.00  0.00    -0.346 N 
HETATM   51  C20 UNL     1     -25.837   5.471   2.729  1.00  0.00     0.116 A 
HETATM   52  H4  UNL     1     -23.858   5.765   3.554  1.00  0.00     0.167 HD
HETATM   53  C21 UNL     1     -26.259   6.613   2.028  1.00  0.00     0.109 A 
HETATM   54  C23 UNL     1     -26.723   4.410   2.778  1.00  0.00     0.142 A 
HETATM   55  N5  UNL     1     -27.494   6.612   1.469  1.00  0.00    -0.341 N 
HETATM   56  C22 UNL     1     -28.261   5.513   1.617  1.00  0.00     0.183 A 
HETATM   57  H5  UNL     1     -27.834   7.421   0.949  1.00  0.00     0.167 HD
HETATM   58  N6  UNL     1     -27.961   4.363   2.256  1.00  0.00    -0.336 N 
HETATM   59  H6  UNL     1     -28.591   3.564   2.333  1.00  0.00     0.168 HD
BRANCH  53  60
HETATM   60  N7  UNL     1     -25.481   7.751   1.884  1.00  0.00    -0.287 NA
HETATM   61  H33 UNL     1     -25.777   8.369   1.132  1.00  0.00     0.125 HD
HETATM   62  H34 UNL     1     -24.491   7.563   1.956  1.00  0.00     0.125 HD
ENDBRANCH  53  60
ENDBRANCH  37  48
ENDBRANCH  33  34
ENDBRANCH  32  33
ENDBRANCH  28  32
ENDBRANCH  27  28
ENDBRANCH  23  27
ENDBRANCH  22  23
ENDBRANCH  21  22
ENDBRANCH  18  21
ENDBRANCH  17  18
BRANCH  17  63
HETATM   63  O17 UNL     1     -20.165   4.372   5.658  1.00  0.00    -0.385 OA
HETATM   64  H38 UNL     1     -21.036   3.964   5.524  1.00  0.00     0.210 HD
ENDBRANCH  17  63
ENDBRANCH  14  17
ENDBRANCH  12  13
ENDBRANCH  11  12
ENDBRANCH   8  11
ENDBRANCH   6   7
ENDBRANCH   5   6
ENDBRANCH   4   5
ENDBRANCH   2   4
TORSDOF 27
ENDMDL
MODEL 14
REMARK VINA RESULT:      -4.0     16.824     19.398
REMARK  27 active torsions:
REMARK  status: ('A' for Active; 'I' for Inactive)
REMARK    1  A    between atoms: C2_2  and  S1_4 
REMARK    2  A    between atoms: S1_4  and  C3_5 
REMARK    3  A    between atoms: C3_5  and  C4_6 
REMARK    4  A    between atoms: C4_6  and  N1_7 
REMARK       I    between atoms: N1_7  and  C5_8 
REMARK    5  A    between atoms: C5_8  and  C6_10 
REMARK    6  A    between atoms: C6_10  and  C7_11 
REMARK    7  A    between atoms: C7_11  and  N2_12 
REMARK       I    between atoms: N2_12  and  C8_13 
REMARK    8  A    between atoms: C8_13  and  C9_15 
REMARK    9  A    between atoms: C9_15  and  C10_16 
REMARK   10  A    between atoms: C9_15  and  O17_54 
REMARK   11  A    between atoms: C10_16  and  C13_19 
REMARK   12  A    between atoms: C13_19  and  O4_20 
REMARK   13  A    between atoms: O4_20  and  P1_21 
REMARK   14  A    between atoms: P1_21  and  O6_23 
REMARK   15  A    between atoms: P1_21  and  O7_24 
REMARK   16  A    between atoms: O7_24  and  P2_25 
REMARK   17  A    between atoms: P2_25  and  O9_27 
REMARK   18  A    between atoms: P2_25  and  O10_28 
REMARK   19  A    between atoms: O10_28  and  C14_29 
REMARK   20  A    between atoms: C14_29  and  C15_30 
REMARK   21  A    between atoms: C16_31  and  O13_49 
REMARK   22  A    between atoms: C17_32  and  O12_48 
REMARK   23  A    between atoms: C18_33  and  N3_35 
REMARK   24  A    between atoms: C21_40  and  N7_47 
REMARK   25  A    between atoms: O13_49  and  P3_50 
REMARK   26  A    between atoms: P3_50  and  O15_52 
REMARK   27  A    between atoms: P3_50  and  O16_53 
ROOT
HETATM    1  C1  UNL     1     -30.301  10.029  11.138  1.00  0.00     0.104 C 
HETATM    2  C2  UNL     1     -29.949   9.359   9.844  1.00  0.00     0.182 C 
HETATM    3  O1  UNL     1     -30.676   9.381   8.854  1.00  0.00    -0.286 OA
ENDROOT
BRANCH   2   4
HETATM    4  S1  UNL     1     -28.417   8.497   9.868  1.00  0.00    -0.091 SA
BRANCH   4   5
HETATM    5  C3  UNL     1     -28.035   8.468   8.087  1.00  0.00     0.102 C 
BRANCH   5   6
HETATM    6  C4  UNL     1     -27.032   7.366   7.737  1.00  0.00     0.133 C 
BRANCH   6   7
HETATM    7  N1  UNL     1     -25.946   7.842   6.906  1.00  0.00    -0.360 N 
HETATM    8  C5  UNL     1     -25.408   7.068   5.904  1.00  0.00     0.219 C 
HETATM    9  O2  UNL     1     -25.756   5.909   5.706  1.00  0.00    -0.274 OA
HETATM   10  H8  UNL     1     -25.582   8.771   7.066  1.00  0.00     0.162 HD
BRANCH   8  11
HETATM   11  C6  UNL     1     -24.323   7.772   5.119  1.00  0.00     0.122 C 
BRANCH  11  12
HETATM   12  C7  UNL     1     -24.092   7.123   3.755  1.00  0.00     0.132 C 
BRANCH  12  13
HETATM   13  N2  UNL     1     -25.240   7.219   2.879  1.00  0.00    -0.358 N 
HETATM   14  C8  UNL     1     -25.071   7.516   1.539  1.00  0.00     0.247 C 
HETATM   15  O3  UNL     1     -23.981   7.822   1.071  1.00  0.00    -0.271 OA
HETATM   16  H13 UNL     1     -26.033   6.632   3.129  1.00  0.00     0.162 HD
BRANCH  14  17
HETATM   17  C9  UNL     1     -26.347   7.413   0.690  1.00  0.00     0.219 C 
BRANCH  17  18
HETATM   18  C10 UNL     1     -26.349   6.243  -0.328  1.00  0.00     0.009 C 
HETATM   19  C11 UNL     1     -26.610   6.725  -1.763  1.00  0.00     0.020 C 
HETATM   20  C12 UNL     1     -25.007   5.484  -0.319  1.00  0.00     0.020 C 
BRANCH  18  21
HETATM   21  C13 UNL     1     -27.494   5.289   0.119  1.00  0.00     0.192 C 
BRANCH  21  22
HETATM   22  O4  UNL     1     -27.014   4.172   0.839  1.00  0.00    -0.296 OA
BRANCH  22  23
HETATM   23  P1  UNL     1     -27.563   3.772   2.291  1.00  0.00     0.401 P 
HETATM   24  O5  UNL     1     -29.041   3.545   2.346  1.00  0.00    -0.631 OA
BRANCH  23  25
HETATM   25  O6  UNL     1     -27.040   4.900   3.314  1.00  0.00    -0.307 OA
HETATM   26  H23 UNL     1     -26.335   4.572   3.886  1.00  0.00     0.222 HD
ENDBRANCH  23  25
BRANCH  23  27
HETATM   27  O7  UNL     1     -26.682   2.523   2.733  1.00  0.00    -0.195 OA
BRANCH  27  28
HETATM   28  P2  UNL     1     -25.326   2.780   3.530  1.00  0.00     0.401 P 
HETATM   29  O8  UNL     1     -24.503   3.952   3.105  1.00  0.00    -0.631 OA
BRANCH  28  30
HETATM   30  O9  UNL     1     -25.801   2.836   5.053  1.00  0.00    -0.307 OA
HETATM   31  H24 UNL     1     -26.727   3.160   5.176  1.00  0.00     0.222 HD
ENDBRANCH  28  30
BRANCH  28  32
HETATM   32  O10 UNL     1     -24.588   1.364   3.504  1.00  0.00    -0.294 OA
BRANCH  32  33
HETATM   33  C14 UNL     1     -23.266   1.269   3.042  1.00  0.00     0.215 C 
BRANCH  33  34
HETATM   34  C15 UNL     1     -22.521   0.404   4.056  1.00  0.00     0.180 C 
HETATM   35  C16 UNL     1     -23.520  -0.341   4.932  1.00  0.00     0.197 C 
HETATM   36  C17 UNL     1     -23.254   0.169   6.336  1.00  0.00     0.199 C 
HETATM   37  C18 UNL     1     -21.792   0.612   6.247  1.00  0.00     0.262 C 
HETATM   38  O11 UNL     1     -21.666   1.164   4.918  1.00  0.00    -0.353 OA
BRANCH  35  39
HETATM   39  O13 UNL     1     -23.261  -1.735   4.809  1.00  0.00    -0.286 OA
BRANCH  39  40
HETATM   40  P3  UNL     1     -24.455  -2.606   4.198  1.00  0.00     0.391 P 
HETATM   41  O14 UNL     1     -25.250  -3.344   5.227  1.00  0.00    -0.632 OA
BRANCH  40  42
HETATM   42  O15 UNL     1     -23.666  -3.474   3.110  1.00  0.00    -0.307 OA
HETATM   43  H36 UNL     1     -24.263  -4.142   2.697  1.00  0.00     0.222 HD
ENDBRANCH  40  42
BRANCH  40  44
HETATM   44  O16 UNL     1     -25.215  -1.524   3.316  1.00  0.00    -0.307 OA
HETATM   45  H37 UNL     1     -24.668  -1.174   2.595  1.00  0.00     0.222 HD
ENDBRANCH  40  44
ENDBRANCH  39  40
ENDBRANCH  35  39
BRANCH  36  46
HETATM   46  O12 UNL     1     -23.579  -0.838   7.298  1.00  0.00    -0.388 OA
HETATM   47  H35 UNL     1     -24.245  -1.427   6.870  1.00  0.00     0.210 HD
ENDBRANCH  36  46
BRANCH  37  48
HETATM   48  N3  UNL     1     -21.463   1.641   7.213  1.00  0.00    -0.297 N 
HETATM   49  C19 UNL     1     -20.753   1.489   8.381  1.00  0.00     0.188 A 
HETATM   50  N4  UNL     1     -20.515   2.639   8.973  1.00  0.00    -0.346 N 
HETATM   51  C20 UNL     1     -21.095   3.584   8.145  1.00  0.00     0.116 A 
HETATM   52  H4  UNL     1     -20.014   2.799   9.847  1.00  0.00     0.167 HD
HETATM   53  C21 UNL     1     -21.153   4.988   8.196  1.00  0.00     0.109 A 
HETATM   54  C23 UNL     1     -21.720   2.976   7.072  1.00  0.00     0.142 A 
HETATM   55  N5  UNL     1     -21.822   5.645   7.217  1.00  0.00    -0.341 N 
HETATM   56  C22 UNL     1     -22.405   4.918   6.243  1.00  0.00     0.183 A 
HETATM   57  H5  UNL     1     -21.883   6.663   7.219  1.00  0.00     0.167 HD
HETATM   58  N6  UNL     1     -22.408   3.579   6.086  1.00  0.00    -0.336 N 
HETATM   59  H6  UNL     1     -22.872   3.087   5.321  1.00  0.00     0.168 HD
BRANCH  53  60
HETATM   60  N7  UNL     1     -20.569   5.739   9.203  1.00  0.00    -0.287 NA
HETATM   61  H33 UNL     1     -19.622   6.049   8.999  1.00  0.00     0.125 HD
HETATM   62  H34 UNL     1     -20.735   5.359  10.126  1.00  0.00     0.125 HD
ENDBRANCH  53  60
ENDBRANCH  37  48
ENDBRANCH  33  34
ENDBRANCH  32  33
ENDBRANCH  28  32
ENDBRANCH  27  28
ENDBRANCH  23  27
ENDBRANCH  22  23
ENDBRANCH  21  22
ENDBRANCH  18  21
ENDBRANCH  17  18
BRANCH  17  63
HETATM   63  O17 UNL     1     -27.493   7.279   1.538  1.00  0.00    -0.385 OA
HETATM   64  H38 UNL     1     -27.834   6.374   1.444  1.00  0.00     0.210 HD
ENDBRANCH  17  63
ENDBRANCH  14  17
ENDBRANCH  12  13
ENDBRANCH  11  12
ENDBRANCH   8  11
ENDBRANCH   6   7
ENDBRANCH   5   6
ENDBRANCH   4   5
ENDBRANCH   2   4
TORSDOF 27
ENDMDL
MODEL 15
REMARK VINA RESULT:      -3.8      5.746      9.764
REMARK  27 active torsions:
REMARK  status: ('A' for Active; 'I' for Inactive)
REMARK    1  A    between atoms: C2_2  and  S1_4 
REMARK    2  A    between atoms: S1_4  and  C3_5 
REMARK    3  A    between atoms: C3_5  and  C4_6 
REMARK    4  A    between atoms: C4_6  and  N1_7 
REMARK       I    between atoms: N1_7  and  C5_8 
REMARK    5  A    between atoms: C5_8  and  C6_10 
REMARK    6  A    between atoms: C6_10  and  C7_11 
REMARK    7  A    between atoms: C7_11  and  N2_12 
REMARK       I    between atoms: N2_12  and  C8_13 
REMARK    8  A    between atoms: C8_13  and  C9_15 
REMARK    9  A    between atoms: C9_15  and  C10_16 
REMARK   10  A    between atoms: C9_15  and  O17_54 
REMARK   11  A    between atoms: C10_16  and  C13_19 
REMARK   12  A    between atoms: C13_19  and  O4_20 
REMARK   13  A    between atoms: O4_20  and  P1_21 
REMARK   14  A    between atoms: P1_21  and  O6_23 
REMARK   15  A    between atoms: P1_21  and  O7_24 
REMARK   16  A    between atoms: O7_24  and  P2_25 
REMARK   17  A    between atoms: P2_25  and  O9_27 
REMARK   18  A    between atoms: P2_25  and  O10_28 
REMARK   19  A    between atoms: O10_28  and  C14_29 
REMARK   20  A    between atoms: C14_29  and  C15_30 
REMARK   21  A    between atoms: C16_31  and  O13_49 
REMARK   22  A    between atoms: C17_32  and  O12_48 
REMARK   23  A    between atoms: C18_33  and  N3_35 
REMARK   24  A    between atoms: C21_40  and  N7_47 
REMARK   25  A    between atoms: O13_49  and  P3_50 
REMARK   26  A    between atoms: P3_50  and  O15_52 
REMARK   27  A    between atoms: P3_50  and  O16_53 
ROOT
HETATM    1  C1  UNL     1     -18.307  14.232  13.187  1.00  0.00     0.104 C 
HETATM    2  C2  UNL     1     -17.744  12.843  13.188  1.00  0.00     0.182 C 
HETATM    3  O1  UNL     1     -18.285  11.897  13.753  1.00  0.00    -0.286 OA
ENDROOT
BRANCH   2   4
HETATM    4  S1  UNL     1     -16.212  12.682  12.340  1.00  0.00    -0.091 SA
BRANCH   4   5
HETATM    5  C3  UNL     1     -16.103  10.867  12.211  1.00  0.00     0.102 C 
BRANCH   5   6
HETATM    6  C4  UNL     1     -16.110  10.398  10.755  1.00  0.00     0.133 C 
BRANCH   6   7
HETATM    7  N1  UNL     1     -15.649   9.033  10.606  1.00  0.00    -0.360 N 
HETATM    8  C5  UNL     1     -14.602   8.709   9.774  1.00  0.00     0.219 C 
HETATM    9  O2  UNL     1     -14.053   9.534   9.053  1.00  0.00    -0.274 OA
HETATM   10  H8  UNL     1     -16.107   8.303  11.135  1.00  0.00     0.162 HD
BRANCH   8  11
HETATM   11  C6  UNL     1     -14.244   7.239   9.806  1.00  0.00     0.122 C 
BRANCH  11  12
HETATM   12  C7  UNL     1     -13.254   6.917  10.924  1.00  0.00     0.132 C 
BRANCH  12  13
HETATM   13  N2  UNL     1     -12.083   7.768  10.909  1.00  0.00    -0.358 N 
HETATM   14  C8  UNL     1     -11.858   8.663  11.939  1.00  0.00     0.247 C 
HETATM   15  O3  UNL     1     -12.679   8.855  12.826  1.00  0.00    -0.271 OA
HETATM   16  H13 UNL     1     -11.265   7.380  10.442  1.00  0.00     0.162 HD
BRANCH  14  17
HETATM   17  C9  UNL     1     -10.497   9.373  11.889  1.00  0.00     0.219 C 
BRANCH  17  18
HETATM   18  C10 UNL     1      -9.507   8.946  13.005  1.00  0.00     0.009 C 
HETATM   19  C11 UNL     1      -9.728   9.733  14.305  1.00  0.00     0.020 C 
HETATM   20  C12 UNL     1      -9.637   7.444  13.331  1.00  0.00     0.020 C 
BRANCH  18  21
HETATM   21  C13 UNL     1      -8.084   9.241  12.450  1.00  0.00     0.192 C 
BRANCH  21  22
HETATM   22  O4  UNL     1      -7.487   8.101  11.867  1.00  0.00    -0.296 OA
BRANCH  22  23
HETATM   23  P1  UNL     1      -6.212   8.185  10.899  1.00  0.00     0.401 P 
HETATM   24  O5  UNL     1      -5.876   6.897  10.216  1.00  0.00    -0.631 OA
BRANCH  23  25
HETATM   25  O6  UNL     1      -5.003   8.792  11.772  1.00  0.00    -0.307 OA
HETATM   26  H23 UNL     1      -4.899   9.742  11.634  1.00  0.00     0.222 HD
ENDBRANCH  23  25
BRANCH  23  27
HETATM   27  O7  UNL     1      -6.522   9.397   9.916  1.00  0.00    -0.195 OA
BRANCH  27  28
HETATM   28  P2  UNL     1      -5.305  10.224   9.306  1.00  0.00     0.401 P 
HETATM   29  O8  UNL     1      -4.911  11.476  10.020  1.00  0.00    -0.631 OA
BRANCH  28  30
HETATM   30  O9  UNL     1      -4.138   9.139   9.203  1.00  0.00    -0.307 OA
HETATM   31  H24 UNL     1      -3.366   9.319   9.793  1.00  0.00     0.222 HD
ENDBRANCH  28  30
BRANCH  28  32
HETATM   32  O10 UNL     1      -5.686  10.392   7.764  1.00  0.00    -0.294 OA
BRANCH  32  33
HETATM   33  C14 UNL     1      -6.629  11.355   7.374  1.00  0.00     0.215 C 
BRANCH  33  34
HETATM   34  C15 UNL     1      -7.672  10.617   6.536  1.00  0.00     0.180 C 
HETATM   35  C16 UNL     1      -8.918  10.358   7.373  1.00  0.00     0.197 C 
HETATM   36  C17 UNL     1      -9.031   8.847   7.436  1.00  0.00     0.199 C 
HETATM   37  C18 UNL     1      -8.296   8.415   6.166  1.00  0.00     0.262 C 
HETATM   38  O11 UNL     1      -7.205   9.354   6.048  1.00  0.00    -0.353 OA
BRANCH  35  39
HETATM   39  O13 UNL     1     -10.027  10.953   6.708  1.00  0.00    -0.286 OA
BRANCH  39  40
HETATM   40  P3  UNL     1     -11.168  11.541   7.662  1.00  0.00     0.391 P 
HETATM   41  O14 UNL     1     -10.950  11.250   9.112  1.00  0.00    -0.632 OA
BRANCH  40  42
HETATM   42  O15 UNL     1     -12.477  10.932   6.973  1.00  0.00    -0.307 OA
HETATM   43  H36 UNL     1     -13.266  11.054   7.553  1.00  0.00     0.222 HD
ENDBRANCH  40  42
BRANCH  40  44
HETATM   44  O16 UNL     1     -11.199  13.066   7.213  1.00  0.00    -0.307 OA
HETATM   45  H37 UNL     1     -10.386  13.543   7.445  1.00  0.00     0.222 HD
ENDBRANCH  40  44
ENDBRANCH  39  40
ENDBRANCH  35  39
BRANCH  36  46
HETATM   46  O12 UNL     1     -10.401   8.458   7.567  1.00  0.00    -0.388 OA
HETATM   47  H35 UNL     1     -10.719   8.252   6.656  1.00  0.00     0.210 HD
ENDBRANCH  36  46
BRANCH  37  48
HETATM   48  N3  UNL     1      -7.749   7.076   6.267  1.00  0.00    -0.297 N 
HETATM   49  C19 UNL     1      -8.210   6.048   7.056  1.00  0.00     0.188 A 
HETATM   50  N4  UNL     1      -7.574   4.920   6.826  1.00  0.00    -0.346 N 
HETATM   51  C20 UNL     1      -6.660   5.230   5.835  1.00  0.00     0.116 A 
HETATM   52  H4  UNL     1      -7.722   4.017   7.277  1.00  0.00     0.167 HD
HETATM   53  C21 UNL     1      -5.720   4.459   5.130  1.00  0.00     0.109 A 
HETATM   54  C23 UNL     1      -6.731   6.572   5.507  1.00  0.00     0.142 A 
HETATM   55  N5  UNL     1      -4.943   5.070   4.203  1.00  0.00    -0.341 N 
HETATM   56  C22 UNL     1      -5.107   6.393   4.005  1.00  0.00     0.183 A 
HETATM   57  H5  UNL     1      -4.253   4.542   3.668  1.00  0.00     0.167 HD
HETATM   58  N6  UNL     1      -5.975   7.229   4.610  1.00  0.00    -0.336 N 
HETATM   59  H6  UNL     1      -6.049   8.228   4.414  1.00  0.00     0.168 HD
BRANCH  53  60
HETATM   60  N7  UNL     1      -5.538   3.101   5.340  1.00  0.00    -0.287 NA
HETATM   61  H33 UNL     1      -6.242   2.511   4.902  1.00  0.00     0.125 HD
HETATM   62  H34 UNL     1      -5.287   2.879   6.294  1.00  0.00     0.125 HD
ENDBRANCH  53  60
ENDBRANCH  37  48
ENDBRANCH  33  34
ENDBRANCH  32  33
ENDBRANCH  28  32
ENDBRANCH  27  28
ENDBRANCH  23  27
ENDBRANCH  22  23
ENDBRANCH  21  22
ENDBRANCH  18  21
ENDBRANCH  17  18
BRANCH  17  63
HETATM   63  O17 UNL     1      -9.872   9.153  10.620  1.00  0.00    -0.385 OA
HETATM   64  H38 UNL     1      -9.501   8.254  10.617  1.00  0.00     0.210 HD
ENDBRANCH  17  63
ENDBRANCH  14  17
ENDBRANCH  12  13
ENDBRANCH  11  12
ENDBRANCH   8  11
ENDBRANCH   6   7
ENDBRANCH   5   6
ENDBRANCH   4   5
ENDBRANCH   2   4
TORSDOF 27
ENDMDL
MODEL 16
REMARK VINA RESULT:      -3.8      5.424      8.316
REMARK  27 active torsions:
REMARK  status: ('A' for Active; 'I' for Inactive)
REMARK    1  A    between atoms: C2_2  and  S1_4 
REMARK    2  A    between atoms: S1_4  and  C3_5 
REMARK    3  A    between atoms: C3_5  and  C4_6 
REMARK    4  A    between atoms: C4_6  and  N1_7 
REMARK       I    between atoms: N1_7  and  C5_8 
REMARK    5  A    between atoms: C5_8  and  C6_10 
REMARK    6  A    between atoms: C6_10  and  C7_11 
REMARK    7  A    between atoms: C7_11  and  N2_12 
REMARK       I    between atoms: N2_12  and  C8_13 
REMARK    8  A    between atoms: C8_13  and  C9_15 
REMARK    9  A    between atoms: C9_15  and  C10_16 
REMARK   10  A    between atoms: C9_15  and  O17_54 
REMARK   11  A    between atoms: C10_16  and  C13_19 
REMARK   12  A    between atoms: C13_19  and  O4_20 
REMARK   13  A    between atoms: O4_20  and  P1_21 
REMARK   14  A    between atoms: P1_21  and  O6_23 
REMARK   15  A    between atoms: P1_21  and  O7_24 
REMARK   16  A    between atoms: O7_24  and  P2_25 
REMARK   17  A    between atoms: P2_25  and  O9_27 
REMARK   18  A    between atoms: P2_25  and  O10_28 
REMARK   19  A    between atoms: O10_28  and  C14_29 
REMARK   20  A    between atoms: C14_29  and  C15_30 
REMARK   21  A    between atoms: C16_31  and  O13_49 
REMARK   22  A    between atoms: C17_32  and  O12_48 
REMARK   23  A    between atoms: C18_33  and  N3_35 
REMARK   24  A    between atoms: C21_40  and  N7_47 
REMARK   25  A    between atoms: O13_49  and  P3_50 
REMARK   26  A    between atoms: P3_50  and  O15_52 
REMARK   27  A    between atoms: P3_50  and  O16_53 
ROOT
HETATM    1  C1  UNL     1     -20.917  13.867   3.154  1.00  0.00     0.104 C 
HETATM    2  C2  UNL     1     -19.454  14.176   3.068  1.00  0.00     0.182 C 
HETATM    3  O1  UNL     1     -18.578  13.318   3.146  1.00  0.00    -0.286 OA
ENDROOT
BRANCH   2   4
HETATM    4  S1  UNL     1     -19.084  15.885   2.885  1.00  0.00    -0.091 SA
BRANCH   4   5
HETATM    5  C3  UNL     1     -17.272  15.807   2.706  1.00  0.00     0.102 C 
BRANCH   5   6
HETATM    6  C4  UNL     1     -16.593  17.074   3.229  1.00  0.00     0.133 C 
BRANCH   6   7
HETATM    7  N1  UNL     1     -16.565  17.138   4.675  1.00  0.00    -0.360 N 
HETATM    8  C5  UNL     1     -15.388  17.294   5.371  1.00  0.00     0.219 C 
HETATM    9  O2  UNL     1     -14.293  17.308   4.821  1.00  0.00    -0.274 OA
HETATM   10  H8  UNL     1     -17.438  17.073   5.182  1.00  0.00     0.162 HD
BRANCH   8  11
HETATM   11  C6  UNL     1     -15.586  17.394   6.868  1.00  0.00     0.122 C 
BRANCH  11  12
HETATM   12  C7  UNL     1     -14.412  16.793   7.640  1.00  0.00     0.132 C 
BRANCH  12  13
HETATM   13  N2  UNL     1     -14.235  15.377   7.393  1.00  0.00    -0.358 N 
HETATM   14  C8  UNL     1     -15.082  14.456   7.983  1.00  0.00     0.247 C 
HETATM   15  O3  UNL     1     -15.921  14.781   8.813  1.00  0.00    -0.271 OA
HETATM   16  H13 UNL     1     -13.846  15.136   6.484  1.00  0.00     0.162 HD
BRANCH  14  17
HETATM   17  C9  UNL     1     -14.897  13.010   7.500  1.00  0.00     0.219 C 
BRANCH  17  18
HETATM   18  C10 UNL     1     -14.632  11.983   8.632  1.00  0.00     0.009 C 
HETATM   19  C11 UNL     1     -13.787  12.580   9.767  1.00  0.00     0.020 C 
HETATM   20  C12 UNL     1     -15.948  11.462   9.242  1.00  0.00     0.020 C 
BRANCH  18  21
HETATM   21  C13 UNL     1     -13.859  10.807   7.968  1.00  0.00     0.192 C 
BRANCH  21  22
HETATM   22  O4  UNL     1     -14.402   9.547   8.307  1.00  0.00    -0.296 OA
BRANCH  22  23
HETATM   23  P1  UNL     1     -13.629   8.485   9.226  1.00  0.00     0.401 P 
HETATM   24  O5  UNL     1     -14.259   7.128   9.256  1.00  0.00    -0.631 OA
BRANCH  23  25
HETATM   25  O6  UNL     1     -13.467   9.158  10.680  1.00  0.00    -0.307 OA
HETATM   26  H23 UNL     1     -12.798   9.854  10.684  1.00  0.00     0.222 HD
ENDBRANCH  23  25
BRANCH  23  27
HETATM   27  O7  UNL     1     -12.125   8.509   8.706  1.00  0.00    -0.195 OA
BRANCH  27  28
HETATM   28  P2  UNL     1     -10.983   7.884   9.624  1.00  0.00     0.401 P 
HETATM   29  O8  UNL     1     -10.568   8.676  10.821  1.00  0.00    -0.631 OA
BRANCH  28  30
HETATM   30  O9  UNL     1     -11.544   6.429   9.969  1.00  0.00    -0.307 OA
HETATM   31  H24 UNL     1     -11.635   6.250  10.937  1.00  0.00     0.222 HD
ENDBRANCH  28  30
BRANCH  28  32
HETATM   32  O10 UNL     1      -9.820   7.514   8.595  1.00  0.00    -0.294 OA
BRANCH  32  33
HETATM   33  C14 UNL     1     -10.065   7.554   7.213  1.00  0.00     0.215 C 
BRANCH  33  34
HETATM   34  C15 UNL     1      -8.700   7.457   6.534  1.00  0.00     0.180 C 
HETATM   35  C16 UNL     1      -7.600   7.450   7.587  1.00  0.00     0.197 C 
HETATM   36  C17 UNL     1      -6.788   8.700   7.303  1.00  0.00     0.199 C 
HETATM   37  C18 UNL     1      -7.060   8.930   5.814  1.00  0.00     0.262 C 
HETATM   38  O11 UNL     1      -8.442   8.547   5.641  1.00  0.00    -0.353 OA
BRANCH  35  39
HETATM   39  O13 UNL     1      -6.834   6.262   7.417  1.00  0.00    -0.286 OA
BRANCH  39  40
HETATM   40  P3  UNL     1      -6.721   5.325   8.707  1.00  0.00     0.391 P 
HETATM   41  O14 UNL     1      -6.950   3.876   8.421  1.00  0.00    -0.632 OA
BRANCH  40  42
HETATM   42  O15 UNL     1      -7.742   6.055   9.698  1.00  0.00    -0.307 OA
HETATM   43  H36 UNL     1      -8.668   5.976   9.366  1.00  0.00     0.222 HD
ENDBRANCH  40  42
BRANCH  40  44
HETATM   44  O16 UNL     1      -5.298   5.746   9.279  1.00  0.00    -0.307 OA
HETATM   45  H37 UNL     1      -4.624   5.831   8.586  1.00  0.00     0.222 HD
ENDBRANCH  40  44
ENDBRANCH  39  40
ENDBRANCH  35  39
BRANCH  36  46
HETATM   46  O12 UNL     1      -5.428   8.508   7.700  1.00  0.00    -0.388 OA
HETATM   47  H35 UNL     1      -5.443   7.852   8.436  1.00  0.00     0.210 HD
ENDBRANCH  36  46
BRANCH  37  48
HETATM   48  N3  UNL     1      -6.910  10.319   5.429  1.00  0.00    -0.297 N 
HETATM   49  C19 UNL     1      -5.859  10.882   4.744  1.00  0.00     0.188 A 
HETATM   50  N4  UNL     1      -6.081  12.142   4.437  1.00  0.00    -0.346 N 
HETATM   51  C20 UNL     1      -7.341  12.407   4.944  1.00  0.00     0.116 A 
HETATM   52  H4  UNL     1      -5.463  12.780   3.937  1.00  0.00     0.167 HD
HETATM   53  C21 UNL     1      -8.161  13.548   4.910  1.00  0.00     0.109 A 
HETATM   54  C23 UNL     1      -7.849  11.298   5.595  1.00  0.00     0.142 A 
HETATM   55  N5  UNL     1      -9.369  13.497   5.523  1.00  0.00    -0.341 N 
HETATM   56  C22 UNL     1      -9.724  12.353   6.141  1.00  0.00     0.183 A 
HETATM   57  H5  UNL     1      -9.993  14.304   5.516  1.00  0.00     0.167 HD
HETATM   58  N6  UNL     1      -9.030  11.200   6.231  1.00  0.00    -0.336 N 
HETATM   59  H6  UNL     1      -9.358  10.365   6.717  1.00  0.00     0.168 HD
BRANCH  53  60
HETATM   60  N7  UNL     1      -7.795  14.731   4.289  1.00  0.00    -0.287 NA
HETATM   61  H33 UNL     1      -8.307  15.550   4.612  1.00  0.00     0.125 HD
HETATM   62  H34 UNL     1      -7.677  14.633   3.290  1.00  0.00     0.125 HD
ENDBRANCH  53  60
ENDBRANCH  37  48
ENDBRANCH  33  34
ENDBRANCH  32  33
ENDBRANCH  28  32
ENDBRANCH  27  28
ENDBRANCH  23  27
ENDBRANCH  22  23
ENDBRANCH  21  22
ENDBRANCH  18  21
ENDBRANCH  17  18
BRANCH  17  63
HETATM   63  O17 UNL     1     -16.049  12.586   6.763  1.00  0.00    -0.385 OA
HETATM   64  H38 UNL     1     -15.824  12.599   5.817  1.00  0.00     0.210 HD
ENDBRANCH  17  63
ENDBRANCH  14  17
ENDBRANCH  12  13
ENDBRANCH  11  12
ENDBRANCH   8  11
ENDBRANCH   6   7
ENDBRANCH   5   6
ENDBRANCH   4   5
ENDBRANCH   2   4
TORSDOF 27
ENDMDL
MODEL 17
REMARK VINA RESULT:      -3.7     11.724     14.225
REMARK  27 active torsions:
REMARK  status: ('A' for Active; 'I' for Inactive)
REMARK    1  A    between atoms: C2_2  and  S1_4 
REMARK    2  A    between atoms: S1_4  and  C3_5 
REMARK    3  A    between atoms: C3_5  and  C4_6 
REMARK    4  A    between atoms: C4_6  and  N1_7 
REMARK       I    between atoms: N1_7  and  C5_8 
REMARK    5  A    between atoms: C5_8  and  C6_10 
REMARK    6  A    between atoms: C6_10  and  C7_11 
REMARK    7  A    between atoms: C7_11  and  N2_12 
REMARK       I    between atoms: N2_12  and  C8_13 
REMARK    8  A    between atoms: C8_13  and  C9_15 
REMARK    9  A    between atoms: C9_15  and  C10_16 
REMARK   10  A    between atoms: C9_15  and  O17_54 
REMARK   11  A    between atoms: C10_16  and  C13_19 
REMARK   12  A    between atoms: C13_19  and  O4_20 
REMARK   13  A    between atoms: O4_20  and  P1_21 
REMARK   14  A    between atoms: P1_21  and  O6_23 
REMARK   15  A    between atoms: P1_21  and  O7_24 
REMARK   16  A    between atoms: O7_24  and  P2_25 
REMARK   17  A    between atoms: P2_25  and  O9_27 
REMARK   18  A    between atoms: P2_25  and  O10_28 
REMARK   19  A    between atoms: O10_28  and  C14_29 
REMARK   20  A    between atoms: C14_29  and  C15_30 
REMARK   21  A    between atoms: C16_31  and  O13_49 
REMARK   22  A    between atoms: C17_32  and  O12_48 
REMARK   23  A    between atoms: C18_33  and  N3_35 
REMARK   24  A    between atoms: C21_40  and  N7_47 
REMARK   25  A    between atoms: O13_49  and  P3_50 
REMARK   26  A    between atoms: P3_50  and  O15_52 
REMARK   27  A    between atoms: P3_50  and  O16_53 
ROOT
HETATM    1  C1  UNL     1     -11.001  17.982   1.684  1.00  0.00     0.104 C 
HETATM    2  C2  UNL     1     -11.450  17.363   2.972  1.00  0.00     0.182 C 
HETATM    3  O1  UNL     1     -11.262  16.182   3.255  1.00  0.00    -0.286 OA
ENDROOT
BRANCH   2   4
HETATM    4  S1  UNL     1     -12.312  18.460   4.042  1.00  0.00    -0.091 SA
BRANCH   4   5
HETATM    5  C3  UNL     1     -13.803  18.781   3.044  1.00  0.00     0.102 C 
BRANCH   5   6
HETATM    6  C4  UNL     1     -14.854  17.683   3.220  1.00  0.00     0.133 C 
BRANCH   6   7
HETATM    7  N1  UNL     1     -15.880  17.722   2.199  1.00  0.00    -0.360 N 
HETATM    8  C5  UNL     1     -17.162  18.135   2.477  1.00  0.00     0.219 C 
HETATM    9  O2  UNL     1     -17.534  18.415   3.611  1.00  0.00    -0.274 OA
HETATM   10  H8  UNL     1     -15.640  17.445   1.256  1.00  0.00     0.162 HD
BRANCH   8  11
HETATM   11  C6  UNL     1     -18.063  18.155   1.260  1.00  0.00     0.122 C 
BRANCH  11  12
HETATM   12  C7  UNL     1     -18.997  16.946   1.222  1.00  0.00     0.132 C 
BRANCH  12  13
HETATM   13  N2  UNL     1     -19.778  16.794   2.432  1.00  0.00    -0.358 N 
HETATM   14  C8  UNL     1     -20.393  15.589   2.717  1.00  0.00     0.247 C 
HETATM   15  O3  UNL     1     -20.405  14.659   1.920  1.00  0.00    -0.271 OA
HETATM   16  H13 UNL     1     -19.476  17.361   3.222  1.00  0.00     0.162 HD
BRANCH  14  17
HETATM   17  C9  UNL     1     -21.037  15.507   4.109  1.00  0.00     0.219 C 
BRANCH  17  18
HETATM   18  C10 UNL     1     -22.433  16.176   4.212  1.00  0.00     0.009 C 
HETATM   19  C11 UNL     1     -22.380  17.510   4.971  1.00  0.00     0.020 C 
HETATM   20  C12 UNL     1     -23.034  16.446   2.818  1.00  0.00     0.020 C 
BRANCH  18  21
HETATM   21  C13 UNL     1     -23.332  15.170   4.986  1.00  0.00     0.192 C 
BRANCH  21  22
HETATM   22  O4  UNL     1     -23.138  15.240   6.384  1.00  0.00    -0.296 OA
BRANCH  22  23
HETATM   23  P1  UNL     1     -23.345  13.981   7.356  1.00  0.00     0.401 P 
HETATM   24  O5  UNL     1     -24.662  13.291   7.191  1.00  0.00    -0.631 OA
BRANCH  23  25
HETATM   25  O6  UNL     1     -23.067  14.500   8.855  1.00  0.00    -0.307 OA
HETATM   26  H23 UNL     1     -22.801  15.428   8.872  1.00  0.00     0.222 HD
ENDBRANCH  23  25
BRANCH  23  27
HETATM   27  O7  UNL     1     -22.074  13.057   7.108  1.00  0.00    -0.195 OA
BRANCH  27  28
HETATM   28  P2  UNL     1     -22.033  11.610   7.772  1.00  0.00     0.401 P 
HETATM   29  O8  UNL     1     -22.346  11.525   9.230  1.00  0.00    -0.631 OA
BRANCH  28  30
HETATM   30  O9  UNL     1     -23.011  10.753   6.845  1.00  0.00    -0.307 OA
HETATM   31  H24 UNL     1     -22.969  10.990   5.887  1.00  0.00     0.222 HD
ENDBRANCH  28  30
BRANCH  28  32
HETATM   32  O10 UNL     1     -20.617  11.021   7.327  1.00  0.00    -0.294 OA
BRANCH  32  33
HETATM   33  C14 UNL     1     -20.477   9.649   7.068  1.00  0.00     0.215 C 
BRANCH  33  34
HETATM   34  C15 UNL     1     -19.910   9.537   5.654  1.00  0.00     0.180 C 
HETATM   35  C16 UNL     1     -19.892  10.910   4.996  1.00  0.00     0.197 C 
HETATM   36  C17 UNL     1     -20.816  10.775   3.800  1.00  0.00     0.199 C 
HETATM   37  C18 UNL     1     -20.750   9.274   3.509  1.00  0.00     0.262 C 
HETATM   38  O11 UNL     1     -20.670   8.661   4.814  1.00  0.00    -0.353 OA
BRANCH  35  39
HETATM   39  O13 UNL     1     -18.552  11.196   4.608  1.00  0.00    -0.286 OA
BRANCH  39  40
HETATM   40  P3  UNL     1     -17.965  12.587   5.134  1.00  0.00     0.391 P 
HETATM   41  O14 UNL     1     -16.605  12.476   5.743  1.00  0.00    -0.632 OA
BRANCH  40  42
HETATM   42  O15 UNL     1     -19.160  13.079   6.077  1.00  0.00    -0.307 OA
HETATM   43  H36 UNL     1     -18.807  13.494   6.900  1.00  0.00     0.222 HD
ENDBRANCH  40  42
BRANCH  40  44
HETATM   44  O16 UNL     1     -18.122  13.503   3.844  1.00  0.00    -0.307 OA
HETATM   45  H37 UNL     1     -19.002  13.439   3.441  1.00  0.00     0.222 HD
ENDBRANCH  40  44
ENDBRANCH  39  40
ENDBRANCH  35  39
BRANCH  36  46
HETATM   46  O12 UNL     1     -20.411  11.665   2.757  1.00  0.00    -0.388 OA
HETATM   47  H35 UNL     1     -19.443  11.816   2.881  1.00  0.00     0.210 HD
ENDBRANCH  36  46
BRANCH  37  48
HETATM   48  N3  UNL     1     -21.937   8.786   2.836  1.00  0.00    -0.297 N 
HETATM   49  C19 UNL     1     -22.050   8.410   1.518  1.00  0.00     0.188 A 
HETATM   50  N4  UNL     1     -23.228   7.891   1.246  1.00  0.00    -0.346 N 
HETATM   51  C20 UNL     1     -23.911   7.927   2.449  1.00  0.00     0.116 A 
HETATM   52  H4  UNL     1     -23.563   7.540   0.349  1.00  0.00     0.167 HD
HETATM   53  C21 UNL     1     -25.189   7.486   2.833  1.00  0.00     0.109 A 
HETATM   54  C23 UNL     1     -23.137   8.515   3.433  1.00  0.00     0.142 A 
HETATM   55  N5  UNL     1     -25.584   7.678   4.115  1.00  0.00    -0.341 N 
HETATM   56  C22 UNL     1     -24.731   8.288   4.961  1.00  0.00     0.183 A 
HETATM   57  H5  UNL     1     -26.503   7.368   4.431  1.00  0.00     0.167 HD
HETATM   58  N6  UNL     1     -23.485   8.743   4.712  1.00  0.00    -0.336 N 
HETATM   59  H6  UNL     1     -22.887   9.199   5.401  1.00  0.00     0.168 HD
BRANCH  53  60
HETATM   60  N7  UNL     1     -26.076   6.872   1.963  1.00  0.00    -0.287 NA
HETATM   61  H33 UNL     1     -25.836   5.911   1.730  1.00  0.00     0.125 HD
HETATM   62  H34 UNL     1     -26.356   7.470   1.197  1.00  0.00     0.125 HD
ENDBRANCH  53  60
ENDBRANCH  37  48
ENDBRANCH  33  34
ENDBRANCH  32  33
ENDBRANCH  28  32
ENDBRANCH  27  28
ENDBRANCH  23  27
ENDBRANCH  22  23
ENDBRANCH  21  22
ENDBRANCH  18  21
ENDBRANCH  17  18
BRANCH  17  63
HETATM   63  O17 UNL     1     -21.156  14.140   4.518  1.00  0.00    -0.385 OA
HETATM   64  H38 UNL     1     -20.649  13.594   3.895  1.00  0.00     0.210 HD
ENDBRANCH  17  63
ENDBRANCH  14  17
ENDBRANCH  12  13
ENDBRANCH  11  12
ENDBRANCH   8  11
ENDBRANCH   6   7
ENDBRANCH   5   6
ENDBRANCH   4   5
ENDBRANCH   2   4
TORSDOF 27
ENDMDL
MODEL 18
REMARK VINA RESULT:      -3.7     10.946     13.721
REMARK  27 active torsions:
REMARK  status: ('A' for Active; 'I' for Inactive)
REMARK    1  A    between atoms: C2_2  and  S1_4 
REMARK    2  A    between atoms: S1_4  and  C3_5 
REMARK    3  A    between atoms: C3_5  and  C4_6 
REMARK    4  A    between atoms: C4_6  and  N1_7 
REMARK       I    between atoms: N1_7  and  C5_8 
REMARK    5  A    between atoms: C5_8  and  C6_10 
REMARK    6  A    between atoms: C6_10  and  C7_11 
REMARK    7  A    between atoms: C7_11  and  N2_12 
REMARK       I    between atoms: N2_12  and  C8_13 
REMARK    8  A    between atoms: C8_13  and  C9_15 
REMARK    9  A    between atoms: C9_15  and  C10_16 
REMARK   10  A    between atoms: C9_15  and  O17_54 
REMARK   11  A    between atoms: C10_16  and  C13_19 
REMARK   12  A    between atoms: C13_19  and  O4_20 
REMARK   13  A    between atoms: O4_20  and  P1_21 
REMARK   14  A    between atoms: P1_21  and  O6_23 
REMARK   15  A    between atoms: P1_21  and  O7_24 
REMARK   16  A    between atoms: O7_24  and  P2_25 
REMARK   17  A    between atoms: P2_25  and  O9_27 
REMARK   18  A    between atoms: P2_25  and  O10_28 
REMARK   19  A    between atoms: O10_28  and  C14_29 
REMARK   20  A    between atoms: C14_29  and  C15_30 
REMARK   21  A    between atoms: C16_31  and  O13_49 
REMARK   22  A    between atoms: C17_32  and  O12_48 
REMARK   23  A    between atoms: C18_33  and  N3_35 
REMARK   24  A    between atoms: C21_40  and  N7_47 
REMARK   25  A    between atoms: O13_49  and  P3_50 
REMARK   26  A    between atoms: P3_50  and  O15_52 
REMARK   27  A    between atoms: P3_50  and  O16_53 
ROOT
HETATM    1  C1  UNL     1     -25.395  14.952  10.539  1.00  0.00     0.104 C 
HETATM    2  C2  UNL     1     -24.786  14.813   9.177  1.00  0.00     0.182 C 
HETATM    3  O1  UNL     1     -23.604  15.047   8.940  1.00  0.00    -0.286 OA
ENDROOT
BRANCH   2   4
HETATM    4  S1  UNL     1     -25.917  14.322   7.924  1.00  0.00    -0.091 SA
BRANCH   4   5
HETATM    5  C3  UNL     1     -25.378  12.602   7.656  1.00  0.00     0.102 C 
BRANCH   5   6
HETATM    6  C4  UNL     1     -24.691  12.425   6.301  1.00  0.00     0.133 C 
BRANCH   6   7
HETATM    7  N1  UNL     1     -23.702  13.450   6.036  1.00  0.00    -0.360 N 
HETATM    8  C5  UNL     1     -22.369  13.260   6.315  1.00  0.00     0.219 C 
HETATM    9  O2  UNL     1     -21.949  12.253   6.873  1.00  0.00    -0.274 OA
HETATM   10  H8  UNL     1     -24.006  14.325   5.629  1.00  0.00     0.162 HD
BRANCH   8  11
HETATM   11  C6  UNL     1     -21.499  14.431   5.912  1.00  0.00     0.122 C 
BRANCH  11  12
HETATM   12  C7  UNL     1     -22.044  15.148   4.677  1.00  0.00     0.132 C 
BRANCH  12  13
HETATM   13  N2  UNL     1     -21.011  15.511   3.729  1.00  0.00    -0.358 N 
HETATM   14  C8  UNL     1     -20.630  16.832   3.585  1.00  0.00     0.247 C 
HETATM   15  O3  UNL     1     -21.218  17.745   4.152  1.00  0.00    -0.271 OA
HETATM   16  H13 UNL     1     -20.301  14.801   3.562  1.00  0.00     0.162 HD
BRANCH  14  17
HETATM   17  C9  UNL     1     -19.409  17.056   2.682  1.00  0.00     0.219 C 
BRANCH  17  18
HETATM   18  C10 UNL     1     -18.078  17.288   3.445  1.00  0.00     0.009 C 
HETATM   19  C11 UNL     1     -16.867  16.737   2.678  1.00  0.00     0.020 C 
HETATM   20  C12 UNL     1     -17.832  18.788   3.708  1.00  0.00     0.020 C 
BRANCH  18  21
HETATM   21  C13 UNL     1     -18.226  16.536   4.799  1.00  0.00     0.192 C 
BRANCH  21  22
HETATM   22  O4  UNL     1     -17.139  16.775   5.670  1.00  0.00    -0.296 OA
BRANCH  22  23
HETATM   23  P1  UNL     1     -17.250  16.627   7.262  1.00  0.00     0.401 P 
HETATM   24  O5  UNL     1     -16.903  17.870   8.018  1.00  0.00    -0.631 OA
BRANCH  23  25
HETATM   25  O6  UNL     1     -16.362  15.348   7.673  1.00  0.00    -0.307 OA
HETATM   26  H23 UNL     1     -15.446  15.435   7.380  1.00  0.00     0.222 HD
ENDBRANCH  23  25
BRANCH  23  27
HETATM   27  O7  UNL     1     -18.720  16.079   7.523  1.00  0.00    -0.195 OA
BRANCH  27  28
HETATM   28  P2  UNL     1     -19.036  15.345   8.901  1.00  0.00     0.401 P 
HETATM   29  O8  UNL     1     -18.175  15.700  10.069  1.00  0.00    -0.631 OA
BRANCH  28  30
HETATM   30  O9  UNL     1     -20.590  15.637   9.124  1.00  0.00    -0.307 OA
HETATM   31  H24 UNL     1     -20.875  15.601  10.070  1.00  0.00     0.222 HD
ENDBRANCH  28  30
BRANCH  28  32
HETATM   32  O10 UNL     1     -19.081  13.797   8.513  1.00  0.00    -0.294 OA
BRANCH  32  33
HETATM   33  C14 UNL     1     -18.284  12.875   9.210  1.00  0.00     0.215 C 
BRANCH  33  34
HETATM   34  C15 UNL     1     -17.964  11.755   8.221  1.00  0.00     0.180 C 
HETATM   35  C16 UNL     1     -16.477  11.767   7.894  1.00  0.00     0.197 C 
HETATM   36  C17 UNL     1     -16.414  12.045   6.404  1.00  0.00     0.199 C 
HETATM   37  C18 UNL     1     -17.772  11.530   5.921  1.00  0.00     0.262 C 
HETATM   38  O11 UNL     1     -18.683  11.874   6.989  1.00  0.00    -0.353 OA
BRANCH  35  39
HETATM   39  O13 UNL     1     -15.942  10.489   8.224  1.00  0.00    -0.286 OA
BRANCH  39  40
HETATM   40  P3  UNL     1     -14.589  10.508   9.076  1.00  0.00     0.391 P 
HETATM   41  O14 UNL     1     -14.793  10.253  10.535  1.00  0.00    -0.632 OA
BRANCH  40  42
HETATM   42  O15 UNL     1     -13.986  11.927   8.650  1.00  0.00    -0.307 OA
HETATM   43  H36 UNL     1     -14.184  12.119   7.702  1.00  0.00     0.222 HD
ENDBRANCH  40  42
BRANCH  40  44
HETATM   44  O16 UNL     1     -13.692   9.475   8.266  1.00  0.00    -0.307 OA
HETATM   45  H37 UNL     1     -14.119   9.162   7.453  1.00  0.00     0.222 HD
ENDBRANCH  40  44
ENDBRANCH  39  40
ENDBRANCH  35  39
BRANCH  36  46
HETATM   46  O12 UNL     1     -15.246  11.446   5.836  1.00  0.00    -0.388 OA
HETATM   47  H35 UNL     1     -15.173  11.795   4.916  1.00  0.00     0.210 HD
ENDBRANCH  36  46
BRANCH  37  48
HETATM   48  N3  UNL     1     -18.213  12.181   4.704  1.00  0.00    -0.297 N 
HETATM   49  C19 UNL     1     -17.504  13.073   3.934  1.00  0.00     0.188 A 
HETATM   50  N4  UNL     1     -18.135  13.385   2.824  1.00  0.00    -0.346 N 
HETATM   51  C20 UNL     1     -19.310  12.656   2.873  1.00  0.00     0.116 A 
HETATM   52  H4  UNL     1     -17.828  14.023   2.089  1.00  0.00     0.167 HD
HETATM   53  C21 UNL     1     -20.383  12.517   1.976  1.00  0.00     0.109 A 
HETATM   54  C23 UNL     1     -19.389  11.936   4.051  1.00  0.00     0.142 A 
HETATM   55  N5  UNL     1     -21.420  11.715   2.324  1.00  0.00    -0.341 N 
HETATM   56  C22 UNL     1     -21.372  11.092   3.518  1.00  0.00     0.183 A 
HETATM   57  H5  UNL     1     -22.215  11.587   1.698  1.00  0.00     0.167 HD
HETATM   58  N6  UNL     1     -20.398  11.141   4.450  1.00  0.00    -0.336 N 
HETATM   59  H6  UNL     1     -20.423  10.642   5.340  1.00  0.00     0.168 HD
BRANCH  53  60
HETATM   60  N7  UNL     1     -20.445  13.167   0.754  1.00  0.00    -0.287 NA
HETATM   61  H33 UNL     1     -20.553  14.176   0.821  1.00  0.00     0.125 HD
HETATM   62  H34 UNL     1     -21.031  12.689   0.082  1.00  0.00     0.125 HD
ENDBRANCH  53  60
ENDBRANCH  37  48
ENDBRANCH  33  34
ENDBRANCH  32  33
ENDBRANCH  28  32
ENDBRANCH  27  28
ENDBRANCH  23  27
ENDBRANCH  22  23
ENDBRANCH  21  22
ENDBRANCH  18  21
ENDBRANCH  17  18
BRANCH  17  63
HETATM   63  O17 UNL     1     -19.237  15.941   1.800  1.00  0.00    -0.385 OA
HETATM   64  H38 UNL     1     -18.305  15.670   1.834  1.00  0.00     0.210 HD
ENDBRANCH  17  63
ENDBRANCH  14  17
ENDBRANCH  12  13
ENDBRANCH  11  12
ENDBRANCH   8  11
ENDBRANCH   6   7
ENDBRANCH   5   6
ENDBRANCH   4   5
ENDBRANCH   2   4
TORSDOF 27
ENDMDL
MODEL 19
REMARK VINA RESULT:      -3.7     11.269     16.363
REMARK  27 active torsions:
REMARK  status: ('A' for Active; 'I' for Inactive)
REMARK    1  A    between atoms: C2_2  and  S1_4 
REMARK    2  A    between atoms: S1_4  and  C3_5 
REMARK    3  A    between atoms: C3_5  and  C4_6 
REMARK    4  A    between atoms: C4_6  and  N1_7 
REMARK       I    between atoms: N1_7  and  C5_8 
REMARK    5  A    between atoms: C5_8  and  C6_10 
REMARK    6  A    between atoms: C6_10  and  C7_11 
REMARK    7  A    between atoms: C7_11  and  N2_12 
REMARK       I    between atoms: N2_12  and  C8_13 
REMARK    8  A    between atoms: C8_13  and  C9_15 
REMARK    9  A    between atoms: C9_15  and  C10_16 
REMARK   10  A    between atoms: C9_15  and  O17_54 
REMARK   11  A    between atoms: C10_16  and  C13_19 
REMARK   12  A    between atoms: C13_19  and  O4_20 
REMARK   13  A    between atoms: O4_20  and  P1_21 
REMARK   14  A    between atoms: P1_21  and  O6_23 
REMARK   15  A    between atoms: P1_21  and  O7_24 
REMARK   16  A    between atoms: O7_24  and  P2_25 
REMARK   17  A    between atoms: P2_25  and  O9_27 
REMARK   18  A    between atoms: P2_25  and  O10_28 
REMARK   19  A    between atoms: O10_28  and  C14_29 
REMARK   20  A    between atoms: C14_29  and  C15_30 
REMARK   21  A    between atoms: C16_31  and  O13_49 
REMARK   22  A    between atoms: C17_32  and  O12_48 
REMARK   23  A    between atoms: C18_33  and  N3_35 
REMARK   24  A    between atoms: C21_40  and  N7_47 
REMARK   25  A    between atoms: O13_49  and  P3_50 
REMARK   26  A    between atoms: P3_50  and  O15_52 
REMARK   27  A    between atoms: P3_50  and  O16_53 
ROOT
HETATM    1  C1  UNL     1     -19.554  13.785  11.384  1.00  0.00     0.104 C 
HETATM    2  C2  UNL     1     -19.239  13.044  10.120  1.00  0.00     0.182 C 
HETATM    3  O1  UNL     1     -18.114  12.996   9.629  1.00  0.00    -0.286 OA
ENDROOT
BRANCH   2   4
HETATM    4  S1  UNL     1     -20.628  12.273   9.367  1.00  0.00    -0.091 SA
BRANCH   4   5
HETATM    5  C3  UNL     1     -21.428  13.721   8.604  1.00  0.00     0.102 C 
BRANCH   5   6
HETATM    6  C4  UNL     1     -20.637  14.242   7.402  1.00  0.00     0.133 C 
BRANCH   6   7
HETATM    7  N1  UNL     1     -19.879  13.201   6.738  1.00  0.00    -0.360 N 
HETATM    8  C5  UNL     1     -18.568  13.386   6.367  1.00  0.00     0.219 C 
HETATM    9  O2  UNL     1     -17.989  14.458   6.500  1.00  0.00    -0.274 OA
HETATM   10  H8  UNL     1     -20.330  12.315   6.552  1.00  0.00     0.162 HD
BRANCH   8  11
HETATM   11  C6  UNL     1     -17.944  12.158   5.739  1.00  0.00     0.122 C 
BRANCH  11  12
HETATM   12  C7  UNL     1     -18.331  10.879   6.481  1.00  0.00     0.132 C 
BRANCH  12  13
HETATM   13  N2  UNL     1     -19.008   9.916   5.638  1.00  0.00    -0.358 N 
HETATM   14  C8  UNL     1     -20.367   9.705   5.774  1.00  0.00     0.247 C 
HETATM   15  O3  UNL     1     -21.020  10.222   6.672  1.00  0.00    -0.271 OA
HETATM   16  H13 UNL     1     -18.607   9.788   4.711  1.00  0.00     0.162 HD
BRANCH  14  17
HETATM   17  C9  UNL     1     -20.988   8.794   4.705  1.00  0.00     0.219 C 
BRANCH  17  18
HETATM   18  C10 UNL     1     -21.735   9.548   3.573  1.00  0.00     0.009 C 
HETATM   19  C11 UNL     1     -21.778   8.738   2.269  1.00  0.00     0.020 C 
HETATM   20  C12 UNL     1     -23.187   9.878   3.976  1.00  0.00     0.020 C 
BRANCH  18  21
HETATM   21  C13 UNL     1     -20.942  10.867   3.343  1.00  0.00     0.192 C 
BRANCH  21  22
HETATM   22  O4  UNL     1     -21.791  11.973   3.114  1.00  0.00    -0.296 OA
BRANCH  22  23
HETATM   23  P1  UNL     1     -21.296  13.317   2.394  1.00  0.00     0.401 P 
HETATM   24  O5  UNL     1     -22.401  14.149   1.824  1.00  0.00    -0.631 OA
BRANCH  23  25
HETATM   25  O6  UNL     1     -20.185  12.883   1.312  1.00  0.00    -0.307 OA
HETATM   26  H23 UNL     1     -19.288  13.041   1.632  1.00  0.00     0.222 HD
ENDBRANCH  23  25
BRANCH  23  27
HETATM   27  O7  UNL     1     -20.397  14.057   3.479  1.00  0.00    -0.195 OA
BRANCH  27  28
HETATM   28  P2  UNL     1     -19.158  14.929   2.987  1.00  0.00     0.401 P 
HETATM   29  O8  UNL     1     -17.836  14.239   2.904  1.00  0.00    -0.631 OA
BRANCH  28  30
HETATM   30  O9  UNL     1     -19.664  15.536   1.600  1.00  0.00    -0.307 OA
HETATM   31  H24 UNL     1     -19.596  16.520   1.541  1.00  0.00     0.222 HD
ENDBRANCH  28  30
BRANCH  28  32
HETATM   32  O10 UNL     1     -19.209  16.229   3.913  1.00  0.00    -0.294 OA
BRANCH  32  33
HETATM   33  C14 UNL     1     -20.348  16.495   4.688  1.00  0.00     0.215 C 
BRANCH  33  34
HETATM   34  C15 UNL     1     -20.755  17.933   4.370  1.00  0.00     0.180 C 
HETATM   35  C16 UNL     1     -21.753  17.943   3.219  1.00  0.00     0.197 C 
HETATM   36  C17 UNL     1     -21.058  18.717   2.115  1.00  0.00     0.199 C 
HETATM   37  C18 UNL     1     -20.083  19.597   2.901  1.00  0.00     0.262 C 
HETATM   38  O11 UNL     1     -19.646  18.757   3.993  1.00  0.00    -0.353 OA
BRANCH  35  39
HETATM   39  O13 UNL     1     -22.937  18.595   3.668  1.00  0.00    -0.286 OA
BRANCH  39  40
HETATM   40  P3  UNL     1     -24.221  17.656   3.829  1.00  0.00     0.391 P 
HETATM   41  O14 UNL     1     -25.482  18.266   3.309  1.00  0.00    -0.632 OA
BRANCH  40  42
HETATM   42  O15 UNL     1     -24.150  17.320   5.392  1.00  0.00    -0.307 OA
HETATM   43  H36 UNL     1     -24.531  18.057   5.925  1.00  0.00     0.222 HD
ENDBRANCH  40  42
BRANCH  40  44
HETATM   44  O16 UNL     1     -23.716  16.312   3.146  1.00  0.00    -0.307 OA
HETATM   45  H37 UNL     1     -24.414  15.641   3.076  1.00  0.00     0.222 HD
ENDBRANCH  40  44
ENDBRANCH  39  40
ENDBRANCH  35  39
BRANCH  36  46
HETATM   46  O12 UNL     1     -22.021  19.379   1.291  1.00  0.00    -0.388 OA
HETATM   47  H35 UNL     1     -22.294  20.191   1.781  1.00  0.00     0.210 HD
ENDBRANCH  36  46
BRANCH  37  48
HETATM   48  N3  UNL     1     -18.926  19.982   2.118  1.00  0.00    -0.297 N 
HETATM   49  C19 UNL     1     -18.637  21.232   1.622  1.00  0.00     0.188 A 
HETATM   50  N4  UNL     1     -17.448  21.284   1.062  1.00  0.00    -0.346 N 
HETATM   51  C20 UNL     1     -16.939  20.005   1.206  1.00  0.00     0.116 A 
HETATM   52  H4  UNL     1     -17.001  22.087   0.620  1.00  0.00     0.167 HD
HETATM   53  C21 UNL     1     -15.706  19.426   0.858  1.00  0.00     0.109 A 
HETATM   54  C23 UNL     1     -17.860  19.179   1.824  1.00  0.00     0.142 A 
HETATM   55  N5  UNL     1     -15.507  18.113   1.128  1.00  0.00    -0.341 N 
HETATM   56  C22 UNL     1     -16.506  17.423   1.715  1.00  0.00     0.183 A 
HETATM   57  H5  UNL     1     -14.625  17.658   0.894  1.00  0.00     0.167 HD
HETATM   58  N6  UNL     1     -17.719  17.870   2.099  1.00  0.00    -0.336 N 
HETATM   59  H6  UNL     1     -18.435  17.292   2.540  1.00  0.00     0.168 HD
BRANCH  53  60
HETATM   60  N7  UNL     1     -14.682  20.127   0.242  1.00  0.00    -0.287 NA
HETATM   61  H33 UNL     1     -14.843  20.325  -0.743  1.00  0.00     0.125 HD
HETATM   62  H34 UNL     1     -13.764  19.786   0.494  1.00  0.00     0.125 HD
ENDBRANCH  53  60
ENDBRANCH  37  48
ENDBRANCH  33  34
ENDBRANCH  32  33
ENDBRANCH  28  32
ENDBRANCH  27  28
ENDBRANCH  23  27
ENDBRANCH  22  23
ENDBRANCH  21  22
ENDBRANCH  18  21
ENDBRANCH  17  18
BRANCH  17  63
HETATM   63  O17 UNL     1     -19.979   7.970   4.112  1.00  0.00    -0.385 OA
HETATM   64  H38 UNL     1     -20.230   7.802   3.189  1.00  0.00     0.210 HD
ENDBRANCH  17  63
ENDBRANCH  14  17
ENDBRANCH  12  13
ENDBRANCH  11  12
ENDBRANCH   8  11
ENDBRANCH   6   7
ENDBRANCH   5   6
ENDBRANCH   4   5
ENDBRANCH   2   4
TORSDOF 27
ENDMDL
MODEL 20
REMARK VINA RESULT:      -3.7     12.520     15.502
REMARK  27 active torsions:
REMARK  status: ('A' for Active; 'I' for Inactive)
REMARK    1  A    between atoms: C2_2  and  S1_4 
REMARK    2  A    between atoms: S1_4  and  C3_5 
REMARK    3  A    between atoms: C3_5  and  C4_6 
REMARK    4  A    between atoms: C4_6  and  N1_7 
REMARK       I    between atoms: N1_7  and  C5_8 
REMARK    5  A    between atoms: C5_8  and  C6_10 
REMARK    6  A    between atoms: C6_10  and  C7_11 
REMARK    7  A    between atoms: C7_11  and  N2_12 
REMARK       I    between atoms: N2_12  and  C8_13 
REMARK    8  A    between atoms: C8_13  and  C9_15 
REMARK    9  A    between atoms: C9_15  and  C10_16 
REMARK   10  A    between atoms: C9_15  and  O17_54 
REMARK   11  A    between atoms: C10_16  and  C13_19 
REMARK   12  A    between atoms: C13_19  and  O4_20 
REMARK   13  A    between atoms: O4_20  and  P1_21 
REMARK   14  A    between atoms: P1_21  and  O6_23 
REMARK   15  A    between atoms: P1_21  and  O7_24 
REMARK   16  A    between atoms: O7_24  and  P2_25 
REMARK   17  A    between atoms: P2_25  and  O9_27 
REMARK   18  A    between atoms: P2_25  and  O10_28 
REMARK   19  A    between atoms: O10_28  and  C14_29 
REMARK   20  A    between atoms: C14_29  and  C15_30 
REMARK   21  A    between atoms: C16_31  and  O13_49 
REMARK   22  A    between atoms: C17_32  and  O12_48 
REMARK   23  A    between atoms: C18_33  and  N3_35 
REMARK   24  A    between atoms: C21_40  and  N7_47 
REMARK   25  A    between atoms: O13_49  and  P3_50 
REMARK   26  A    between atoms: P3_50  and  O15_52 
REMARK   27  A    between atoms: P3_50  and  O16_53 
ROOT
HETATM    1  C1  UNL     1     -21.286  16.818  12.617  1.00  0.00     0.104 C 
HETATM    2  C2  UNL     1     -20.703  15.607  11.953  1.00  0.00     0.182 C 
HETATM    3  O1  UNL     1     -21.324  14.558  11.799  1.00  0.00    -0.286 OA
ENDROOT
BRANCH   2   4
HETATM    4  S1  UNL     1     -19.031  15.794  11.444  1.00  0.00    -0.091 SA
BRANCH   4   5
HETATM    5  C3  UNL     1     -18.757  14.185  10.634  1.00  0.00     0.102 C 
BRANCH   5   6
HETATM    6  C4  UNL     1     -18.487  14.339   9.136  1.00  0.00     0.133 C 
BRANCH   6   7
HETATM    7  N1  UNL     1     -18.565  13.082   8.421  1.00  0.00    -0.360 N 
HETATM    8  C5  UNL     1     -17.830  12.850   7.282  1.00  0.00     0.219 C 
HETATM    9  O2  UNL     1     -17.132  13.712   6.761  1.00  0.00    -0.274 OA
HETATM   10  H8  UNL     1     -19.173  12.357   8.778  1.00  0.00     0.162 HD
BRANCH   8  11
HETATM   11  C6  UNL     1     -18.015  11.456   6.723  1.00  0.00     0.122 C 
BRANCH  11  12
HETATM   12  C7  UNL     1     -18.099  11.460   5.197  1.00  0.00     0.132 C 
BRANCH  12  13
HETATM   13  N2  UNL     1     -18.885  12.557   4.674  1.00  0.00    -0.358 N 
HETATM   14  C8  UNL     1     -18.647  13.040   3.401  1.00  0.00     0.247 C 
HETATM   15  O3  UNL     1     -17.706  12.650   2.721  1.00  0.00    -0.271 OA
HETATM   16  H13 UNL     1     -19.838  12.620   5.026  1.00  0.00     0.162 HD
BRANCH  14  17
HETATM   17  C9  UNL     1     -19.663  14.080   2.906  1.00  0.00     0.219 C 
BRANCH  17  18
HETATM   18  C10 UNL     1     -19.159  15.546   2.959  1.00  0.00     0.009 C 
HETATM   19  C11 UNL     1     -19.418  16.197   4.326  1.00  0.00     0.020 C 
HETATM   20  C12 UNL     1     -17.647  15.636   2.669  1.00  0.00     0.020 C 
BRANCH  18  21
HETATM   21  C13 UNL     1     -19.951  16.310   1.859  1.00  0.00     0.192 C 
BRANCH  21  22
HETATM   22  O4  UNL     1     -21.350  16.177   2.012  1.00  0.00    -0.296 OA
BRANCH  22  23
HETATM   23  P1  UNL     1     -22.392  16.556   0.854  1.00  0.00     0.401 P 
HETATM   24  O5  UNL     1     -22.101  15.913  -0.465  1.00  0.00    -0.631 OA
BRANCH  23  25
HETATM   25  O6  UNL     1     -22.456  18.163   0.794  1.00  0.00    -0.307 OA
HETATM   26  H23 UNL     1     -23.332  18.499   1.023  1.00  0.00     0.222 HD
ENDBRANCH  23  25
BRANCH  23  27
HETATM   27  O7  UNL     1     -23.822  16.212   1.460  1.00  0.00    -0.195 OA
BRANCH  27  28
HETATM   28  P2  UNL     1     -24.169  14.696   1.804  1.00  0.00     0.401 P 
HETATM   29  O8  UNL     1     -25.400  14.125   1.179  1.00  0.00    -0.631 OA
BRANCH  28  30
HETATM   30  O9  UNL     1     -22.826  13.918   1.426  1.00  0.00    -0.307 OA
HETATM   31  H24 UNL     1     -22.232  13.742   2.195  1.00  0.00     0.222 HD
ENDBRANCH  28  30
BRANCH  28  32
HETATM   32  O10 UNL     1     -24.104  14.636   3.398  1.00  0.00    -0.294 OA
BRANCH  32  33
HETATM   33  C14 UNL     1     -24.857  13.680   4.097  1.00  0.00     0.215 C 
BRANCH  33  34
HETATM   34  C15 UNL     1     -24.290  13.643   5.515  1.00  0.00     0.180 C 
HETATM   35  C16 UNL     1     -23.065  14.543   5.604  1.00  0.00     0.197 C 
HETATM   36  C17 UNL     1     -21.925  13.607   5.956  1.00  0.00     0.199 C 
HETATM   37  C18 UNL     1     -22.655  12.457   6.653  1.00  0.00     0.262 C 
HETATM   38  O11 UNL     1     -23.896  12.328   5.925  1.00  0.00    -0.353 OA
BRANCH  35  39
HETATM   39  O13 UNL     1     -23.301  15.509   6.623  1.00  0.00    -0.286 OA
BRANCH  39  40
HETATM   40  P3  UNL     1     -23.256  17.035   6.150  1.00  0.00     0.391 P 
HETATM   41  O14 UNL     1     -22.831  17.213   4.728  1.00  0.00    -0.632 OA
BRANCH  40  42
HETATM   42  O15 UNL     1     -22.326  17.673   7.285  1.00  0.00    -0.307 OA
HETATM   43  H36 UNL     1     -22.144  18.624   7.094  1.00  0.00     0.222 HD
ENDBRANCH  40  42
BRANCH  40  44
HETATM   44  O16 UNL     1     -24.711  17.534   6.552  1.00  0.00    -0.307 OA
HETATM   45  H37 UNL     1     -25.414  16.956   6.213  1.00  0.00     0.222 HD
ENDBRANCH  40  44
ENDBRANCH  39  40
ENDBRANCH  35  39
BRANCH  36  46
HETATM   46  O12 UNL     1     -20.926  14.302   6.708  1.00  0.00    -0.388 OA
HETATM   47  H35 UNL     1     -21.403  14.777   7.430  1.00  0.00     0.210 HD
ENDBRANCH  36  46
BRANCH  37  48
HETATM   48  N3  UNL     1     -21.931  11.204   6.566  1.00  0.00    -0.297 N 
HETATM   49  C19 UNL     1     -21.452  10.447   7.609  1.00  0.00     0.188 A 
HETATM   50  N4  UNL     1     -20.951   9.300   7.204  1.00  0.00    -0.346 N 
HETATM   51  C20 UNL     1     -21.119   9.312   5.831  1.00  0.00     0.116 A 
HETATM   52  H4  UNL     1     -20.533   8.565   7.774  1.00  0.00     0.167 HD
HETATM   53  C21 UNL     1     -20.832   8.370   4.827  1.00  0.00     0.109 A 
HETATM   54  C23 UNL     1     -21.689  10.503   5.418  1.00  0.00     0.142 A 
HETATM   55  N5  UNL     1     -21.110   8.689   3.539  1.00  0.00    -0.341 N 
HETATM   56  C22 UNL     1     -21.645   9.899   3.283  1.00  0.00     0.183 A 
HETATM   57  H5  UNL     1     -20.920   8.030   2.785  1.00  0.00     0.167 HD
HETATM   58  N6  UNL     1     -21.969  10.874   4.156  1.00  0.00    -0.336 N 
HETATM   59  H6  UNL     1     -22.373  11.774   3.895  1.00  0.00     0.168 HD
BRANCH  53  60
HETATM   60  N7  UNL     1     -20.269   7.130   5.084  1.00  0.00    -0.287 NA
HETATM   61  H33 UNL     1     -20.518   6.737   5.989  1.00  0.00     0.125 HD
HETATM   62  H34 UNL     1     -19.296   7.076   4.816  1.00  0.00     0.125 HD
ENDBRANCH  53  60
ENDBRANCH  37  48
ENDBRANCH  33  34
ENDBRANCH  32  33
ENDBRANCH  28  32
ENDBRANCH  27  28
ENDBRANCH  23  27
ENDBRANCH  22  23
ENDBRANCH  21  22
ENDBRANCH  18  21
ENDBRANCH  17  18
BRANCH  17  63
HETATM   63  O17 UNL     1     -20.057  13.784   1.562  1.00  0.00    -0.385 OA
HETATM   64  H38 UNL     1     -21.009  13.589   1.562  1.00  0.00     0.210 HD
ENDBRANCH  17  63
ENDBRANCH  14  17
ENDBRANCH  12  13
ENDBRANCH  11  12
ENDBRANCH   8  11
ENDBRANCH   6   7
ENDBRANCH   5   6
ENDBRANCH   4   5
ENDBRANCH   2   4
TORSDOF 27
ENDMDL
