MODEL 1
REMARK VINA RESULT:      -3.7      0.000      0.000
REMARK  2 active torsions:
REMARK  status: ('A' for Active; 'I' for Inactive)
REMARK    1  A    between atoms: C3_3  and  O1_8 
REMARK    2  A    between atoms: C6_6  and  N1_7 
ROOT
HETATM    1  C1  UNL     1       3.723   1.964 -12.229  1.00  0.00     0.026 A 
HETATM    2  C2  UNL     1       3.399   3.174 -11.610  1.00  0.00     0.038 A 
HETATM    3  C3  UNL     1       2.696   3.168 -10.414  1.00  0.00     0.065 A 
HETATM    4  C4  UNL     1       2.324   1.968  -9.817  1.00  0.00     0.038 A 
HETATM    5  C5  UNL     1       2.651   0.762 -10.443  1.00  0.00     0.026 A 
HETATM    6  C6  UNL     1       3.307   0.749 -11.678  1.00  0.00     0.005 A 
ENDROOT
BRANCH   6   7
HETATM    7  N1  UNL     1       3.734  -0.462 -12.236  1.00  0.00    -0.303 NA
HETATM    8  H5  UNL     1       4.582  -0.829 -11.815  1.00  0.00     0.124 HD
HETATM    9  H6  UNL     1       3.779  -0.453 -13.249  1.00  0.00     0.124 HD
ENDBRANCH   6   7
BRANCH   3  10
HETATM   10  O1  UNL     1       2.401   4.369  -9.841  1.00  0.00    -0.361 OA
HETATM   11  H7  UNL     1       1.913   4.908 -10.483  1.00  0.00     0.217 HD
ENDBRANCH   3  10
TORSDOF 2
ENDMDL
MODEL 2
REMARK VINA RESULT:      -3.7      0.100      1.706
REMARK  2 active torsions:
REMARK  status: ('A' for Active; 'I' for Inactive)
REMARK    1  A    between atoms: C3_3  and  O1_8 
REMARK    2  A    between atoms: C6_6  and  N1_7 
ROOT
HETATM    1  C1  UNL     1       2.636   0.797 -10.462  1.00  0.00     0.026 A 
HETATM    2  C2  UNL     1       2.338   2.008  -9.833  1.00  0.00     0.038 A 
HETATM    3  C3  UNL     1       2.707   3.204 -10.431  1.00  0.00     0.065 A 
HETATM    4  C4  UNL     1       3.357   3.209 -11.661  1.00  0.00     0.038 A 
HETATM    5  C5  UNL     1       3.654   1.993 -12.284  1.00  0.00     0.026 A 
HETATM    6  C6  UNL     1       3.342   0.777 -11.669  1.00  0.00     0.005 A 
ENDROOT
BRANCH   6   7
HETATM    7  N1  UNL     1       3.534  -0.429 -12.353  1.00  0.00    -0.303 NA
HETATM    8  H5  UNL     1       3.564  -1.242 -11.746  1.00  0.00     0.124 HD
HETATM    9  H6  UNL     1       4.307  -0.409 -13.010  1.00  0.00     0.124 HD
ENDBRANCH   6   7
BRANCH   3  10
HETATM   10  O1  UNL     1       2.396   4.363  -9.787  1.00  0.00    -0.361 OA
HETATM   11  H7  UNL     1       3.124   4.992  -9.912  1.00  0.00     0.217 HD
ENDBRANCH   3  10
TORSDOF 2
ENDMDL
MODEL 3
REMARK VINA RESULT:      -3.7      2.778      3.680
REMARK  2 active torsions:
REMARK  status: ('A' for Active; 'I' for Inactive)
REMARK    1  A    between atoms: C3_3  and  O1_8 
REMARK    2  A    between atoms: C6_6  and  N1_7 
ROOT
HETATM    1  C1  UNL     1       2.329   1.895  -9.850  1.00  0.00     0.026 A 
HETATM    2  C2  UNL     1       2.693   0.719 -10.511  1.00  0.00     0.038 A 
HETATM    3  C3  UNL     1       3.352   0.791 -11.729  1.00  0.00     0.065 A 
HETATM    4  C4  UNL     1       3.670   2.023 -12.291  1.00  0.00     0.038 A 
HETATM    5  C5  UNL     1       3.301   3.195 -11.624  1.00  0.00     0.026 A 
HETATM    6  C6  UNL     1       2.585   3.143 -10.425  1.00  0.00     0.005 A 
ENDROOT
BRANCH   6   7
HETATM    7  N1  UNL     1       2.326   4.317  -9.707  1.00  0.00    -0.303 NA
HETATM    8  H5  UNL     1       2.070   5.105 -10.293  1.00  0.00     0.124 HD
HETATM    9  H6  UNL     1       3.047   4.553  -9.034  1.00  0.00     0.124 HD
ENDBRANCH   6   7
BRANCH   3  10
HETATM   10  O1  UNL     1       3.692  -0.378 -12.341  1.00  0.00    -0.361 OA
HETATM   11  H7  UNL     1       4.656  -0.401 -12.452  1.00  0.00     0.217 HD
ENDBRANCH   3  10
TORSDOF 2
ENDMDL
MODEL 4
REMARK VINA RESULT:      -3.7      2.792      3.274
REMARK  2 active torsions:
REMARK  status: ('A' for Active; 'I' for Inactive)
REMARK    1  A    between atoms: C3_3  and  O1_8 
REMARK    2  A    between atoms: C6_6  and  N1_7 
ROOT
HETATM    1  C1  UNL     1       3.063   3.111 -11.836  1.00  0.00     0.026 A 
HETATM    2  C2  UNL     1       3.312   1.934 -12.546  1.00  0.00     0.038 A 
HETATM    3  C3  UNL     1       3.131   0.706 -11.926  1.00  0.00     0.065 A 
HETATM    4  C4  UNL     1       2.689   0.635 -10.610  1.00  0.00     0.038 A 
HETATM    5  C5  UNL     1       2.443   1.818  -9.905  1.00  0.00     0.026 A 
HETATM    6  C6  UNL     1       2.676   3.065 -10.494  1.00  0.00     0.005 A 
ENDROOT
BRANCH   6   7
HETATM    7  N1  UNL     1       2.314   4.239  -9.823  1.00  0.00    -0.303 NA
HETATM    8  H5  UNL     1       1.852   4.922 -10.416  1.00  0.00     0.124 HD
HETATM    9  H6  UNL     1       3.065   4.647  -9.277  1.00  0.00     0.124 HD
ENDBRANCH   6   7
BRANCH   3  10
HETATM   10  O1  UNL     1       3.382  -0.419 -12.653  1.00  0.00    -0.361 OA
HETATM   11  H7  UNL     1       4.292  -0.705 -12.477  1.00  0.00     0.217 HD
ENDBRANCH   3  10
TORSDOF 2
ENDMDL
MODEL 5
REMARK VINA RESULT:      -3.6      3.859      4.565
REMARK  2 active torsions:
REMARK  status: ('A' for Active; 'I' for Inactive)
REMARK    1  A    between atoms: C3_3  and  O1_8 
REMARK    2  A    between atoms: C6_6  and  N1_7 
ROOT
HETATM    1  C1  UNL     1       6.749  -0.224 -13.045  1.00  0.00     0.026 A 
HETATM    2  C2  UNL     1       5.698   0.673 -13.243  1.00  0.00     0.038 A 
HETATM    3  C3  UNL     1       5.769   1.947 -12.697  1.00  0.00     0.065 A 
HETATM    4  C4  UNL     1       6.885   2.343 -11.968  1.00  0.00     0.038 A 
HETATM    5  C5  UNL     1       7.933   1.439 -11.772  1.00  0.00     0.026 A 
HETATM    6  C6  UNL     1       7.853   0.132 -12.265  1.00  0.00     0.005 A 
ENDROOT
BRANCH   6   7
HETATM    7  N1  UNL     1       8.955  -0.726 -12.167  1.00  0.00    -0.303 NA
HETATM    8  H5  UNL     1       8.972  -1.450 -12.878  1.00  0.00     0.124 HD
HETATM    9  H6  UNL     1       9.105  -1.096 -11.235  1.00  0.00     0.124 HD
ENDBRANCH   6   7
BRANCH   3  10
HETATM   10  O1  UNL     1       4.724   2.794 -12.915  1.00  0.00    -0.361 OA
HETATM   11  H7  UNL     1       5.076   3.686 -13.069  1.00  0.00     0.217 HD
ENDBRANCH   3  10
TORSDOF 2
ENDMDL
MODEL 6
REMARK VINA RESULT:      -3.6      4.471      5.275
REMARK  2 active torsions:
REMARK  status: ('A' for Active; 'I' for Inactive)
REMARK    1  A    between atoms: C3_3  and  O1_8 
REMARK    2  A    between atoms: C6_6  and  N1_7 
ROOT
HETATM    1  C1  UNL     1       5.787   0.668 -13.332  1.00  0.00     0.026 A 
HETATM    2  C2  UNL     1       6.892  -0.163 -13.129  1.00  0.00     0.038 A 
HETATM    3  C3  UNL     1       7.944   0.274 -12.337  1.00  0.00     0.065 A 
HETATM    4  C4  UNL     1       7.902   1.524 -11.730  1.00  0.00     0.038 A 
HETATM    5  C5  UNL     1       6.793   2.350 -11.938  1.00  0.00     0.026 A 
HETATM    6  C6  UNL     1       5.750   1.952 -12.780  1.00  0.00     0.005 A 
ENDROOT
BRANCH   6   7
HETATM    7  N1  UNL     1       4.594   2.732 -12.887  1.00  0.00    -0.303 NA
HETATM    8  H5  UNL     1       4.319   2.925 -13.845  1.00  0.00     0.124 HD
HETATM    9  H6  UNL     1       4.609   3.569 -12.314  1.00  0.00     0.124 HD
ENDBRANCH   6   7
BRANCH   3  10
HETATM   10  O1  UNL     1       9.003  -0.566 -12.162  1.00  0.00    -0.361 OA
HETATM   11  H7  UNL     1       9.823  -0.056 -12.259  1.00  0.00     0.217 HD
ENDBRANCH   3  10
TORSDOF 2
ENDMDL
MODEL 7
REMARK VINA RESULT:      -3.5      1.420      1.633
REMARK  2 active torsions:
REMARK  status: ('A' for Active; 'I' for Inactive)
REMARK    1  A    between atoms: C3_3  and  O1_8 
REMARK    2  A    between atoms: C6_6  and  N1_7 
ROOT
HETATM    1  C1  UNL     1       2.842   1.001 -13.686  1.00  0.00     0.026 A 
HETATM    2  C2  UNL     1       2.930   2.335 -13.282  1.00  0.00     0.038 A 
HETATM    3  C3  UNL     1       2.957   2.645 -11.930  1.00  0.00     0.065 A 
HETATM    4  C4  UNL     1       2.914   1.637 -10.972  1.00  0.00     0.038 A 
HETATM    5  C5  UNL     1       2.825   0.304 -11.384  1.00  0.00     0.026 A 
HETATM    6  C6  UNL     1       2.737  -0.024 -12.740  1.00  0.00     0.005 A 
ENDROOT
BRANCH   6   7
HETATM    7  N1  UNL     1       2.768  -1.363 -13.146  1.00  0.00    -0.303 NA
HETATM    8  H5  UNL     1       1.850  -1.753 -13.337  1.00  0.00     0.124 HD
HETATM    9  H6  UNL     1       3.323  -1.961 -12.543  1.00  0.00     0.124 HD
ENDBRANCH   6   7
BRANCH   3  10
HETATM   10  O1  UNL     1       3.046   3.958 -11.576  1.00  0.00    -0.361 OA
HETATM   11  H7  UNL     1       2.291   4.177 -11.007  1.00  0.00     0.217 HD
ENDBRANCH   3  10
TORSDOF 2
ENDMDL
MODEL 8
REMARK VINA RESULT:      -3.4      4.235      4.992
REMARK  2 active torsions:
REMARK  status: ('A' for Active; 'I' for Inactive)
REMARK    1  A    between atoms: C3_3  and  O1_8 
REMARK    2  A    between atoms: C6_6  and  N1_7 
ROOT
HETATM    1  C1  UNL     1       7.934   0.403 -12.063  1.00  0.00     0.026 A 
HETATM    2  C2  UNL     1       6.901  -0.495 -12.343  1.00  0.00     0.038 A 
HETATM    3  C3  UNL     1       5.598  -0.032 -12.451  1.00  0.00     0.065 A 
HETATM    4  C4  UNL     1       5.312   1.320 -12.299  1.00  0.00     0.038 A 
HETATM    5  C5  UNL     1       6.350   2.213 -12.017  1.00  0.00     0.026 A 
HETATM    6  C6  UNL     1       7.661   1.757 -11.846  1.00  0.00     0.005 A 
ENDROOT
BRANCH   6   7
HETATM    7  N1  UNL     1       8.709   2.670 -11.683  1.00  0.00    -0.303 NA
HETATM    8  H5  UNL     1       8.415   3.641 -11.730  1.00  0.00     0.124 HD
HETATM    9  H6  UNL     1       9.514   2.481 -12.271  1.00  0.00     0.124 HD
ENDBRANCH   6   7
BRANCH   3  10
HETATM   10  O1  UNL     1       4.619  -0.939 -12.729  1.00  0.00    -0.361 OA
HETATM   11  H7  UNL     1       3.765  -0.478 -12.742  1.00  0.00     0.217 HD
ENDBRANCH   3  10
TORSDOF 2
ENDMDL
MODEL 9
REMARK VINA RESULT:      -3.4      4.323      5.060
REMARK  2 active torsions:
REMARK  status: ('A' for Active; 'I' for Inactive)
REMARK    1  A    between atoms: C3_3  and  O1_8 
REMARK    2  A    between atoms: C6_6  and  N1_7 
ROOT
HETATM    1  C1  UNL     1       6.521   1.946 -12.310  1.00  0.00     0.026 A 
HETATM    2  C2  UNL     1       5.440   1.062 -12.349  1.00  0.00     0.038 A 
HETATM    3  C3  UNL     1       5.666  -0.305 -12.260  1.00  0.00     0.065 A 
HETATM    4  C4  UNL     1       6.957  -0.801 -12.115  1.00  0.00     0.038 A 
HETATM    5  C5  UNL     1       8.034   0.090 -12.078  1.00  0.00     0.026 A 
HETATM    6  C6  UNL     1       7.831   1.466 -12.225  1.00  0.00     0.005 A 
ENDROOT
BRANCH   6   7
HETATM    7  N1  UNL     1       8.900   2.357 -12.067  1.00  0.00    -0.303 NA
HETATM    8  H5  UNL     1       8.683   3.308 -12.348  1.00  0.00     0.124 HD
HETATM    9  H6  UNL     1       9.772   2.026 -12.465  1.00  0.00     0.124 HD
ENDBRANCH   6   7
BRANCH   3  10
HETATM   10  O1  UNL     1       4.586  -1.134 -12.299  1.00  0.00    -0.361 OA
HETATM   11  H7  UNL     1       4.852  -2.006 -11.964  1.00  0.00     0.217 HD
ENDBRANCH   3  10
TORSDOF 2
ENDMDL
MODEL 10
REMARK VINA RESULT:      -3.4      3.813      4.670
REMARK  2 active torsions:
REMARK  status: ('A' for Active; 'I' for Inactive)
REMARK    1  A    between atoms: C3_3  and  O1_8 
REMARK    2  A    between atoms: C6_6  and  N1_7 
ROOT
HETATM    1  C1  UNL     1       5.379   2.043 -12.104  1.00  0.00     0.026 A 
HETATM    2  C2  UNL     1       6.691   2.399 -11.783  1.00  0.00     0.038 A 
HETATM    3  C3  UNL     1       7.746   1.861 -12.506  1.00  0.00     0.065 A 
HETATM    4  C4  UNL     1       7.508   0.983 -13.558  1.00  0.00     0.038 A 
HETATM    5  C5  UNL     1       6.192   0.631 -13.873  1.00  0.00     0.026 A 
HETATM    6  C6  UNL     1       5.119   1.117 -13.118  1.00  0.00     0.005 A 
ENDROOT
BRANCH   6   7
HETATM    7  N1  UNL     1       3.803   0.854 -13.514  1.00  0.00    -0.303 NA
HETATM    8  H5  UNL     1       3.167   0.697 -12.738  1.00  0.00     0.124 HD
HETATM    9  H6  UNL     1       3.724   0.138 -14.229  1.00  0.00     0.124 HD
ENDBRANCH   6   7
BRANCH   3  10
HETATM   10  O1  UNL     1       9.010   2.234 -12.164  1.00  0.00    -0.361 OA
HETATM   11  H7  UNL     1       8.962   2.819 -11.391  1.00  0.00     0.217 HD
ENDBRANCH   3  10
TORSDOF 2
ENDMDL
MODEL 11
REMARK VINA RESULT:      -3.3      3.927      4.828
REMARK  2 active torsions:
REMARK  status: ('A' for Active; 'I' for Inactive)
REMARK    1  A    between atoms: C3_3  and  O1_8 
REMARK    2  A    between atoms: C6_6  and  N1_7 
ROOT
HETATM    1  C1  UNL     1       6.451   2.348 -11.942  1.00  0.00     0.026 A 
HETATM    2  C2  UNL     1       5.190   1.896 -12.338  1.00  0.00     0.038 A 
HETATM    3  C3  UNL     1       5.084   0.963 -13.360  1.00  0.00     0.065 A 
HETATM    4  C4  UNL     1       6.222   0.462 -13.982  1.00  0.00     0.038 A 
HETATM    5  C5  UNL     1       7.481   0.921 -13.582  1.00  0.00     0.026 A 
HETATM    6  C6  UNL     1       7.605   1.903 -12.595  1.00  0.00     0.005 A 
ENDROOT
BRANCH   6   7
HETATM    7  N1  UNL     1       8.869   2.268 -12.118  1.00  0.00    -0.303 NA
HETATM    8  H5  UNL     1       8.902   2.409 -11.113  1.00  0.00     0.124 HD
HETATM    9  H6  UNL     1       9.296   3.033 -12.629  1.00  0.00     0.124 HD
ENDBRANCH   6   7
BRANCH   3  10
HETATM   10  O1  UNL     1       3.837   0.544 -13.715  1.00  0.00    -0.361 OA
HETATM   11  H7  UNL     1       3.284   1.325 -13.883  1.00  0.00     0.217 HD
ENDBRANCH   3  10
TORSDOF 2
ENDMDL
MODEL 12
REMARK VINA RESULT:      -3.3      2.165      2.541
REMARK  2 active torsions:
REMARK  status: ('A' for Active; 'I' for Inactive)
REMARK    1  A    between atoms: C3_3  and  O1_8 
REMARK    2  A    between atoms: C6_6  and  N1_7 
ROOT
HETATM    1  C1  UNL     1       5.422   1.524 -12.518  1.00  0.00     0.026 A 
HETATM    2  C2  UNL     1       4.731   2.554 -11.876  1.00  0.00     0.038 A 
HETATM    3  C3  UNL     1       3.443   2.875 -12.280  1.00  0.00     0.065 A 
HETATM    4  C4  UNL     1       2.828   2.170 -13.308  1.00  0.00     0.038 A 
HETATM    5  C5  UNL     1       3.526   1.141 -13.948  1.00  0.00     0.026 A 
HETATM    6  C6  UNL     1       4.846   0.842 -13.594  1.00  0.00     0.005 A 
ENDROOT
BRANCH   6   7
HETATM    7  N1  UNL     1       5.493  -0.264 -14.157  1.00  0.00    -0.303 NA
HETATM    8  H5  UNL     1       5.522  -0.247 -15.171  1.00  0.00     0.124 HD
HETATM    9  H6  UNL     1       5.171  -1.155 -13.795  1.00  0.00     0.124 HD
ENDBRANCH   6   7
BRANCH   3  10
HETATM   10  O1  UNL     1       2.801   3.884 -11.626  1.00  0.00    -0.361 OA
HETATM   11  H7  UNL     1       3.139   4.731 -11.957  1.00  0.00     0.217 HD
ENDBRANCH   3  10
TORSDOF 2
ENDMDL
MODEL 13
REMARK VINA RESULT:      -3.3      2.619      3.189
REMARK  2 active torsions:
REMARK  status: ('A' for Active; 'I' for Inactive)
REMARK    1  A    between atoms: C3_3  and  O1_8 
REMARK    2  A    between atoms: C6_6  and  N1_7 
ROOT
HETATM    1  C1  UNL     1       4.538   0.699 -12.343  1.00  0.00     0.026 A 
HETATM    2  C2  UNL     1       3.818  -0.416 -11.907  1.00  0.00     0.038 A 
HETATM    3  C3  UNL     1       2.831  -0.265 -10.944  1.00  0.00     0.065 A 
HETATM    4  C4  UNL     1       2.540   0.990 -10.420  1.00  0.00     0.038 A 
HETATM    5  C5  UNL     1       3.265   2.101 -10.859  1.00  0.00     0.026 A 
HETATM    6  C6  UNL     1       4.303   1.960 -11.786  1.00  0.00     0.005 A 
ENDROOT
BRANCH   6   7
HETATM    7  N1  UNL     1       4.942   3.091 -12.307  1.00  0.00    -0.303 NA
HETATM    8  H5  UNL     1       4.613   3.965 -11.908  1.00  0.00     0.124 HD
HETATM    9  H6  UNL     1       4.970   3.116 -13.321  1.00  0.00     0.124 HD
ENDBRANCH   6   7
BRANCH   3  10
HETATM   10  O1  UNL     1       2.150  -1.377 -10.548  1.00  0.00    -0.361 OA
HETATM   11  H7  UNL     1       1.288  -1.102 -10.196  1.00  0.00     0.217 HD
ENDBRANCH   3  10
TORSDOF 2
ENDMDL
MODEL 14
REMARK VINA RESULT:      -3.3      3.953      4.801
REMARK  2 active torsions:
REMARK  status: ('A' for Active; 'I' for Inactive)
REMARK    1  A    between atoms: C3_3  and  O1_8 
REMARK    2  A    between atoms: C6_6  and  N1_7 
ROOT
HETATM    1  C1  UNL     1       1.611   5.188  -7.601  1.00  0.00     0.026 A 
HETATM    2  C2  UNL     1       2.364   5.100  -8.774  1.00  0.00     0.038 A 
HETATM    3  C3  UNL     1       2.136   4.059  -9.662  1.00  0.00     0.065 A 
HETATM    4  C4  UNL     1       1.152   3.111  -9.403  1.00  0.00     0.038 A 
HETATM    5  C5  UNL     1       0.403   3.205  -8.226  1.00  0.00     0.026 A 
HETATM    6  C6  UNL     1       0.658   4.213  -7.291  1.00  0.00     0.005 A 
ENDROOT
BRANCH   6   7
HETATM    7  N1  UNL     1      -0.174   4.369  -6.177  1.00  0.00    -0.303 NA
HETATM    8  H5  UNL     1       0.163   5.054  -5.509  1.00  0.00     0.124 HD
HETATM    9  H6  UNL     1      -0.435   3.494  -5.735  1.00  0.00     0.124 HD
ENDBRANCH   6   7
BRANCH   3  10
HETATM   10  O1  UNL     1       2.889   4.009 -10.796  1.00  0.00    -0.361 OA
HETATM   11  H7  UNL     1       3.827   4.044 -10.547  1.00  0.00     0.217 HD
ENDBRANCH   3  10
TORSDOF 2
ENDMDL
MODEL 15
REMARK VINA RESULT:      -3.3      3.390      4.043
REMARK  2 active torsions:
REMARK  status: ('A' for Active; 'I' for Inactive)
REMARK    1  A    between atoms: C3_3  and  O1_8 
REMARK    2  A    between atoms: C6_6  and  N1_7 
ROOT
HETATM    1  C1  UNL     1       2.689   1.889 -13.282  1.00  0.00     0.026 A 
HETATM    2  C2  UNL     1       3.498   0.996 -13.987  1.00  0.00     0.038 A 
HETATM    3  C3  UNL     1       4.837   0.864 -13.646  1.00  0.00     0.065 A 
HETATM    4  C4  UNL     1       5.376   1.601 -12.597  1.00  0.00     0.038 A 
HETATM    5  C5  UNL     1       4.560   2.494 -11.896  1.00  0.00     0.026 A 
HETATM    6  C6  UNL     1       3.224   2.684 -12.263  1.00  0.00     0.005 A 
ENDROOT
BRANCH   6   7
HETATM    7  N1  UNL     1       2.387   3.489 -11.483  1.00  0.00    -0.303 NA
HETATM    8  H5  UNL     1       2.633   4.474 -11.503  1.00  0.00     0.124 HD
HETATM    9  H6  UNL     1       2.250   3.144 -10.539  1.00  0.00     0.124 HD
ENDBRANCH   6   7
BRANCH   3  10
HETATM   10  O1  UNL     1       5.593  -0.020 -14.356  1.00  0.00    -0.361 OA
HETATM   11  H7  UNL     1       5.750   0.348 -15.241  1.00  0.00     0.217 HD
ENDBRANCH   3  10
TORSDOF 2
ENDMDL
MODEL 16
REMARK VINA RESULT:      -3.3      3.384      4.053
REMARK  2 active torsions:
REMARK  status: ('A' for Active; 'I' for Inactive)
REMARK    1  A    between atoms: C3_3  and  O1_8 
REMARK    2  A    between atoms: C6_6  and  N1_7 
ROOT
HETATM    1  C1  UNL     1       4.620   2.456 -11.852  1.00  0.00     0.026 A 
HETATM    2  C2  UNL     1       5.412   1.537 -12.543  1.00  0.00     0.038 A 
HETATM    3  C3  UNL     1       4.876   0.833 -13.612  1.00  0.00     0.065 A 
HETATM    4  C4  UNL     1       3.561   1.046 -14.012  1.00  0.00     0.038 A 
HETATM    5  C5  UNL     1       2.773   1.967 -13.314  1.00  0.00     0.026 A 
HETATM    6  C6  UNL     1       3.278   2.642 -12.198  1.00  0.00     0.005 A 
ENDROOT
BRANCH   6   7
HETATM    7  N1  UNL     1       2.523   3.646 -11.581  1.00  0.00    -0.303 NA
HETATM    8  H5  UNL     1       3.086   4.354 -11.120  1.00  0.00     0.124 HD
HETATM    9  H6  UNL     1       1.781   3.294 -10.985  1.00  0.00     0.124 HD
ENDBRANCH   6   7
BRANCH   3  10
HETATM   10  O1  UNL     1       5.682  -0.052 -14.263  1.00  0.00    -0.361 OA
HETATM   11  H7  UNL     1       5.381  -0.127 -15.183  1.00  0.00     0.217 HD
ENDBRANCH   3  10
TORSDOF 2
ENDMDL
MODEL 17
REMARK VINA RESULT:      -3.3      3.351      4.121
REMARK  2 active torsions:
REMARK  status: ('A' for Active; 'I' for Inactive)
REMARK    1  A    between atoms: C3_3  and  O1_8 
REMARK    2  A    between atoms: C6_6  and  N1_7 
ROOT
HETATM    1  C1  UNL     1       2.367   5.059  -8.791  1.00  0.00     0.026 A 
HETATM    2  C2  UNL     1       1.616   5.207  -7.623  1.00  0.00     0.038 A 
HETATM    3  C3  UNL     1       0.600   4.305  -7.339  1.00  0.00     0.065 A 
HETATM    4  C4  UNL     1       0.334   3.245  -8.199  1.00  0.00     0.038 A 
HETATM    5  C5  UNL     1       1.088   3.104  -9.367  1.00  0.00     0.026 A 
HETATM    6  C6  UNL     1       2.077   4.036  -9.700  1.00  0.00     0.005 A 
ENDROOT
BRANCH   6   7
HETATM    7  N1  UNL     1       2.905   3.820 -10.807  1.00  0.00    -0.303 NA
HETATM    8  H5  UNL     1       3.278   2.877 -10.860  1.00  0.00     0.124 HD
HETATM    9  H6  UNL     1       3.623   4.527 -10.926  1.00  0.00     0.124 HD
ENDBRANCH   6   7
BRANCH   3  10
HETATM   10  O1  UNL     1      -0.108   4.482  -6.188  1.00  0.00    -0.361 OA
HETATM   11  H7  UNL     1       0.507   4.738  -5.482  1.00  0.00     0.217 HD
ENDBRANCH   3  10
TORSDOF 2
ENDMDL
MODEL 18
REMARK VINA RESULT:      -3.2      3.652      4.384
REMARK  2 active torsions:
REMARK  status: ('A' for Active; 'I' for Inactive)
REMARK    1  A    between atoms: C3_3  and  O1_8 
REMARK    2  A    between atoms: C6_6  and  N1_7 
ROOT
HETATM    1  C1  UNL     1       6.086  -0.348 -12.294  1.00  0.00     0.026 A 
HETATM    2  C2  UNL     1       7.385   0.160 -12.212  1.00  0.00     0.038 A 
HETATM    3  C3  UNL     1       7.581   1.526 -12.068  1.00  0.00     0.065 A 
HETATM    4  C4  UNL     1       6.497   2.392 -11.987  1.00  0.00     0.038 A 
HETATM    5  C5  UNL     1       5.200   1.877 -12.071  1.00  0.00     0.026 A 
HETATM    6  C6  UNL     1       4.983   0.510 -12.275  1.00  0.00     0.005 A 
ENDROOT
BRANCH   6   7
HETATM    7  N1  UNL     1       3.684  -0.010 -12.238  1.00  0.00    -0.303 NA
HETATM    8  H5  UNL     1       3.630  -0.989 -12.502  1.00  0.00     0.124 HD
HETATM    9  H6  UNL     1       3.000   0.560 -12.724  1.00  0.00     0.124 HD
ENDBRANCH   6   7
BRANCH   3  10
HETATM   10  O1  UNL     1       8.863   1.981 -11.989  1.00  0.00    -0.361 OA
HETATM   11  H7  UNL     1       8.850   2.883 -11.628  1.00  0.00     0.217 HD
ENDBRANCH   3  10
TORSDOF 2
ENDMDL
MODEL 19
REMARK VINA RESULT:      -3.0      3.381      4.335
REMARK  2 active torsions:
REMARK  status: ('A' for Active; 'I' for Inactive)
REMARK    1  A    between atoms: C3_3  and  O1_8 
REMARK    2  A    between atoms: C6_6  and  N1_7 
ROOT
HETATM    1  C1  UNL     1       0.386   3.255  -9.016  1.00  0.00     0.026 A 
HETATM    2  C2  UNL     1       0.777   2.409 -10.056  1.00  0.00     0.038 A 
HETATM    3  C3  UNL     1       2.012   2.589 -10.663  1.00  0.00     0.065 A 
HETATM    4  C4  UNL     1       2.871   3.595 -10.233  1.00  0.00     0.038 A 
HETATM    5  C5  UNL     1       2.472   4.439  -9.192  1.00  0.00     0.026 A 
HETATM    6  C6  UNL     1       1.208   4.310  -8.609  1.00  0.00     0.005 A 
ENDROOT
BRANCH   6   7
HETATM    7  N1  UNL     1       0.866   5.079  -7.491  1.00  0.00    -0.303 NA
HETATM    8  H5  UNL     1       1.148   6.052  -7.563  1.00  0.00     0.124 HD
HETATM    9  H6  UNL     1       1.138   4.663  -6.607  1.00  0.00     0.124 HD
ENDBRANCH   6   7
BRANCH   3  10
HETATM   10  O1  UNL     1       2.358   1.742 -11.672  1.00  0.00    -0.361 OA
HETATM   11  H7  UNL     1       2.858   1.000 -11.296  1.00  0.00     0.217 HD
ENDBRANCH   3  10
TORSDOF 2
ENDMDL
MODEL 20
REMARK VINA RESULT:      -2.9      3.073      3.352
REMARK  2 active torsions:
REMARK  status: ('A' for Active; 'I' for Inactive)
REMARK    1  A    between atoms: C3_3  and  O1_8 
REMARK    2  A    between atoms: C6_6  and  N1_7 
ROOT
HETATM    1  C1  UNL     1       3.512   1.076 -13.827  1.00  0.00     0.026 A 
HETATM    2  C2  UNL     1       4.232   2.119 -13.240  1.00  0.00     0.038 A 
HETATM    3  C3  UNL     1       5.414   1.844 -12.567  1.00  0.00     0.065 A 
HETATM    4  C4  UNL     1       5.897   0.543 -12.485  1.00  0.00     0.038 A 
HETATM    5  C5  UNL     1       5.170  -0.496 -13.074  1.00  0.00     0.026 A 
HETATM    6  C6  UNL     1       3.947  -0.247 -13.706  1.00  0.00     0.005 A 
ENDROOT
BRANCH   6   7
HETATM    7  N1  UNL     1       3.288  -1.273 -14.394  1.00  0.00    -0.303 NA
HETATM    8  H5  UNL     1       3.783  -1.592 -15.221  1.00  0.00     0.124 HD
HETATM    9  H6  UNL     1       2.310  -1.079 -14.580  1.00  0.00     0.124 HD
ENDBRANCH   6   7
BRANCH   3  10
HETATM   10  O1  UNL     1       6.089   2.889 -12.010  1.00  0.00    -0.361 OA
HETATM   11  H7  UNL     1       6.200   2.716 -11.061  1.00  0.00     0.217 HD
ENDBRANCH   3  10
TORSDOF 2
ENDMDL
