MODEL 1
REMARK VINA RESULT:      -4.8      0.000      0.000
REMARK  2 active torsions:
REMARK  status: ('A' for Active; 'I' for Inactive)
REMARK    1  A    between atoms: C3_3  and  O1_8 
REMARK    2  A    between atoms: C6_6  and  N1_7 
ROOT
HETATM    1  C1  UNL     1       3.967   7.187  -7.728  1.00  0.00     0.026 A 
HETATM    2  C2  UNL     1       4.881   8.222  -7.513  1.00  0.00     0.038 A 
HETATM    3  C3  UNL     1       5.758   8.586  -8.525  1.00  0.00     0.065 A 
HETATM    4  C4  UNL     1       5.724   7.940  -9.757  1.00  0.00     0.038 A 
HETATM    5  C5  UNL     1       4.808   6.905  -9.963  1.00  0.00     0.026 A 
HETATM    6  C6  UNL     1       3.957   6.485  -8.936  1.00  0.00     0.005 A 
ENDROOT
BRANCH   6   7
HETATM    7  N1  UNL     1       2.965   5.531  -9.189  1.00  0.00    -0.303 NA
HETATM    8  H5  UNL     1       3.169   4.616  -8.798  1.00  0.00     0.124 HD
HETATM    9  H6  UNL     1       2.682   5.480 -10.162  1.00  0.00     0.124 HD
ENDBRANCH   6   7
BRANCH   3  10
HETATM   10  O1  UNL     1       6.631   9.602  -8.279  1.00  0.00    -0.361 OA
HETATM   11  H7  UNL     1       6.890   9.567  -7.344  1.00  0.00     0.217 HD
ENDBRANCH   3  10
TORSDOF 2
ENDMDL
MODEL 2
REMARK VINA RESULT:      -4.7      2.777      3.678
REMARK  2 active torsions:
REMARK  status: ('A' for Active; 'I' for Inactive)
REMARK    1  A    between atoms: C3_3  and  O1_8 
REMARK    2  A    between atoms: C6_6  and  N1_7 
ROOT
HETATM    1  C1  UNL     1       5.668   8.022  -9.631  1.00  0.00     0.026 A 
HETATM    2  C2  UNL     1       4.810   6.966  -9.946  1.00  0.00     0.038 A 
HETATM    3  C3  UNL     1       3.929   6.486  -8.987  1.00  0.00     0.065 A 
HETATM    4  C4  UNL     1       3.881   7.058  -7.721  1.00  0.00     0.038 A 
HETATM    5  C5  UNL     1       4.743   8.114  -7.412  1.00  0.00     0.026 A 
HETATM    6  C6  UNL     1       5.678   8.572  -8.346  1.00  0.00     0.005 A 
ENDROOT
BRANCH   6   7
HETATM    7  N1  UNL     1       6.453   9.705  -8.070  1.00  0.00    -0.303 NA
HETATM    8  H5  UNL     1       6.461  10.386  -8.822  1.00  0.00     0.124 HD
HETATM    9  H6  UNL     1       7.385   9.492  -7.731  1.00  0.00     0.124 HD
ENDBRANCH   6   7
BRANCH   3  10
HETATM   10  O1  UNL     1       3.107   5.456  -9.334  1.00  0.00    -0.361 OA
HETATM   11  H7  UNL     1       3.419   5.079 -10.172  1.00  0.00     0.217 HD
ENDBRANCH   3  10
TORSDOF 2
ENDMDL
MODEL 3
REMARK VINA RESULT:      -4.4      4.876      5.373
REMARK  2 active torsions:
REMARK  status: ('A' for Active; 'I' for Inactive)
REMARK    1  A    between atoms: C3_3  and  O1_8 
REMARK    2  A    between atoms: C6_6  and  N1_7 
ROOT
HETATM    1  C1  UNL     1       7.646   3.538 -10.467  1.00  0.00     0.026 A 
HETATM    2  C2  UNL     1       7.491   4.653  -9.640  1.00  0.00     0.038 A 
HETATM    3  C3  UNL     1       8.439   5.666  -9.666  1.00  0.00     0.065 A 
HETATM    4  C4  UNL     1       9.534   5.588 -10.519  1.00  0.00     0.038 A 
HETATM    5  C5  UNL     1       9.684   4.468 -11.343  1.00  0.00     0.026 A 
HETATM    6  C6  UNL     1       8.770   3.411 -11.288  1.00  0.00     0.005 A 
ENDROOT
BRANCH   6   7
HETATM    7  N1  UNL     1       8.862   2.352 -12.199  1.00  0.00    -0.303 NA
HETATM    8  H5  UNL     1       9.412   2.571 -13.024  1.00  0.00     0.124 HD
HETATM    9  H6  UNL     1       7.969   1.931 -12.430  1.00  0.00     0.124 HD
ENDBRANCH   6   7
BRANCH   3  10
HETATM   10  O1  UNL     1       8.250   6.738  -8.847  1.00  0.00    -0.361 OA
HETATM   11  H7  UNL     1       7.764   6.445  -8.060  1.00  0.00     0.217 HD
ENDBRANCH   3  10
TORSDOF 2
ENDMDL
MODEL 4
REMARK VINA RESULT:      -4.4      5.211      5.827
REMARK  2 active torsions:
REMARK  status: ('A' for Active; 'I' for Inactive)
REMARK    1  A    between atoms: C3_3  and  O1_8 
REMARK    2  A    between atoms: C6_6  and  N1_7 
ROOT
HETATM    1  C1  UNL     1       7.347   4.529  -9.727  1.00  0.00     0.026 A 
HETATM    2  C2  UNL     1       7.701   3.451 -10.541  1.00  0.00     0.038 A 
HETATM    3  C3  UNL     1       8.849   3.523 -11.318  1.00  0.00     0.065 A 
HETATM    4  C4  UNL     1       9.659   4.652 -11.280  1.00  0.00     0.038 A 
HETATM    5  C5  UNL     1       9.298   5.728 -10.464  1.00  0.00     0.026 A 
HETATM    6  C6  UNL     1       8.114   5.698  -9.719  1.00  0.00     0.005 A 
ENDROOT
BRANCH   6   7
HETATM    7  N1  UNL     1       7.823   6.727  -8.817  1.00  0.00    -0.303 NA
HETATM    8  H5  UNL     1       7.174   7.417  -9.180  1.00  0.00     0.124 HD
HETATM    9  H6  UNL     1       8.645   7.152  -8.400  1.00  0.00     0.124 HD
ENDBRANCH   6   7
BRANCH   3  10
HETATM   10  O1  UNL     1       9.161   2.449 -12.097  1.00  0.00    -0.361 OA
HETATM   11  H7  UNL     1       8.337   2.036 -12.400  1.00  0.00     0.217 HD
ENDBRANCH   3  10
TORSDOF 2
ENDMDL
MODEL 5
REMARK VINA RESULT:      -4.4      5.171      5.909
REMARK  2 active torsions:
REMARK  status: ('A' for Active; 'I' for Inactive)
REMARK    1  A    between atoms: C3_3  and  O1_8 
REMARK    2  A    between atoms: C6_6  and  N1_7 
ROOT
HETATM    1  C1  UNL     1       9.241   5.754 -10.438  1.00  0.00     0.026 A 
HETATM    2  C2  UNL     1       9.614   4.691 -11.263  1.00  0.00     0.038 A 
HETATM    3  C3  UNL     1       8.838   3.542 -11.298  1.00  0.00     0.065 A 
HETATM    4  C4  UNL     1       7.682   3.445 -10.531  1.00  0.00     0.038 A 
HETATM    5  C5  UNL     1       7.315   4.513  -9.707  1.00  0.00     0.026 A 
HETATM    6  C6  UNL     1       8.116   5.655  -9.614  1.00  0.00     0.005 A 
ENDROOT
BRANCH   6   7
HETATM    7  N1  UNL     1       7.680   6.764  -8.879  1.00  0.00    -0.303 NA
HETATM    8  H5  UNL     1       8.242   6.955  -8.056  1.00  0.00     0.124 HD
HETATM    9  H6  UNL     1       6.686   6.755  -8.674  1.00  0.00     0.124 HD
ENDBRANCH   6   7
BRANCH   3  10
HETATM   10  O1  UNL     1       9.234   2.528 -12.118  1.00  0.00    -0.361 OA
HETATM   11  H7  UNL     1       8.500   2.305 -12.713  1.00  0.00     0.217 HD
ENDBRANCH   3  10
TORSDOF 2
ENDMDL
MODEL 6
REMARK VINA RESULT:      -4.1      6.519      7.295
REMARK  2 active torsions:
REMARK  status: ('A' for Active; 'I' for Inactive)
REMARK    1  A    between atoms: C3_3  and  O1_8 
REMARK    2  A    between atoms: C6_6  and  N1_7 
ROOT
HETATM    1  C1  UNL     1      10.414   4.047 -12.056  1.00  0.00     0.026 A 
HETATM    2  C2  UNL     1       9.390   4.763 -11.431  1.00  0.00     0.038 A 
HETATM    3  C3  UNL     1       9.258   6.123 -11.671  1.00  0.00     0.065 A 
HETATM    4  C4  UNL     1      10.124   6.777 -12.540  1.00  0.00     0.038 A 
HETATM    5  C5  UNL     1      11.147   6.054 -13.161  1.00  0.00     0.026 A 
HETATM    6  C6  UNL     1      11.333   4.695 -12.887  1.00  0.00     0.005 A 
ENDROOT
BRANCH   6   7
HETATM    7  N1  UNL     1      12.282   3.955 -13.601  1.00  0.00    -0.303 NA
HETATM    8  H5  UNL     1      12.690   3.193 -13.069  1.00  0.00     0.124 HD
HETATM    9  H6  UNL     1      12.984   4.525 -14.062  1.00  0.00     0.124 HD
ENDBRANCH   6   7
BRANCH   3  10
HETATM   10  O1  UNL     1       8.245   6.786 -11.044  1.00  0.00    -0.361 OA
HETATM   11  H7  UNL     1       8.541   7.689 -10.847  1.00  0.00     0.217 HD
ENDBRANCH   3  10
TORSDOF 2
ENDMDL
MODEL 7
REMARK VINA RESULT:      -4.1      2.084      2.513
REMARK  2 active torsions:
REMARK  status: ('A' for Active; 'I' for Inactive)
REMARK    1  A    between atoms: C3_3  and  O1_8 
REMARK    2  A    between atoms: C6_6  and  N1_7 
ROOT
HETATM    1  C1  UNL     1       6.853   6.209  -9.057  1.00  0.00     0.026 A 
HETATM    2  C2  UNL     1       6.412   7.116  -8.091  1.00  0.00     0.038 A 
HETATM    3  C3  UNL     1       5.063   7.431  -8.008  1.00  0.00     0.065 A 
HETATM    4  C4  UNL     1       4.144   6.838  -8.868  1.00  0.00     0.038 A 
HETATM    5  C5  UNL     1       4.593   5.932  -9.833  1.00  0.00     0.026 A 
HETATM    6  C6  UNL     1       5.955   5.647  -9.970  1.00  0.00     0.005 A 
ENDROOT
BRANCH   6   7
HETATM    7  N1  UNL     1       6.381   4.652 -10.857  1.00  0.00    -0.303 NA
HETATM    8  H5  UNL     1       7.320   4.312 -10.669  1.00  0.00     0.124 HD
HETATM    9  H6  UNL     1       6.244   4.886 -11.834  1.00  0.00     0.124 HD
ENDBRANCH   6   7
BRANCH   3  10
HETATM   10  O1  UNL     1       4.671   8.318  -7.051  1.00  0.00    -0.361 OA
HETATM   11  H7  UNL     1       4.530   7.836  -6.221  1.00  0.00     0.217 HD
ENDBRANCH   3  10
TORSDOF 2
ENDMDL
MODEL 8
REMARK VINA RESULT:      -4.1      6.193      6.948
REMARK  2 active torsions:
REMARK  status: ('A' for Active; 'I' for Inactive)
REMARK    1  A    between atoms: C3_3  and  O1_8 
REMARK    2  A    between atoms: C6_6  and  N1_7 
ROOT
HETATM    1  C1  UNL     1       9.372   4.007 -11.971  1.00  0.00     0.026 A 
HETATM    2  C2  UNL     1      10.725   3.926 -12.307  1.00  0.00     0.038 A 
HETATM    3  C3  UNL     1      11.584   4.958 -11.956  1.00  0.00     0.065 A 
HETATM    4  C4  UNL     1      11.113   6.065 -11.258  1.00  0.00     0.038 A 
HETATM    5  C5  UNL     1       9.757   6.139 -10.926  1.00  0.00     0.026 A 
HETATM    6  C6  UNL     1       8.865   5.137 -11.322  1.00  0.00     0.005 A 
ENDROOT
BRANCH   6   7
HETATM    7  N1  UNL     1       7.536   5.163 -10.884  1.00  0.00    -0.303 NA
HETATM    8  H5  UNL     1       6.957   4.438 -11.296  1.00  0.00     0.124 HD
HETATM    9  H6  UNL     1       7.104   6.079 -10.936  1.00  0.00     0.124 HD
ENDBRANCH   6   7
BRANCH   3  10
HETATM   10  O1  UNL     1      12.897   4.840 -12.299  1.00  0.00    -0.361 OA
HETATM   11  H7  UNL     1      13.032   5.269 -13.159  1.00  0.00     0.217 HD
ENDBRANCH   3  10
TORSDOF 2
ENDMDL
MODEL 9
REMARK VINA RESULT:      -4.1      6.380      7.148
REMARK  2 active torsions:
REMARK  status: ('A' for Active; 'I' for Inactive)
REMARK    1  A    between atoms: C3_3  and  O1_8 
REMARK    2  A    between atoms: C6_6  and  N1_7 
ROOT
HETATM    1  C1  UNL     1      10.671   6.221 -11.105  1.00  0.00     0.026 A 
HETATM    2  C2  UNL     1      11.341   5.578 -12.148  1.00  0.00     0.038 A 
HETATM    3  C3  UNL     1      10.870   4.362 -12.621  1.00  0.00     0.065 A 
HETATM    4  C4  UNL     1       9.727   3.785 -12.077  1.00  0.00     0.038 A 
HETATM    5  C5  UNL     1       9.062   4.435 -11.033  1.00  0.00     0.026 A 
HETATM    6  C6  UNL     1       9.555   5.631 -10.503  1.00  0.00     0.005 A 
ENDROOT
BRANCH   6   7
HETATM    7  N1  UNL     1       8.819   6.332  -9.541  1.00  0.00    -0.303 NA
HETATM    8  H5  UNL     1       8.317   7.132  -9.915  1.00  0.00     0.124 HD
HETATM    9  H6  UNL     1       9.349   6.564  -8.708  1.00  0.00     0.124 HD
ENDBRANCH   6   7
BRANCH   3  10
HETATM   10  O1  UNL     1      11.549   3.767 -13.641  1.00  0.00    -0.361 OA
HETATM   11  H7  UNL     1      10.949   3.667 -14.397  1.00  0.00     0.217 HD
ENDBRANCH   3  10
TORSDOF 2
ENDMDL
MODEL 10
REMARK VINA RESULT:      -4.0      7.653      8.554
REMARK  2 active torsions:
REMARK  status: ('A' for Active; 'I' for Inactive)
REMARK    1  A    between atoms: C3_3  and  O1_8 
REMARK    2  A    between atoms: C6_6  and  N1_7 
ROOT
HETATM    1  C1  UNL     1      10.970   4.890 -14.673  1.00  0.00     0.026 A 
HETATM    2  C2  UNL     1       9.912   5.542 -14.035  1.00  0.00     0.038 A 
HETATM    3  C3  UNL     1       9.936   5.708 -12.658  1.00  0.00     0.065 A 
HETATM    4  C4  UNL     1      11.013   5.247 -11.908  1.00  0.00     0.038 A 
HETATM    5  C5  UNL     1      12.068   4.594 -12.553  1.00  0.00     0.026 A 
HETATM    6  C6  UNL     1      12.033   4.365 -13.932  1.00  0.00     0.005 A 
ENDROOT
BRANCH   6   7
HETATM    7  N1  UNL     1      13.145   3.819 -14.584  1.00  0.00    -0.303 NA
HETATM    8  H5  UNL     1      13.170   2.805 -14.567  1.00  0.00     0.124 HD
HETATM    9  H6  UNL     1      14.028   4.233 -14.305  1.00  0.00     0.124 HD
ENDBRANCH   6   7
BRANCH   3  10
HETATM   10  O1  UNL     1       8.887   6.352 -12.073  1.00  0.00    -0.361 OA
HETATM   11  H7  UNL     1       8.077   6.129 -12.560  1.00  0.00     0.217 HD
ENDBRANCH   3  10
TORSDOF 2
ENDMDL
MODEL 11
REMARK VINA RESULT:      -4.0      6.322      7.120
REMARK  2 active torsions:
REMARK  status: ('A' for Active; 'I' for Inactive)
REMARK    1  A    between atoms: C3_3  and  O1_8 
REMARK    2  A    between atoms: C6_6  and  N1_7 
ROOT
HETATM    1  C1  UNL     1      10.834   6.002 -12.957  1.00  0.00     0.026 A 
HETATM    2  C2  UNL     1      10.388   6.572 -11.762  1.00  0.00     0.038 A 
HETATM    3  C3  UNL     1       9.711   5.790 -10.838  1.00  0.00     0.065 A 
HETATM    4  C4  UNL     1       9.487   4.439 -11.082  1.00  0.00     0.038 A 
HETATM    5  C5  UNL     1       9.936   3.876 -12.280  1.00  0.00     0.026 A 
HETATM    6  C6  UNL     1      10.568   4.661 -13.250  1.00  0.00     0.005 A 
ENDROOT
BRANCH   6   7
HETATM    7  N1  UNL     1      11.118   4.065 -14.390  1.00  0.00    -0.303 NA
HETATM    8  H5  UNL     1      11.132   3.051 -14.354  1.00  0.00     0.124 HD
HETATM    9  H6  UNL     1      12.013   4.455 -14.665  1.00  0.00     0.124 HD
ENDBRANCH   6   7
BRANCH   3  10
HETATM   10  O1  UNL     1       9.294   6.382  -9.684  1.00  0.00    -0.361 OA
HETATM   11  H7  UNL     1      10.014   6.935  -9.342  1.00  0.00     0.217 HD
ENDBRANCH   3  10
TORSDOF 2
ENDMDL
MODEL 12
REMARK VINA RESULT:      -3.9      4.627      5.295
REMARK  2 active torsions:
REMARK  status: ('A' for Active; 'I' for Inactive)
REMARK    1  A    between atoms: C3_3  and  O1_8 
REMARK    2  A    between atoms: C6_6  and  N1_7 
ROOT
HETATM    1  C1  UNL     1       8.091   3.455 -10.525  1.00  0.00     0.026 A 
HETATM    2  C2  UNL     1       6.797   3.916 -10.275  1.00  0.00     0.038 A 
HETATM    3  C3  UNL     1       6.559   5.279 -10.179  1.00  0.00     0.065 A 
HETATM    4  C4  UNL     1       7.595   6.192 -10.345  1.00  0.00     0.038 A 
HETATM    5  C5  UNL     1       8.888   5.723 -10.594  1.00  0.00     0.026 A 
HETATM    6  C6  UNL     1       9.158   4.351 -10.636  1.00  0.00     0.005 A 
ENDROOT
BRANCH   6   7
HETATM    7  N1  UNL     1      10.429   3.894 -11.003  1.00  0.00    -0.303 NA
HETATM    8  H5  UNL     1      11.135   4.032 -10.287  1.00  0.00     0.124 HD
HETATM    9  H6  UNL     1      10.735   4.219 -11.914  1.00  0.00     0.124 HD
ENDBRANCH   6   7
BRANCH   3  10
HETATM   10  O1  UNL     1       5.282   5.690  -9.937  1.00  0.00    -0.361 OA
HETATM   11  H7  UNL     1       5.308   6.425  -9.304  1.00  0.00     0.217 HD
ENDBRANCH   3  10
TORSDOF 2
ENDMDL
MODEL 13
REMARK VINA RESULT:      -3.9      6.625      6.958
REMARK  2 active torsions:
REMARK  status: ('A' for Active; 'I' for Inactive)
REMARK    1  A    between atoms: C3_3  and  O1_8 
REMARK    2  A    between atoms: C6_6  and  N1_7 
ROOT
HETATM    1  C1  UNL     1       9.471   3.872 -12.161  1.00  0.00     0.026 A 
HETATM    2  C2  UNL     1       9.979   4.779 -11.228  1.00  0.00     0.038 A 
HETATM    3  C3  UNL     1      10.467   6.005 -11.657  1.00  0.00     0.065 A 
HETATM    4  C4  UNL     1      10.439   6.346 -13.005  1.00  0.00     0.038 A 
HETATM    5  C5  UNL     1       9.930   5.433 -13.933  1.00  0.00     0.026 A 
HETATM    6  C6  UNL     1       9.488   4.169 -13.527  1.00  0.00     0.005 A 
ENDROOT
BRANCH   6   7
HETATM    7  N1  UNL     1       8.872   3.310 -14.444  1.00  0.00    -0.303 NA
HETATM    8  H5  UNL     1       8.295   2.597 -14.010  1.00  0.00     0.124 HD
HETATM    9  H6  UNL     1       9.505   2.926 -15.137  1.00  0.00     0.124 HD
ENDBRANCH   6   7
BRANCH   3  10
HETATM   10  O1  UNL     1      10.952   6.863 -10.716  1.00  0.00    -0.361 OA
HETATM   11  H7  UNL     1      10.407   7.667 -10.719  1.00  0.00     0.217 HD
ENDBRANCH   3  10
TORSDOF 2
ENDMDL
MODEL 14
REMARK VINA RESULT:      -3.8      5.305      6.027
REMARK  2 active torsions:
REMARK  status: ('A' for Active; 'I' for Inactive)
REMARK    1  A    between atoms: C3_3  and  O1_8 
REMARK    2  A    between atoms: C6_6  and  N1_7 
ROOT
HETATM    1  C1  UNL     1       9.561   3.715 -12.066  1.00  0.00     0.026 A 
HETATM    2  C2  UNL     1      10.368   4.846 -11.921  1.00  0.00     0.038 A 
HETATM    3  C3  UNL     1      10.048   5.801 -10.967  1.00  0.00     0.065 A 
HETATM    4  C4  UNL     1       8.940   5.635 -10.142  1.00  0.00     0.038 A 
HETATM    5  C5  UNL     1       8.136   4.502 -10.294  1.00  0.00     0.026 A 
HETATM    6  C6  UNL     1       8.409   3.557 -11.289  1.00  0.00     0.005 A 
ENDROOT
BRANCH   6   7
HETATM    7  N1  UNL     1       7.671   2.370 -11.355  1.00  0.00    -0.303 NA
HETATM    8  H5  UNL     1       7.004   2.261 -10.597  1.00  0.00     0.124 HD
HETATM    9  H6  UNL     1       8.239   1.540 -11.491  1.00  0.00     0.124 HD
ENDBRANCH   6   7
BRANCH   3  10
HETATM   10  O1  UNL     1      10.861   6.888 -10.854  1.00  0.00    -0.361 OA
HETATM   11  H7  UNL     1      11.134   6.977  -9.927  1.00  0.00     0.217 HD
ENDBRANCH   3  10
TORSDOF 2
ENDMDL
MODEL 15
REMARK VINA RESULT:      -3.8      5.861      6.723
REMARK  2 active torsions:
REMARK  status: ('A' for Active; 'I' for Inactive)
REMARK    1  A    between atoms: C3_3  and  O1_8 
REMARK    2  A    between atoms: C6_6  and  N1_7 
ROOT
HETATM    1  C1  UNL     1      10.144   4.601 -11.870  1.00  0.00     0.026 A 
HETATM    2  C2  UNL     1       9.233   3.546 -11.966  1.00  0.00     0.038 A 
HETATM    3  C3  UNL     1       8.117   3.525 -11.141  1.00  0.00     0.065 A 
HETATM    4  C4  UNL     1       7.889   4.551 -10.231  1.00  0.00     0.038 A 
HETATM    5  C5  UNL     1       8.807   5.602 -10.140  1.00  0.00     0.026 A 
HETATM    6  C6  UNL     1       9.967   5.612 -10.921  1.00  0.00     0.005 A 
ENDROOT
BRANCH   6   7
HETATM    7  N1  UNL     1      10.816   6.724 -10.908  1.00  0.00    -0.303 NA
HETATM    8  H5  UNL     1      11.709   6.561 -11.363  1.00  0.00     0.124 HD
HETATM    9  H6  UNL     1      10.920   7.150  -9.993  1.00  0.00     0.124 HD
ENDBRANCH   6   7
BRANCH   3  10
HETATM   10  O1  UNL     1       7.250   2.481 -11.267  1.00  0.00    -0.361 OA
HETATM   11  H7  UNL     1       6.377   2.830 -11.507  1.00  0.00     0.217 HD
ENDBRANCH   3  10
TORSDOF 2
ENDMDL
MODEL 16
REMARK VINA RESULT:      -3.7      5.718      6.597
REMARK  2 active torsions:
REMARK  status: ('A' for Active; 'I' for Inactive)
REMARK    1  A    between atoms: C3_3  and  O1_8 
REMARK    2  A    between atoms: C6_6  and  N1_7 
ROOT
HETATM    1  C1  UNL     1       2.712   3.402 -10.087  1.00  0.00     0.026 A 
HETATM    2  C2  UNL     1       2.296   2.077  -9.936  1.00  0.00     0.038 A 
HETATM    3  C3  UNL     1       2.875   1.082 -10.711  1.00  0.00     0.065 A 
HETATM    4  C4  UNL     1       3.876   1.389 -11.626  1.00  0.00     0.038 A 
HETATM    5  C5  UNL     1       4.285   2.718 -11.773  1.00  0.00     0.026 A 
HETATM    6  C6  UNL     1       3.673   3.742 -11.043  1.00  0.00     0.005 A 
ENDROOT
BRANCH   6   7
HETATM    7  N1  UNL     1       4.171   5.049 -11.110  1.00  0.00    -0.303 NA
HETATM    8  H5  UNL     1       3.926   5.535 -11.967  1.00  0.00     0.124 HD
HETATM    9  H6  UNL     1       5.158   5.124 -10.892  1.00  0.00     0.124 HD
ENDBRANCH   6   7
BRANCH   3  10
HETATM   10  O1  UNL     1       2.444  -0.198 -10.531  1.00  0.00    -0.361 OA
HETATM   11  H7  UNL     1       3.158  -0.710 -10.118  1.00  0.00     0.217 HD
ENDBRANCH   3  10
TORSDOF 2
ENDMDL
MODEL 17
REMARK VINA RESULT:      -3.7      4.100      4.784
REMARK  2 active torsions:
REMARK  status: ('A' for Active; 'I' for Inactive)
REMARK    1  A    between atoms: C3_3  and  O1_8 
REMARK    2  A    between atoms: C6_6  and  N1_7 
ROOT
HETATM    1  C1  UNL     1       7.899   5.773 -10.193  1.00  0.00     0.026 A 
HETATM    2  C2  UNL     1       6.568   6.194 -10.167  1.00  0.00     0.038 A 
HETATM    3  C3  UNL     1       5.551   5.276 -10.389  1.00  0.00     0.065 A 
HETATM    4  C4  UNL     1       5.846   3.937 -10.621  1.00  0.00     0.038 A 
HETATM    5  C5  UNL     1       7.181   3.523 -10.647  1.00  0.00     0.026 A 
HETATM    6  C6  UNL     1       8.221   4.444 -10.484  1.00  0.00     0.005 A 
ENDROOT
BRANCH   6   7
HETATM    7  N1  UNL     1       9.545   4.002 -10.393  1.00  0.00    -0.303 NA
HETATM    8  H5  UNL     1      10.120   4.562  -9.771  1.00  0.00     0.124 HD
HETATM    9  H6  UNL     1       9.988   3.845 -11.292  1.00  0.00     0.124 HD
ENDBRANCH   6   7
BRANCH   3  10
HETATM   10  O1  UNL     1       4.266   5.725 -10.352  1.00  0.00    -0.361 OA
HETATM   11  H7  UNL     1       4.075   6.187 -11.184  1.00  0.00     0.217 HD
ENDBRANCH   3  10
TORSDOF 2
ENDMDL
MODEL 18
REMARK VINA RESULT:      -3.6      8.607      9.570
REMARK  2 active torsions:
REMARK  status: ('A' for Active; 'I' for Inactive)
REMARK    1  A    between atoms: C3_3  and  O1_8 
REMARK    2  A    between atoms: C6_6  and  N1_7 
ROOT
HETATM    1  C1  UNL     1      12.531   4.700 -14.723  1.00  0.00     0.026 A 
HETATM    2  C2  UNL     1      11.820   4.958 -15.897  1.00  0.00     0.038 A 
HETATM    3  C3  UNL     1      10.470   5.272 -15.829  1.00  0.00     0.065 A 
HETATM    4  C4  UNL     1       9.822   5.348 -14.601  1.00  0.00     0.038 A 
HETATM    5  C5  UNL     1      10.540   5.087 -13.430  1.00  0.00     0.026 A 
HETATM    6  C6  UNL     1      11.886   4.711 -13.482  1.00  0.00     0.005 A 
ENDROOT
BRANCH   6   7
HETATM    7  N1  UNL     1      12.624   4.569 -12.302  1.00  0.00    -0.303 NA
HETATM    8  H5  UNL     1      12.089   4.760 -11.461  1.00  0.00     0.124 HD
HETATM    9  H6  UNL     1      13.513   5.057 -12.313  1.00  0.00     0.124 HD
ENDBRANCH   6   7
BRANCH   3  10
HETATM   10  O1  UNL     1       9.813   5.520 -16.997  1.00  0.00    -0.361 OA
HETATM   11  H7  UNL     1       9.445   4.685 -17.328  1.00  0.00     0.217 HD
ENDBRANCH   3  10
TORSDOF 2
ENDMDL
MODEL 19
REMARK VINA RESULT:      -3.5      6.545      7.469
REMARK  2 active torsions:
REMARK  status: ('A' for Active; 'I' for Inactive)
REMARK    1  A    between atoms: C3_3  and  O1_8 
REMARK    2  A    between atoms: C6_6  and  N1_7 
ROOT
HETATM    1  C1  UNL     1       2.570   1.713  -9.936  1.00  0.00     0.026 A 
HETATM    2  C2  UNL     1       2.661   0.446 -10.517  1.00  0.00     0.038 A 
HETATM    3  C3  UNL     1       2.834   0.330 -11.889  1.00  0.00     0.065 A 
HETATM    4  C4  UNL     1       2.934   1.463 -12.689  1.00  0.00     0.038 A 
HETATM    5  C5  UNL     1       2.840   2.727 -12.100  1.00  0.00     0.026 A 
HETATM    6  C6  UNL     1       2.607   2.864 -10.728  1.00  0.00     0.005 A 
ENDROOT
BRANCH   6   7
HETATM    7  N1  UNL     1       2.634   4.130 -10.132  1.00  0.00    -0.303 NA
HETATM    8  H5  UNL     1       3.320   4.758 -10.538  1.00  0.00     0.124 HD
HETATM    9  H6  UNL     1       2.685   4.106  -9.119  1.00  0.00     0.124 HD
ENDBRANCH   6   7
BRANCH   3  10
HETATM   10  O1  UNL     1       2.922  -0.923 -12.418  1.00  0.00    -0.361 OA
HETATM   11  H7  UNL     1       2.726  -1.569 -11.719  1.00  0.00     0.217 HD
ENDBRANCH   3  10
TORSDOF 2
ENDMDL
MODEL 20
REMARK VINA RESULT:      -3.5      6.070      6.895
REMARK  2 active torsions:
REMARK  status: ('A' for Active; 'I' for Inactive)
REMARK    1  A    between atoms: C3_3  and  O1_8 
REMARK    2  A    between atoms: C6_6  and  N1_7 
ROOT
HETATM    1  C1  UNL     1       2.607   0.560 -10.483  1.00  0.00     0.026 A 
HETATM    2  C2  UNL     1       2.572   1.851  -9.949  1.00  0.00     0.038 A 
HETATM    3  C3  UNL     1       2.722   2.946 -10.789  1.00  0.00     0.065 A 
HETATM    4  C4  UNL     1       2.888   2.771 -12.158  1.00  0.00     0.038 A 
HETATM    5  C5  UNL     1       2.923   1.476 -12.684  1.00  0.00     0.026 A 
HETATM    6  C6  UNL     1       2.833   0.359 -11.847  1.00  0.00     0.005 A 
ENDROOT
BRANCH   6   7
HETATM    7  N1  UNL     1       2.749  -0.927 -12.394  1.00  0.00    -0.303 NA
HETATM    8  H5  UNL     1       2.459  -1.635 -11.728  1.00  0.00     0.124 HD
HETATM    9  H6  UNL     1       3.572  -1.204 -12.920  1.00  0.00     0.124 HD
ENDBRANCH   6   7
BRANCH   3  10
HETATM   10  O1  UNL     1       2.680   4.188 -10.231  1.00  0.00    -0.361 OA
HETATM   11  H7  UNL     1       3.571   4.422  -9.927  1.00  0.00     0.217 HD
ENDBRANCH   3  10
TORSDOF 2
ENDMDL
