MODEL 1
REMARK VINA RESULT:      -6.9      0.000      0.000
REMARK  27 active torsions:
REMARK  status: ('A' for Active; 'I' for Inactive)
REMARK    1  A    between atoms: C2_2  and  S1_4 
REMARK    2  A    between atoms: S1_4  and  C3_5 
REMARK    3  A    between atoms: C3_5  and  C4_6 
REMARK    4  A    between atoms: C4_6  and  N1_7 
REMARK       I    between atoms: N1_7  and  C5_8 
REMARK    5  A    between atoms: C5_8  and  C6_10 
REMARK    6  A    between atoms: C6_10  and  C7_11 
REMARK    7  A    between atoms: C7_11  and  N2_12 
REMARK       I    between atoms: N2_12  and  C8_13 
REMARK    8  A    between atoms: C8_13  and  C9_15 
REMARK    9  A    between atoms: C9_15  and  C10_16 
REMARK   10  A    between atoms: C9_15  and  O17_54 
REMARK   11  A    between atoms: C10_16  and  C13_19 
REMARK   12  A    between atoms: C13_19  and  O4_20 
REMARK   13  A    between atoms: O4_20  and  P1_21 
REMARK   14  A    between atoms: P1_21  and  O6_23 
REMARK   15  A    between atoms: P1_21  and  O7_24 
REMARK   16  A    between atoms: O7_24  and  P2_25 
REMARK   17  A    between atoms: P2_25  and  O9_27 
REMARK   18  A    between atoms: P2_25  and  O10_28 
REMARK   19  A    between atoms: O10_28  and  C14_29 
REMARK   20  A    between atoms: C14_29  and  C15_30 
REMARK   21  A    between atoms: C16_31  and  O13_49 
REMARK   22  A    between atoms: C17_32  and  O12_48 
REMARK   23  A    between atoms: C18_33  and  N3_35 
REMARK   24  A    between atoms: C21_40  and  N7_47 
REMARK   25  A    between atoms: O13_49  and  P3_50 
REMARK   26  A    between atoms: P3_50  and  O15_52 
REMARK   27  A    between atoms: P3_50  and  O16_53 
ROOT
HETATM    1  C1  UNL     1       3.298  -0.220 -20.114  1.00  0.00     0.104 C 
HETATM    2  C2  UNL     1       4.412  -1.221 -20.141  1.00  0.00     0.182 C 
HETATM    3  O1  UNL     1       5.594  -0.918 -19.997  1.00  0.00    -0.286 OA
ENDROOT
BRANCH   2   4
HETATM    4  S1  UNL     1       3.895  -2.875 -20.437  1.00  0.00    -0.091 SA
BRANCH   4   5
HETATM    5  C3  UNL     1       4.697  -3.721 -19.037  1.00  0.00     0.102 C 
BRANCH   5   6
HETATM    6  C4  UNL     1       4.196  -3.195 -17.690  1.00  0.00     0.133 C 
BRANCH   6   7
HETATM    7  N1  UNL     1       5.218  -2.476 -16.956  1.00  0.00    -0.360 N 
HETATM    8  C5  UNL     1       4.995  -1.217 -16.449  1.00  0.00     0.219 C 
HETATM    9  O2  UNL     1       3.957  -0.598 -16.654  1.00  0.00    -0.274 OA
HETATM   10  H8  UNL     1       6.115  -2.920 -16.810  1.00  0.00     0.162 HD
BRANCH   8  11
HETATM   11  C6  UNL     1       6.170  -0.669 -15.669  1.00  0.00     0.122 C 
BRANCH  11  12
HETATM   12  C7  UNL     1       5.793  -0.339 -14.225  1.00  0.00     0.132 C 
BRANCH  12  13
HETATM   13  N2  UNL     1       4.568  -0.981 -13.798  1.00  0.00    -0.358 N 
HETATM   14  C8  UNL     1       4.612  -2.183 -13.116  1.00  0.00     0.247 C 
HETATM   15  O3  UNL     1       5.656  -2.802 -12.953  1.00  0.00    -0.271 OA
HETATM   16  H13 UNL     1       3.795  -0.354 -13.585  1.00  0.00     0.162 HD
BRANCH  14  17
HETATM   17  C9  UNL     1       3.260  -2.663 -12.568  1.00  0.00     0.219 C 
BRANCH  17  18
HETATM   18  C10 UNL     1       3.136  -2.607 -11.022  1.00  0.00     0.009 C 
HETATM   19  C11 UNL     1       1.695  -2.846 -10.549  1.00  0.00     0.020 C 
HETATM   20  C12 UNL     1       4.039  -3.657 -10.344  1.00  0.00     0.020 C 
BRANCH  18  21
HETATM   21  C13 UNL     1       3.591  -1.178 -10.610  1.00  0.00     0.192 C 
BRANCH  21  22
HETATM   22  O4  UNL     1       2.505  -0.283 -10.480  1.00  0.00    -0.296 OA
BRANCH  22  23
HETATM   23  P1  UNL     1       2.510   1.190 -11.112  1.00  0.00     0.401 P 
HETATM   24  O5  UNL     1       1.552   2.139 -10.462  1.00  0.00    -0.631 OA
BRANCH  23  25
HETATM   25  O6  UNL     1       2.279   1.018 -12.696  1.00  0.00    -0.307 OA
HETATM   26  H23 UNL     1       3.098   1.130 -13.195  1.00  0.00     0.222 HD
ENDBRANCH  23  25
BRANCH  23  27
HETATM   27  O7  UNL     1       4.032   1.650 -11.070  1.00  0.00    -0.195 OA
BRANCH  27  28
HETATM   28  P2  UNL     1       4.482   2.906 -11.941  1.00  0.00     0.401 P 
HETATM   29  O8  UNL     1       4.730   2.668 -13.395  1.00  0.00    -0.631 OA
BRANCH  28  30
HETATM   30  O9  UNL     1       3.342   3.985 -11.644  1.00  0.00    -0.307 OA
HETATM   31  H24 UNL     1       2.452   3.593 -11.469  1.00  0.00     0.222 HD
ENDBRANCH  28  30
BRANCH  28  32
HETATM   32  O10 UNL     1       5.699   3.531 -11.119  1.00  0.00    -0.294 OA
BRANCH  32  33
HETATM   33  C14 UNL     1       6.927   2.854 -11.059  1.00  0.00     0.215 C 
BRANCH  33  34
HETATM   34  C15 UNL     1       7.924   3.831 -10.439  1.00  0.00     0.180 C 
HETATM   35  C16 UNL     1       7.525   5.261 -10.780  1.00  0.00     0.197 C 
HETATM   36  C17 UNL     1       8.686   5.801 -11.593  1.00  0.00     0.199 C 
HETATM   37  C18 UNL     1       9.851   4.936 -11.106  1.00  0.00     0.262 C 
HETATM   38  O11 UNL     1       9.265   3.631 -10.901  1.00  0.00    -0.353 OA
BRANCH  35  39
HETATM   39  O13 UNL     1       7.347   5.972  -9.560  1.00  0.00    -0.286 OA
BRANCH  39  40
HETATM   40  P3  UNL     1       6.009   6.842  -9.457  1.00  0.00     0.391 P 
HETATM   41  O14 UNL     1       5.363   6.798  -8.110  1.00  0.00    -0.632 OA
BRANCH  40  42
HETATM   42  O15 UNL     1       5.180   6.261 -10.696  1.00  0.00    -0.307 OA
HETATM   43  H36 UNL     1       4.268   6.007 -10.417  1.00  0.00     0.222 HD
ENDBRANCH  40  42
BRANCH  40  44
HETATM   44  O16 UNL     1       6.510   8.255  -9.988  1.00  0.00    -0.307 OA
HETATM   45  H37 UNL     1       6.274   8.985  -9.395  1.00  0.00     0.222 HD
ENDBRANCH  40  44
ENDBRANCH  39  40
ENDBRANCH  35  39
BRANCH  36  46
HETATM   46  O12 UNL     1       8.799   7.215 -11.416  1.00  0.00    -0.388 OA
HETATM   47  H35 UNL     1       9.271   7.351 -10.560  1.00  0.00     0.210 HD
ENDBRANCH  36  46
BRANCH  37  48
HETATM   48  N3  UNL     1      10.909   4.822 -12.090  1.00  0.00    -0.297 N 
HETATM   49  C19 UNL     1      12.257   5.000 -11.885  1.00  0.00     0.188 A 
HETATM   50  N4  UNL     1      12.967   4.701 -12.951  1.00  0.00    -0.346 N 
HETATM   51  C20 UNL     1      12.033   4.305 -13.892  1.00  0.00     0.116 A 
HETATM   52  H4  UNL     1      13.980   4.750 -13.060  1.00  0.00     0.167 HD
HETATM   53  C21 UNL     1      12.151   3.828 -15.209  1.00  0.00     0.109 A 
HETATM   54  C23 UNL     1      10.751   4.413 -13.385  1.00  0.00     0.142 A 
HETATM   55  N5  UNL     1      11.021   3.527 -15.894  1.00  0.00    -0.341 N 
HETATM   56  C22 UNL     1       9.835   3.705 -15.278  1.00  0.00     0.183 A 
HETATM   57  H5  UNL     1      11.067   3.175 -16.850  1.00  0.00     0.167 HD
HETATM   58  N6  UNL     1       9.600   4.144 -14.025  1.00  0.00    -0.336 N 
HETATM   59  H6  UNL     1       8.672   4.257 -13.617  1.00  0.00     0.168 HD
BRANCH  53  60
HETATM   60  N7  UNL     1      13.367   3.658 -15.852  1.00  0.00    -0.287 NA
HETATM   61  H33 UNL     1      13.939   4.498 -15.896  1.00  0.00     0.125 HD
HETATM   62  H34 UNL     1      13.292   3.113 -16.701  1.00  0.00     0.125 HD
ENDBRANCH  53  60
ENDBRANCH  37  48
ENDBRANCH  33  34
ENDBRANCH  32  33
ENDBRANCH  28  32
ENDBRANCH  27  28
ENDBRANCH  23  27
ENDBRANCH  22  23
ENDBRANCH  21  22
ENDBRANCH  18  21
ENDBRANCH  17  18
BRANCH  17  63
HETATM   63  O17 UNL     1       2.196  -1.893 -13.137  1.00  0.00    -0.385 OA
HETATM   64  H38 UNL     1       1.354  -2.316 -12.895  1.00  0.00     0.210 HD
ENDBRANCH  17  63
ENDBRANCH  14  17
ENDBRANCH  12  13
ENDBRANCH  11  12
ENDBRANCH   8  11
ENDBRANCH   6   7
ENDBRANCH   5   6
ENDBRANCH   4   5
ENDBRANCH   2   4
TORSDOF 27
ENDMDL
MODEL 2
REMARK VINA RESULT:      -6.6      1.572      2.258
REMARK  27 active torsions:
REMARK  status: ('A' for Active; 'I' for Inactive)
REMARK    1  A    between atoms: C2_2  and  S1_4 
REMARK    2  A    between atoms: S1_4  and  C3_5 
REMARK    3  A    between atoms: C3_5  and  C4_6 
REMARK    4  A    between atoms: C4_6  and  N1_7 
REMARK       I    between atoms: N1_7  and  C5_8 
REMARK    5  A    between atoms: C5_8  and  C6_10 
REMARK    6  A    between atoms: C6_10  and  C7_11 
REMARK    7  A    between atoms: C7_11  and  N2_12 
REMARK       I    between atoms: N2_12  and  C8_13 
REMARK    8  A    between atoms: C8_13  and  C9_15 
REMARK    9  A    between atoms: C9_15  and  C10_16 
REMARK   10  A    between atoms: C9_15  and  O17_54 
REMARK   11  A    between atoms: C10_16  and  C13_19 
REMARK   12  A    between atoms: C13_19  and  O4_20 
REMARK   13  A    between atoms: O4_20  and  P1_21 
REMARK   14  A    between atoms: P1_21  and  O6_23 
REMARK   15  A    between atoms: P1_21  and  O7_24 
REMARK   16  A    between atoms: O7_24  and  P2_25 
REMARK   17  A    between atoms: P2_25  and  O9_27 
REMARK   18  A    between atoms: P2_25  and  O10_28 
REMARK   19  A    between atoms: O10_28  and  C14_29 
REMARK   20  A    between atoms: C14_29  and  C15_30 
REMARK   21  A    between atoms: C16_31  and  O13_49 
REMARK   22  A    between atoms: C17_32  and  O12_48 
REMARK   23  A    between atoms: C18_33  and  N3_35 
REMARK   24  A    between atoms: C21_40  and  N7_47 
REMARK   25  A    between atoms: O13_49  and  P3_50 
REMARK   26  A    between atoms: P3_50  and  O15_52 
REMARK   27  A    between atoms: P3_50  and  O16_53 
ROOT
HETATM    1  C1  UNL     1       5.055  -3.614 -16.706  1.00  0.00     0.104 C 
HETATM    2  C2  UNL     1       5.666  -2.382 -17.303  1.00  0.00     0.182 C 
HETATM    3  O1  UNL     1       5.018  -1.540 -17.920  1.00  0.00    -0.286 OA
ENDROOT
BRANCH   2   4
HETATM    4  S1  UNL     1       7.406  -2.256 -17.083  1.00  0.00    -0.091 SA
BRANCH   4   5
HETATM    5  C3  UNL     1       7.543  -0.509 -16.585  1.00  0.00     0.102 C 
BRANCH   5   6
HETATM    6  C4  UNL     1       8.080  -0.363 -15.160  1.00  0.00     0.133 C 
BRANCH   6   7
HETATM    7  N1  UNL     1       8.301  -1.639 -14.512  1.00  0.00    -0.360 N 
HETATM    8  C5  UNL     1       8.459  -1.742 -13.149  1.00  0.00     0.219 C 
HETATM    9  O2  UNL     1       8.503  -0.762 -12.414  1.00  0.00    -0.274 OA
HETATM   10  H8  UNL     1       8.332  -2.475 -15.081  1.00  0.00     0.162 HD
BRANCH   8  11
HETATM   11  C6  UNL     1       8.622  -3.168 -12.670  1.00  0.00     0.122 C 
BRANCH  11  12
HETATM   12  C7  UNL     1       7.297  -3.766 -12.198  1.00  0.00     0.132 C 
BRANCH  12  13
HETATM   13  N2  UNL     1       6.216  -2.804 -12.172  1.00  0.00    -0.358 N 
HETATM   14  C8  UNL     1       4.977  -3.134 -12.688  1.00  0.00     0.247 C 
HETATM   15  O3  UNL     1       4.777  -4.185 -13.283  1.00  0.00    -0.271 OA
HETATM   16  H13 UNL     1       6.238  -2.142 -11.399  1.00  0.00     0.162 HD
BRANCH  14  17
HETATM   17  C9  UNL     1       3.877  -2.091 -12.437  1.00  0.00     0.219 C 
BRANCH  17  18
HETATM   18  C10 UNL     1       3.188  -2.203 -11.052  1.00  0.00     0.009 C 
HETATM   19  C11 UNL     1       1.682  -2.476 -11.175  1.00  0.00     0.020 C 
HETATM   20  C12 UNL     1       3.808  -3.331 -10.202  1.00  0.00     0.020 C 
BRANCH  18  21
HETATM   21  C13 UNL     1       3.415  -0.833 -10.351  1.00  0.00     0.192 C 
BRANCH  21  22
HETATM   22  O4  UNL     1       2.306   0.032 -10.487  1.00  0.00    -0.296 OA
BRANCH  22  23
HETATM   23  P1  UNL     1       2.433   1.530 -11.042  1.00  0.00     0.401 P 
HETATM   24  O5  UNL     1       1.479   2.498 -10.416  1.00  0.00    -0.631 OA
BRANCH  23  25
HETATM   25  O6  UNL     1       2.312   1.445 -12.645  1.00  0.00    -0.307 OA
HETATM   26  H23 UNL     1       2.614   2.255 -13.074  1.00  0.00     0.222 HD
ENDBRANCH  23  25
BRANCH  23  27
HETATM   27  O7  UNL     1       3.970   1.904 -10.868  1.00  0.00    -0.195 OA
BRANCH  27  28
HETATM   28  P2  UNL     1       4.648   2.887 -11.922  1.00  0.00     0.401 P 
HETATM   29  O8  UNL     1       5.006   2.309 -13.253  1.00  0.00    -0.631 OA
BRANCH  28  30
HETATM   30  O9  UNL     1       3.622   4.108 -11.998  1.00  0.00    -0.307 OA
HETATM   31  H24 UNL     1       3.170   4.309 -11.142  1.00  0.00     0.222 HD
ENDBRANCH  28  30
BRANCH  28  32
HETATM   32  O10 UNL     1       5.846   3.559 -11.109  1.00  0.00    -0.294 OA
BRANCH  32  33
HETATM   33  C14 UNL     1       7.055   2.867 -10.938  1.00  0.00     0.215 C 
BRANCH  33  34
HETATM   34  C15 UNL     1       8.052   3.881 -10.380  1.00  0.00     0.180 C 
HETATM   35  C16 UNL     1       7.622   5.291 -10.762  1.00  0.00     0.197 C 
HETATM   36  C17 UNL     1       8.754   5.818 -11.623  1.00  0.00     0.199 C 
HETATM   37  C18 UNL     1       9.944   4.988 -11.136  1.00  0.00     0.262 C 
HETATM   38  O11 UNL     1       9.383   3.684 -10.869  1.00  0.00    -0.353 OA
BRANCH  35  39
HETATM   39  O13 UNL     1       7.464   6.044  -9.563  1.00  0.00    -0.286 OA
BRANCH  39  40
HETATM   40  P3  UNL     1       6.114   6.894  -9.456  1.00  0.00     0.391 P 
HETATM   41  O14 UNL     1       5.528   6.923  -8.081  1.00  0.00    -0.632 OA
BRANCH  40  42
HETATM   42  O15 UNL     1       5.244   6.222 -10.618  1.00  0.00    -0.307 OA
HETATM   43  H36 UNL     1       4.325   6.581 -10.618  1.00  0.00     0.222 HD
ENDBRANCH  40  42
BRANCH  40  44
HETATM   44  O16 UNL     1       6.563   8.279 -10.095  1.00  0.00    -0.307 OA
HETATM   45  H37 UNL     1       7.170   8.777  -9.525  1.00  0.00     0.222 HD
ENDBRANCH  40  44
ENDBRANCH  39  40
ENDBRANCH  35  39
BRANCH  36  46
HETATM   46  O12 UNL     1       8.850   7.240 -11.500  1.00  0.00    -0.388 OA
HETATM   47  H35 UNL     1       8.173   7.508 -10.834  1.00  0.00     0.210 HD
ENDBRANCH  36  46
BRANCH  37  48
HETATM   48  N3  UNL     1      10.978   4.854 -12.142  1.00  0.00    -0.297 N 
HETATM   49  C19 UNL     1      12.332   5.023 -11.970  1.00  0.00     0.188 A 
HETATM   50  N4  UNL     1      13.015   4.706 -13.048  1.00  0.00    -0.346 N 
HETATM   51  C20 UNL     1      12.057   4.307 -13.963  1.00  0.00     0.116 A 
HETATM   52  H4  UNL     1      14.026   4.745 -13.180  1.00  0.00     0.167 HD
HETATM   53  C21 UNL     1      12.141   3.814 -15.277  1.00  0.00     0.109 A 
HETATM   54  C23 UNL     1      10.788   4.431 -13.428  1.00  0.00     0.142 A 
HETATM   55  N5  UNL     1      10.993   3.514 -15.932  1.00  0.00    -0.341 N 
HETATM   56  C22 UNL     1       9.824   3.708 -15.292  1.00  0.00     0.183 A 
HETATM   57  H5  UNL     1      11.015   3.150 -16.885  1.00  0.00     0.167 HD
HETATM   58  N6  UNL     1       9.620   4.164 -14.039  1.00  0.00    -0.336 N 
HETATM   59  H6  UNL     1       8.703   4.289 -13.611  1.00  0.00     0.168 HD
BRANCH  53  60
HETATM   60  N7  UNL     1      13.341   3.626 -15.945  1.00  0.00    -0.287 NA
HETATM   61  H33 UNL     1      14.162   3.642 -15.344  1.00  0.00     0.125 HD
HETATM   62  H34 UNL     1      13.397   4.148 -16.809  1.00  0.00     0.125 HD
ENDBRANCH  53  60
ENDBRANCH  37  48
ENDBRANCH  33  34
ENDBRANCH  32  33
ENDBRANCH  28  32
ENDBRANCH  27  28
ENDBRANCH  23  27
ENDBRANCH  22  23
ENDBRANCH  21  22
ENDBRANCH  18  21
ENDBRANCH  17  18
BRANCH  17  63
HETATM   63  O17 UNL     1       4.410  -0.769 -12.575  1.00  0.00    -0.385 OA
HETATM   64  H38 UNL     1       4.829  -0.524 -11.733  1.00  0.00     0.210 HD
ENDBRANCH  17  63
ENDBRANCH  14  17
ENDBRANCH  12  13
ENDBRANCH  11  12
ENDBRANCH   8  11
ENDBRANCH   6   7
ENDBRANCH   5   6
ENDBRANCH   4   5
ENDBRANCH   2   4
TORSDOF 27
ENDMDL
MODEL 3
REMARK VINA RESULT:      -6.4      4.297     10.367
REMARK  27 active torsions:
REMARK  status: ('A' for Active; 'I' for Inactive)
REMARK    1  A    between atoms: C2_2  and  S1_4 
REMARK    2  A    between atoms: S1_4  and  C3_5 
REMARK    3  A    between atoms: C3_5  and  C4_6 
REMARK    4  A    between atoms: C4_6  and  N1_7 
REMARK       I    between atoms: N1_7  and  C5_8 
REMARK    5  A    between atoms: C5_8  and  C6_10 
REMARK    6  A    between atoms: C6_10  and  C7_11 
REMARK    7  A    between atoms: C7_11  and  N2_12 
REMARK       I    between atoms: N2_12  and  C8_13 
REMARK    8  A    between atoms: C8_13  and  C9_15 
REMARK    9  A    between atoms: C9_15  and  C10_16 
REMARK   10  A    between atoms: C9_15  and  O17_54 
REMARK   11  A    between atoms: C10_16  and  C13_19 
REMARK   12  A    between atoms: C13_19  and  O4_20 
REMARK   13  A    between atoms: O4_20  and  P1_21 
REMARK   14  A    between atoms: P1_21  and  O6_23 
REMARK   15  A    between atoms: P1_21  and  O7_24 
REMARK   16  A    between atoms: O7_24  and  P2_25 
REMARK   17  A    between atoms: P2_25  and  O9_27 
REMARK   18  A    between atoms: P2_25  and  O10_28 
REMARK   19  A    between atoms: O10_28  and  C14_29 
REMARK   20  A    between atoms: C14_29  and  C15_30 
REMARK   21  A    between atoms: C16_31  and  O13_49 
REMARK   22  A    between atoms: C17_32  and  O12_48 
REMARK   23  A    between atoms: C18_33  and  N3_35 
REMARK   24  A    between atoms: C21_40  and  N7_47 
REMARK   25  A    between atoms: O13_49  and  P3_50 
REMARK   26  A    between atoms: P3_50  and  O15_52 
REMARK   27  A    between atoms: P3_50  and  O16_53 
ROOT
HETATM    1  C1  UNL     1       3.864   6.590  -8.507  1.00  0.00     0.104 C 
HETATM    2  C2  UNL     1       4.819   7.637  -8.021  1.00  0.00     0.182 C 
HETATM    3  O1  UNL     1       4.678   8.237  -6.958  1.00  0.00    -0.286 OA
ENDROOT
BRANCH   2   4
HETATM    4  S1  UNL     1       6.149   7.972  -9.121  1.00  0.00    -0.091 SA
BRANCH   4   5
HETATM    5  C3  UNL     1       7.209   6.525  -8.797  1.00  0.00     0.102 C 
BRANCH   5   6
HETATM    6  C4  UNL     1       7.545   5.766 -10.082  1.00  0.00     0.133 C 
BRANCH   6   7
HETATM    7  N1  UNL     1       8.863   6.084 -10.591  1.00  0.00    -0.360 N 
HETATM    8  C5  UNL     1       9.832   5.120 -10.747  1.00  0.00     0.219 C 
HETATM    9  O2  UNL     1       9.669   3.958 -10.394  1.00  0.00    -0.274 OA
HETATM   10  H8  UNL     1       9.069   7.042 -10.843  1.00  0.00     0.162 HD
BRANCH   8  11
HETATM   11  C6  UNL     1      11.116   5.652 -11.345  1.00  0.00     0.122 C 
BRANCH  11  12
HETATM   12  C7  UNL     1      11.725   4.677 -12.351  1.00  0.00     0.132 C 
BRANCH  12  13
HETATM   13  N2  UNL     1      10.782   4.236 -13.357  1.00  0.00    -0.358 N 
HETATM   14  C8  UNL     1      10.783   4.813 -14.614  1.00  0.00     0.247 C 
HETATM   15  O3  UNL     1      11.484   5.779 -14.887  1.00  0.00    -0.271 OA
HETATM   16  H13 UNL     1      10.495   3.262 -13.292  1.00  0.00     0.162 HD
BRANCH  14  17
HETATM   17  C9  UNL     1       9.857   4.135 -15.635  1.00  0.00     0.219 C 
BRANCH  17  18
HETATM   18  C10 UNL     1      10.567   3.658 -16.929  1.00  0.00     0.009 C 
HETATM   19  C11 UNL     1      10.722   4.791 -17.955  1.00  0.00     0.020 C 
HETATM   20  C12 UNL     1      11.971   3.095 -16.629  1.00  0.00     0.020 C 
BRANCH  18  21
HETATM   21  C13 UNL     1       9.667   2.536 -17.521  1.00  0.00     0.192 C 
BRANCH  21  22
HETATM   22  O4  UNL     1      10.087   1.245 -17.128  1.00  0.00    -0.296 OA
BRANCH  22  23
HETATM   23  P1  UNL     1       9.696  -0.082 -17.938  1.00  0.00     0.401 P 
HETATM   24  O5  UNL     1      10.831  -1.036 -18.134  1.00  0.00    -0.631 OA
BRANCH  23  25
HETATM   25  O6  UNL     1       9.006   0.397 -19.311  1.00  0.00    -0.307 OA
HETATM   26  H23 UNL     1       9.345   1.251 -19.607  1.00  0.00     0.222 HD
ENDBRANCH  23  25
BRANCH  23  27
HETATM   27  O7  UNL     1       8.447  -0.686 -17.158  1.00  0.00    -0.195 OA
BRANCH  27  28
HETATM   28  P2  UNL     1       7.452  -1.658 -17.934  1.00  0.00     0.401 P 
HETATM   29  O8  UNL     1       6.425  -1.017 -18.809  1.00  0.00    -0.631 OA
BRANCH  28  30
HETATM   30  O9  UNL     1       8.436  -2.651 -18.705  1.00  0.00    -0.307 OA
HETATM   31  H24 UNL     1       8.309  -3.604 -18.476  1.00  0.00     0.222 HD
ENDBRANCH  28  30
BRANCH  28  32
HETATM   32  O10 UNL     1       6.892  -2.626 -16.795  1.00  0.00    -0.294 OA
BRANCH  32  33
HETATM   33  C14 UNL     1       5.816  -2.217 -15.991  1.00  0.00     0.215 C 
BRANCH  33  34
HETATM   34  C15 UNL     1       6.396  -1.247 -14.963  1.00  0.00     0.180 C 
HETATM   35  C16 UNL     1       6.749  -1.999 -13.687  1.00  0.00     0.197 C 
HETATM   36  C17 UNL     1       5.864  -1.383 -12.620  1.00  0.00     0.199 C 
HETATM   37  C18 UNL     1       5.600   0.014 -13.188  1.00  0.00     0.262 C 
HETATM   38  O11 UNL     1       5.490  -0.195 -14.613  1.00  0.00    -0.353 OA
BRANCH  35  39
HETATM   39  O13 UNL     1       8.132  -1.794 -13.421  1.00  0.00    -0.286 OA
BRANCH  39  40
HETATM   40  P3  UNL     1       9.069  -3.074 -13.616  1.00  0.00     0.391 P 
HETATM   41  O14 UNL     1       8.439  -4.355 -13.175  1.00  0.00    -0.632 OA
BRANCH  40  42
HETATM   42  O15 UNL     1      10.391  -2.597 -12.851  1.00  0.00    -0.307 OA
HETATM   43  H36 UNL     1      10.160  -2.130 -12.014  1.00  0.00     0.222 HD
ENDBRANCH  40  42
BRANCH  40  44
HETATM   44  O16 UNL     1       9.470  -2.941 -15.149  1.00  0.00    -0.307 OA
HETATM   45  H37 UNL     1       9.798  -2.056 -15.377  1.00  0.00     0.222 HD
ENDBRANCH  40  44
ENDBRANCH  39  40
ENDBRANCH  35  39
BRANCH  36  46
HETATM   46  O12 UNL     1       6.499  -1.463 -11.341  1.00  0.00    -0.388 OA
HETATM   47  H35 UNL     1       6.747  -0.539 -11.096  1.00  0.00     0.210 HD
ENDBRANCH  36  46
BRANCH  37  48
HETATM   48  N3  UNL     1       4.360   0.587 -12.704  1.00  0.00    -0.297 N 
HETATM   49  C19 UNL     1       3.115   0.002 -12.713  1.00  0.00     0.188 A 
HETATM   50  N4  UNL     1       2.217   0.730 -12.085  1.00  0.00    -0.346 N 
HETATM   51  C20 UNL     1       2.916   1.840 -11.643  1.00  0.00     0.116 A 
HETATM   52  H4  UNL     1       1.227   0.523 -11.954  1.00  0.00     0.167 HD
HETATM   53  C21 UNL     1       2.541   2.960 -10.881  1.00  0.00     0.109 A 
HETATM   54  C23 UNL     1       4.235   1.783 -12.054  1.00  0.00     0.142 A 
HETATM   55  N5  UNL     1       3.475   3.906 -10.615  1.00  0.00    -0.341 N 
HETATM   56  C22 UNL     1       4.719   3.728 -11.102  1.00  0.00     0.183 A 
HETATM   57  H5  UNL     1       3.241   4.731 -10.062  1.00  0.00     0.167 HD
HETATM   58  N6  UNL     1       5.194   2.699 -11.832  1.00  0.00    -0.336 N 
HETATM   59  H6  UNL     1       6.154   2.624 -12.171  1.00  0.00     0.168 HD
BRANCH  53  60
HETATM   60  N7  UNL     1       1.259   3.154 -10.391  1.00  0.00    -0.287 NA
HETATM   61  H33 UNL     1       0.525   2.752 -10.969  1.00  0.00     0.125 HD
HETATM   62  H34 UNL     1       1.106   4.093 -10.048  1.00  0.00     0.125 HD
ENDBRANCH  53  60
ENDBRANCH  37  48
ENDBRANCH  33  34
ENDBRANCH  32  33
ENDBRANCH  28  32
ENDBRANCH  27  28
ENDBRANCH  23  27
ENDBRANCH  22  23
ENDBRANCH  21  22
ENDBRANCH  18  21
ENDBRANCH  17  18
BRANCH  17  63
HETATM   63  O17 UNL     1       9.202   3.012 -15.036  1.00  0.00    -0.385 OA
HETATM   64  H38 UNL     1       9.793   2.644 -14.358  1.00  0.00     0.210 HD
ENDBRANCH  17  63
ENDBRANCH  14  17
ENDBRANCH  12  13
ENDBRANCH  11  12
ENDBRANCH   8  11
ENDBRANCH   6   7
ENDBRANCH   5   6
ENDBRANCH   4   5
ENDBRANCH   2   4
TORSDOF 27
ENDMDL
MODEL 4
REMARK VINA RESULT:      -6.4      3.014      4.025
REMARK  27 active torsions:
REMARK  status: ('A' for Active; 'I' for Inactive)
REMARK    1  A    between atoms: C2_2  and  S1_4 
REMARK    2  A    between atoms: S1_4  and  C3_5 
REMARK    3  A    between atoms: C3_5  and  C4_6 
REMARK    4  A    between atoms: C4_6  and  N1_7 
REMARK       I    between atoms: N1_7  and  C5_8 
REMARK    5  A    between atoms: C5_8  and  C6_10 
REMARK    6  A    between atoms: C6_10  and  C7_11 
REMARK    7  A    between atoms: C7_11  and  N2_12 
REMARK       I    between atoms: N2_12  and  C8_13 
REMARK    8  A    between atoms: C8_13  and  C9_15 
REMARK    9  A    between atoms: C9_15  and  C10_16 
REMARK   10  A    between atoms: C9_15  and  O17_54 
REMARK   11  A    between atoms: C10_16  and  C13_19 
REMARK   12  A    between atoms: C13_19  and  O4_20 
REMARK   13  A    between atoms: O4_20  and  P1_21 
REMARK   14  A    between atoms: P1_21  and  O6_23 
REMARK   15  A    between atoms: P1_21  and  O7_24 
REMARK   16  A    between atoms: O7_24  and  P2_25 
REMARK   17  A    between atoms: P2_25  and  O9_27 
REMARK   18  A    between atoms: P2_25  and  O10_28 
REMARK   19  A    between atoms: O10_28  and  C14_29 
REMARK   20  A    between atoms: C14_29  and  C15_30 
REMARK   21  A    between atoms: C16_31  and  O13_49 
REMARK   22  A    between atoms: C17_32  and  O12_48 
REMARK   23  A    between atoms: C18_33  and  N3_35 
REMARK   24  A    between atoms: C21_40  and  N7_47 
REMARK   25  A    between atoms: O13_49  and  P3_50 
REMARK   26  A    between atoms: P3_50  and  O15_52 
REMARK   27  A    between atoms: P3_50  and  O16_53 
ROOT
HETATM    1  C1  UNL     1      12.003  -2.576 -18.348  1.00  0.00     0.104 C 
HETATM    2  C2  UNL     1      13.170  -1.850 -18.944  1.00  0.00     0.182 C 
HETATM    3  O1  UNL     1      13.899  -2.337 -19.806  1.00  0.00    -0.286 OA
ENDROOT
BRANCH   2   4
HETATM    4  S1  UNL     1      13.443  -0.246 -18.279  1.00  0.00    -0.091 SA
BRANCH   4   5
HETATM    5  C3  UNL     1      12.889   0.783 -19.677  1.00  0.00     0.102 C 
BRANCH   5   6
HETATM    6  C4  UNL     1      11.542   1.452 -19.394  1.00  0.00     0.133 C 
BRANCH   6   7
HETATM    7  N1  UNL     1      10.456   0.500 -19.288  1.00  0.00    -0.360 N 
HETATM    8  C5  UNL     1       9.688   0.401 -18.151  1.00  0.00     0.219 C 
HETATM    9  O2  UNL     1       9.923   1.048 -17.138  1.00  0.00    -0.274 OA
HETATM   10  H8  UNL     1      10.257  -0.101 -20.077  1.00  0.00     0.162 HD
BRANCH   8  11
HETATM   11  C6  UNL     1       8.573  -0.616 -18.268  1.00  0.00     0.122 C 
BRANCH  11  12
HETATM   12  C7  UNL     1       8.475  -1.501 -17.026  1.00  0.00     0.132 C 
BRANCH  12  13
HETATM   13  N2  UNL     1       7.930  -0.810 -15.877  1.00  0.00    -0.358 N 
HETATM   14  C8  UNL     1       6.618  -1.020 -15.496  1.00  0.00     0.247 C 
HETATM   15  O3  UNL     1       5.843  -1.690 -16.167  1.00  0.00    -0.271 OA
HETATM   16  H13 UNL     1       8.598  -0.587 -15.143  1.00  0.00     0.162 HD
BRANCH  14  17
HETATM   17  C9  UNL     1       6.221  -0.365 -14.164  1.00  0.00     0.219 C 
BRANCH  17  18
HETATM   18  C10 UNL     1       6.635  -1.170 -12.904  1.00  0.00     0.009 C 
HETATM   19  C11 UNL     1       6.904  -2.648 -13.224  1.00  0.00     0.020 C 
HETATM   20  C12 UNL     1       7.905  -0.587 -12.252  1.00  0.00     0.020 C 
BRANCH  18  21
HETATM   21  C13 UNL     1       5.440  -1.059 -11.915  1.00  0.00     0.192 C 
BRANCH  21  22
HETATM   22  O4  UNL     1       4.314  -0.434 -12.499  1.00  0.00    -0.296 OA
BRANCH  22  23
HETATM   23  P1  UNL     1       3.254   0.418 -11.650  1.00  0.00     0.401 P 
HETATM   24  O5  UNL     1       2.472  -0.387 -10.661  1.00  0.00    -0.631 OA
BRANCH  23  25
HETATM   25  O6  UNL     1       2.338   1.210 -12.711  1.00  0.00    -0.307 OA
HETATM   26  H23 UNL     1       1.824   0.609 -13.265  1.00  0.00     0.222 HD
ENDBRANCH  23  25
BRANCH  23  27
HETATM   27  O7  UNL     1       4.097   1.611 -11.019  1.00  0.00    -0.195 OA
BRANCH  27  28
HETATM   28  P2  UNL     1       4.411   2.890 -11.914  1.00  0.00     0.401 P 
HETATM   29  O8  UNL     1       4.548   2.670 -13.385  1.00  0.00    -0.631 OA
BRANCH  28  30
HETATM   30  O9  UNL     1       3.250   3.911 -11.515  1.00  0.00    -0.307 OA
HETATM   31  H24 UNL     1       2.839   3.730 -10.634  1.00  0.00     0.222 HD
ENDBRANCH  28  30
BRANCH  28  32
HETATM   32  O10 UNL     1       5.661   3.570 -11.191  1.00  0.00    -0.294 OA
BRANCH  32  33
HETATM   33  C14 UNL     1       6.868   2.864 -11.062  1.00  0.00     0.215 C 
BRANCH  33  34
HETATM   34  C15 UNL     1       7.865   3.834 -10.430  1.00  0.00     0.180 C 
HETATM   35  C16 UNL     1       7.475   5.267 -10.768  1.00  0.00     0.197 C 
HETATM   36  C17 UNL     1       8.644   5.805 -11.570  1.00  0.00     0.199 C 
HETATM   37  C18 UNL     1       9.802   4.932 -11.079  1.00  0.00     0.262 C 
HETATM   38  O11 UNL     1       9.208   3.630 -10.884  1.00  0.00    -0.353 OA
BRANCH  35  39
HETATM   39  O13 UNL     1       7.291   5.974  -9.546  1.00  0.00    -0.286 OA
BRANCH  39  40
HETATM   40  P3  UNL     1       5.975   6.877  -9.463  1.00  0.00     0.391 P 
HETATM   41  O14 UNL     1       5.367   6.933  -8.099  1.00  0.00    -0.632 OA
BRANCH  40  42
HETATM   42  O15 UNL     1       5.099   6.238 -10.639  1.00  0.00    -0.307 OA
HETATM   43  H36 UNL     1       5.593   6.258 -11.493  1.00  0.00     0.222 HD
ENDBRANCH  40  42
BRANCH  40  44
HETATM   44  O16 UNL     1       6.489   8.243 -10.097  1.00  0.00    -0.307 OA
HETATM   45  H37 UNL     1       5.828   8.664 -10.670  1.00  0.00     0.222 HD
ENDBRANCH  40  44
ENDBRANCH  39  40
ENDBRANCH  35  39
BRANCH  36  46
HETATM   46  O12 UNL     1       8.764   7.218 -11.386  1.00  0.00    -0.388 OA
HETATM   47  H35 UNL     1       8.150   7.456 -10.651  1.00  0.00     0.210 HD
ENDBRANCH  36  46
BRANCH  37  48
HETATM   48  N3  UNL     1      10.866   4.818 -12.055  1.00  0.00    -0.297 N 
HETATM   49  C19 UNL     1      12.215   4.973 -11.836  1.00  0.00     0.188 A 
HETATM   50  N4  UNL     1      12.930   4.680 -12.900  1.00  0.00    -0.346 N 
HETATM   51  C20 UNL     1      11.999   4.311 -13.855  1.00  0.00     0.116 A 
HETATM   52  H4  UNL     1      13.944   4.716 -13.000  1.00  0.00     0.167 HD
HETATM   53  C21 UNL     1      12.121   3.851 -15.178  1.00  0.00     0.109 A 
HETATM   54  C23 UNL     1      10.714   4.430 -13.357  1.00  0.00     0.142 A 
HETATM   55  N5  UNL     1      10.993   3.576 -15.877  1.00  0.00    -0.341 N 
HETATM   56  C22 UNL     1       9.805   3.762 -15.268  1.00  0.00     0.183 A 
HETATM   57  H5  UNL     1      11.042   3.237 -16.837  1.00  0.00     0.167 HD
HETATM   58  N6  UNL     1       9.565   4.186 -14.011  1.00  0.00    -0.336 N 
HETATM   59  H6  UNL     1       8.635   4.306 -13.608  1.00  0.00     0.168 HD
BRANCH  53  60
HETATM   60  N7  UNL     1      13.340   3.673 -15.813  1.00  0.00    -0.287 NA
HETATM   61  H33 UNL     1      13.301   3.757 -16.827  1.00  0.00     0.125 HD
HETATM   62  H34 UNL     1      13.869   2.896 -15.441  1.00  0.00     0.125 HD
ENDBRANCH  53  60
ENDBRANCH  37  48
ENDBRANCH  33  34
ENDBRANCH  32  33
ENDBRANCH  28  32
ENDBRANCH  27  28
ENDBRANCH  23  27
ENDBRANCH  22  23
ENDBRANCH  21  22
ENDBRANCH  18  21
ENDBRANCH  17  18
BRANCH  17  63
HETATM   63  O17 UNL     1       6.788   0.946 -14.071  1.00  0.00    -0.385 OA
HETATM   64  H38 UNL     1       6.218   1.481 -13.493  1.00  0.00     0.210 HD
ENDBRANCH  17  63
ENDBRANCH  14  17
ENDBRANCH  12  13
ENDBRANCH  11  12
ENDBRANCH   8  11
ENDBRANCH   6   7
ENDBRANCH   5   6
ENDBRANCH   4   5
ENDBRANCH   2   4
TORSDOF 27
ENDMDL
MODEL 5
REMARK VINA RESULT:      -6.4      3.332      7.109
REMARK  27 active torsions:
REMARK  status: ('A' for Active; 'I' for Inactive)
REMARK    1  A    between atoms: C2_2  and  S1_4 
REMARK    2  A    between atoms: S1_4  and  C3_5 
REMARK    3  A    between atoms: C3_5  and  C4_6 
REMARK    4  A    between atoms: C4_6  and  N1_7 
REMARK       I    between atoms: N1_7  and  C5_8 
REMARK    5  A    between atoms: C5_8  and  C6_10 
REMARK    6  A    between atoms: C6_10  and  C7_11 
REMARK    7  A    between atoms: C7_11  and  N2_12 
REMARK       I    between atoms: N2_12  and  C8_13 
REMARK    8  A    between atoms: C8_13  and  C9_15 
REMARK    9  A    between atoms: C9_15  and  C10_16 
REMARK   10  A    between atoms: C9_15  and  O17_54 
REMARK   11  A    between atoms: C10_16  and  C13_19 
REMARK   12  A    between atoms: C13_19  and  O4_20 
REMARK   13  A    between atoms: O4_20  and  P1_21 
REMARK   14  A    between atoms: P1_21  and  O6_23 
REMARK   15  A    between atoms: P1_21  and  O7_24 
REMARK   16  A    between atoms: O7_24  and  P2_25 
REMARK   17  A    between atoms: P2_25  and  O9_27 
REMARK   18  A    between atoms: P2_25  and  O10_28 
REMARK   19  A    between atoms: O10_28  and  C14_29 
REMARK   20  A    between atoms: C14_29  and  C15_30 
REMARK   21  A    between atoms: C16_31  and  O13_49 
REMARK   22  A    between atoms: C17_32  and  O12_48 
REMARK   23  A    between atoms: C18_33  and  N3_35 
REMARK   24  A    between atoms: C21_40  and  N7_47 
REMARK   25  A    between atoms: O13_49  and  P3_50 
REMARK   26  A    between atoms: P3_50  and  O15_52 
REMARK   27  A    between atoms: P3_50  and  O16_53 
ROOT
HETATM    1  C1  UNL     1       4.534  -0.960 -19.042  1.00  0.00     0.104 C 
HETATM    2  C2  UNL     1       5.847  -1.382 -19.628  1.00  0.00     0.182 C 
HETATM    3  O1  UNL     1       6.811  -0.627 -19.735  1.00  0.00    -0.286 OA
ENDROOT
BRANCH   2   4
HETATM    4  S1  UNL     1       5.888  -3.047 -20.191  1.00  0.00    -0.091 SA
BRANCH   4   5
HETATM    5  C3  UNL     1       7.155  -2.916 -21.494  1.00  0.00     0.102 C 
BRANCH   5   6
HETATM    6  C4  UNL     1       8.501  -3.484 -21.040  1.00  0.00     0.133 C 
BRANCH   6   7
HETATM    7  N1  UNL     1       9.427  -2.455 -20.612  1.00  0.00    -0.360 N 
HETATM    8  C5  UNL     1       9.752  -2.278 -19.288  1.00  0.00     0.219 C 
HETATM    9  O2  UNL     1       9.223  -2.920 -18.387  1.00  0.00    -0.274 OA
HETATM   10  H8  UNL     1       9.848  -1.859 -21.312  1.00  0.00     0.162 HD
BRANCH   8  11
HETATM   11  C6  UNL     1      10.777  -1.188 -19.062  1.00  0.00     0.122 C 
BRANCH  11  12
HETATM   12  C7  UNL     1      10.201   0.202 -19.329  1.00  0.00     0.132 C 
BRANCH  12  13
HETATM   13  N2  UNL     1      10.008   0.977 -18.121  1.00  0.00    -0.358 N 
HETATM   14  C8  UNL     1      10.718   2.148 -17.925  1.00  0.00     0.247 C 
HETATM   15  O3  UNL     1      11.605   2.508 -18.688  1.00  0.00    -0.271 OA
HETATM   16  H13 UNL     1       9.080   0.920 -17.707  1.00  0.00     0.162 HD
BRANCH  14  17
HETATM   17  C9  UNL     1      10.291   2.961 -16.693  1.00  0.00     0.219 C 
BRANCH  17  18
HETATM   18  C10 UNL     1       9.673   4.346 -17.020  1.00  0.00     0.009 C 
HETATM   19  C11 UNL     1      10.741   5.443 -17.133  1.00  0.00     0.020 C 
HETATM   20  C12 UNL     1       8.883   4.314 -18.344  1.00  0.00     0.020 C 
BRANCH  18  21
HETATM   21  C13 UNL     1       8.711   4.672 -15.842  1.00  0.00     0.192 C 
BRANCH  21  22
HETATM   22  O4  UNL     1       9.226   5.673 -14.988  1.00  0.00    -0.296 OA
BRANCH  22  23
HETATM   23  P1  UNL     1      10.103   5.341 -13.687  1.00  0.00     0.401 P 
HETATM   24  O5  UNL     1      11.418   6.053 -13.637  1.00  0.00    -0.631 OA
BRANCH  23  25
HETATM   25  O6  UNL     1      10.229   3.738 -13.608  1.00  0.00    -0.307 OA
HETATM   26  H23 UNL     1      11.114   3.433 -13.843  1.00  0.00     0.222 HD
ENDBRANCH  23  25
BRANCH  23  27
HETATM   27  O7  UNL     1       9.139   5.636 -12.456  1.00  0.00    -0.195 OA
BRANCH  27  28
HETATM   28  P2  UNL     1       9.396   4.879 -11.078  1.00  0.00     0.401 P 
HETATM   29  O8  UNL     1      10.687   4.140 -10.943  1.00  0.00    -0.631 OA
BRANCH  28  30
HETATM   30  O9  UNL     1       9.184   6.024  -9.985  1.00  0.00    -0.307 OA
HETATM   31  H24 UNL     1       8.252   6.343  -9.911  1.00  0.00     0.222 HD
ENDBRANCH  28  30
BRANCH  28  32
HETATM   32  O10 UNL     1       8.071   4.015 -10.859  1.00  0.00    -0.294 OA
BRANCH  32  33
HETATM   33  C14 UNL     1       8.034   2.671 -11.263  1.00  0.00     0.215 C 
BRANCH  33  34
HETATM   34  C15 UNL     1       7.137   2.622 -12.499  1.00  0.00     0.180 C 
HETATM   35  C16 UNL     1       5.759   2.100 -12.114  1.00  0.00     0.197 C 
HETATM   36  C17 UNL     1       5.601   0.814 -12.905  1.00  0.00     0.199 C 
HETATM   37  C18 UNL     1       6.537   1.049 -14.093  1.00  0.00     0.262 C 
HETATM   38  O11 UNL     1       7.653   1.774 -13.531  1.00  0.00    -0.353 OA
BRANCH  35  39
HETATM   39  O13 UNL     1       4.796   3.080 -12.486  1.00  0.00    -0.286 OA
BRANCH  39  40
HETATM   40  P3  UNL     1       3.838   3.586 -11.311  1.00  0.00     0.391 P 
HETATM   41  O14 UNL     1       4.338   4.808 -10.610  1.00  0.00    -0.632 OA
BRANCH  40  42
HETATM   42  O15 UNL     1       3.689   2.246 -10.449  1.00  0.00    -0.307 OA
HETATM   43  H36 UNL     1       3.208   1.554 -10.962  1.00  0.00     0.222 HD
ENDBRANCH  40  42
BRANCH  40  44
HETATM   44  O16 UNL     1       2.441   3.689 -12.065  1.00  0.00    -0.307 OA
HETATM   45  H37 UNL     1       1.815   2.999 -11.793  1.00  0.00     0.222 HD
ENDBRANCH  40  44
ENDBRANCH  39  40
ENDBRANCH  35  39
BRANCH  36  46
HETATM   46  O12 UNL     1       4.221   0.575 -13.192  1.00  0.00    -0.388 OA
HETATM   47  H35 UNL     1       4.080   0.854 -14.128  1.00  0.00     0.210 HD
ENDBRANCH  36  46
BRANCH  37  48
HETATM   48  N3  UNL     1       7.026  -0.188 -14.669  1.00  0.00    -0.297 N 
HETATM   49  C19 UNL     1       6.851  -0.630 -15.959  1.00  0.00     0.188 A 
HETATM   50  N4  UNL     1       7.526  -1.732 -16.204  1.00  0.00    -0.346 N 
HETATM   51  C20 UNL     1       8.175  -2.015 -15.016  1.00  0.00     0.116 A 
HETATM   52  H4  UNL     1       7.563  -2.260 -17.076  1.00  0.00     0.167 HD
HETATM   53  C21 UNL     1       9.077  -3.026 -14.640  1.00  0.00     0.109 A 
HETATM   54  C23 UNL     1       7.843  -1.088 -14.045  1.00  0.00     0.142 A 
HETATM   55  N5  UNL     1       9.541  -3.040 -13.366  1.00  0.00    -0.341 N 
HETATM   56  C22 UNL     1       9.111  -2.084 -12.519  1.00  0.00     0.183 A 
HETATM   57  H5  UNL     1      10.199  -3.756 -13.058  1.00  0.00     0.167 HD
HETATM   58  N6  UNL     1       8.262  -1.066 -12.767  1.00  0.00    -0.336 N 
HETATM   59  H6  UNL     1       7.975  -0.372 -12.076  1.00  0.00     0.168 HD
BRANCH  53  60
HETATM   60  N7  UNL     1       9.511  -4.020 -15.503  1.00  0.00    -0.287 NA
HETATM   61  H33 UNL     1       8.937  -4.860 -15.496  1.00  0.00     0.125 HD
HETATM   62  H34 UNL     1      10.513  -4.152 -15.479  1.00  0.00     0.125 HD
ENDBRANCH  53  60
ENDBRANCH  37  48
ENDBRANCH  33  34
ENDBRANCH  32  33
ENDBRANCH  28  32
ENDBRANCH  27  28
ENDBRANCH  23  27
ENDBRANCH  22  23
ENDBRANCH  21  22
ENDBRANCH  18  21
ENDBRANCH  17  18
BRANCH  17  63
HETATM   63  O17 UNL     1       9.349   2.216 -15.913  1.00  0.00    -0.385 OA
HETATM   64  H38 UNL     1       9.285   2.633 -15.038  1.00  0.00     0.210 HD
ENDBRANCH  17  63
ENDBRANCH  14  17
ENDBRANCH  12  13
ENDBRANCH  11  12
ENDBRANCH   8  11
ENDBRANCH   6   7
ENDBRANCH   5   6
ENDBRANCH   4   5
ENDBRANCH   2   4
TORSDOF 27
ENDMDL
MODEL 6
REMARK VINA RESULT:      -6.4      3.313      8.012
REMARK  27 active torsions:
REMARK  status: ('A' for Active; 'I' for Inactive)
REMARK    1  A    between atoms: C2_2  and  S1_4 
REMARK    2  A    between atoms: S1_4  and  C3_5 
REMARK    3  A    between atoms: C3_5  and  C4_6 
REMARK    4  A    between atoms: C4_6  and  N1_7 
REMARK       I    between atoms: N1_7  and  C5_8 
REMARK    5  A    between atoms: C5_8  and  C6_10 
REMARK    6  A    between atoms: C6_10  and  C7_11 
REMARK    7  A    between atoms: C7_11  and  N2_12 
REMARK       I    between atoms: N2_12  and  C8_13 
REMARK    8  A    between atoms: C8_13  and  C9_15 
REMARK    9  A    between atoms: C9_15  and  C10_16 
REMARK   10  A    between atoms: C9_15  and  O17_54 
REMARK   11  A    between atoms: C10_16  and  C13_19 
REMARK   12  A    between atoms: C13_19  and  O4_20 
REMARK   13  A    between atoms: O4_20  and  P1_21 
REMARK   14  A    between atoms: P1_21  and  O6_23 
REMARK   15  A    between atoms: P1_21  and  O7_24 
REMARK   16  A    between atoms: O7_24  and  P2_25 
REMARK   17  A    between atoms: P2_25  and  O9_27 
REMARK   18  A    between atoms: P2_25  and  O10_28 
REMARK   19  A    between atoms: O10_28  and  C14_29 
REMARK   20  A    between atoms: C14_29  and  C15_30 
REMARK   21  A    between atoms: C16_31  and  O13_49 
REMARK   22  A    between atoms: C17_32  and  O12_48 
REMARK   23  A    between atoms: C18_33  and  N3_35 
REMARK   24  A    between atoms: C21_40  and  N7_47 
REMARK   25  A    between atoms: O13_49  and  P3_50 
REMARK   26  A    between atoms: P3_50  and  O15_52 
REMARK   27  A    between atoms: P3_50  and  O16_53 
ROOT
HETATM    1  C1  UNL     1       6.736  -1.350 -18.834  1.00  0.00     0.104 C 
HETATM    2  C2  UNL     1       7.109  -1.316 -20.285  1.00  0.00     0.182 C 
HETATM    3  O1  UNL     1       6.535  -0.610 -21.112  1.00  0.00    -0.286 OA
ENDROOT
BRANCH   2   4
HETATM    4  S1  UNL     1       8.417  -2.405 -20.724  1.00  0.00    -0.091 SA
BRANCH   4   5
HETATM    5  C3  UNL     1       9.320  -1.363 -21.916  1.00  0.00     0.102 C 
BRANCH   5   6
HETATM    6  C4  UNL     1      10.329  -0.447 -21.222  1.00  0.00     0.133 C 
BRANCH   6   7
HETATM    7  N1  UNL     1      10.232   0.929 -21.664  1.00  0.00    -0.360 N 
HETATM    8  C5  UNL     1       9.507   1.864 -20.963  1.00  0.00     0.219 C 
HETATM    9  O2  UNL     1       8.839   1.578 -19.976  1.00  0.00    -0.274 OA
HETATM   10  H8  UNL     1      10.717   1.205 -22.507  1.00  0.00     0.162 HD
BRANCH   8  11
HETATM   11  C6  UNL     1       9.580   3.252 -21.563  1.00  0.00     0.122 C 
BRANCH  11  12
HETATM   12  C7  UNL     1       9.788   4.326 -20.495  1.00  0.00     0.132 C 
BRANCH  12  13
HETATM   13  N2  UNL     1      10.476   3.832 -19.321  1.00  0.00    -0.358 N 
HETATM   14  C8  UNL     1      10.030   4.174 -18.057  1.00  0.00     0.247 C 
HETATM   15  O3  UNL     1       9.129   4.985 -17.881  1.00  0.00    -0.271 OA
HETATM   16  H13 UNL     1      10.928   2.926 -19.426  1.00  0.00     0.162 HD
BRANCH  14  17
HETATM   17  C9  UNL     1      10.737   3.443 -16.906  1.00  0.00     0.219 C 
BRANCH  17  18
HETATM   18  C10 UNL     1      11.614   4.356 -16.008  1.00  0.00     0.009 C 
HETATM   19  C11 UNL     1      12.772   3.585 -15.358  1.00  0.00     0.020 C 
HETATM   20  C12 UNL     1      12.214   5.528 -16.810  1.00  0.00     0.020 C 
BRANCH  18  21
HETATM   21  C13 UNL     1      10.667   4.906 -14.904  1.00  0.00     0.192 C 
BRANCH  21  22
HETATM   22  O4  UNL     1      10.904   4.308 -13.645  1.00  0.00    -0.296 OA
BRANCH  22  23
HETATM   23  P1  UNL     1      11.330   5.150 -12.348  1.00  0.00     0.401 P 
HETATM   24  O5  UNL     1      11.193   6.631 -12.508  1.00  0.00    -0.631 OA
BRANCH  23  25
HETATM   25  O6  UNL     1      12.817   4.674 -11.953  1.00  0.00    -0.307 OA
HETATM   26  H23 UNL     1      13.390   4.600 -12.727  1.00  0.00     0.222 HD
ENDBRANCH  23  25
BRANCH  23  27
HETATM   27  O7  UNL     1      10.480   4.528 -11.157  1.00  0.00    -0.195 OA
BRANCH  27  28
HETATM   28  P2  UNL     1       9.224   5.337 -10.603  1.00  0.00     0.401 P 
HETATM   29  O8  UNL     1       9.506   6.464  -9.664  1.00  0.00    -0.631 OA
BRANCH  28  30
HETATM   30  O9  UNL     1       8.453   5.772 -11.931  1.00  0.00    -0.307 OA
HETATM   31  H24 UNL     1       8.183   6.723 -11.948  1.00  0.00     0.222 HD
ENDBRANCH  28  30
BRANCH  28  32
HETATM   32  O10 UNL     1       8.245   4.201 -10.054  1.00  0.00    -0.294 OA
BRANCH  32  33
HETATM   33  C14 UNL     1       7.854   3.145 -10.892  1.00  0.00     0.215 C 
BRANCH  33  34
HETATM   34  C15 UNL     1       6.548   3.584 -11.552  1.00  0.00     0.180 C 
HETATM   35  C16 UNL     1       5.676   4.311 -10.536  1.00  0.00     0.197 C 
HETATM   36  C17 UNL     1       4.427   3.457 -10.422  1.00  0.00     0.199 C 
HETATM   37  C18 UNL     1       4.399   2.744 -11.776  1.00  0.00     0.262 C 
HETATM   38  O11 UNL     1       5.789   2.488 -12.074  1.00  0.00    -0.353 OA
BRANCH  35  39
HETATM   39  O13 UNL     1       5.394   5.610 -11.046  1.00  0.00    -0.286 OA
BRANCH  39  40
HETATM   40  P3  UNL     1       5.693   6.822 -10.047  1.00  0.00     0.391 P 
HETATM   41  O14 UNL     1       6.469   7.938 -10.669  1.00  0.00    -0.632 OA
BRANCH  40  42
HETATM   42  O15 UNL     1       6.369   6.042  -8.824  1.00  0.00    -0.307 OA
HETATM   43  H36 UNL     1       7.204   6.486  -8.546  1.00  0.00     0.222 HD
ENDBRANCH  40  42
BRANCH  40  44
HETATM   44  O16 UNL     1       4.235   7.151  -9.505  1.00  0.00    -0.307 OA
HETATM   45  H37 UNL     1       4.210   7.276  -8.543  1.00  0.00     0.222 HD
ENDBRANCH  40  44
ENDBRANCH  39  40
ENDBRANCH  35  39
BRANCH  36  46
HETATM   46  O12 UNL     1       3.300   4.270 -10.084  1.00  0.00    -0.388 OA
HETATM   47  H35 UNL     1       2.611   3.658  -9.733  1.00  0.00     0.210 HD
ENDBRANCH  36  46
BRANCH  37  48
HETATM   48  N3  UNL     1       3.692   1.480 -11.725  1.00  0.00    -0.297 N 
HETATM   49  C19 UNL     1       2.850   1.039 -10.731  1.00  0.00     0.188 A 
HETATM   50  N4  UNL     1       2.266  -0.098 -11.041  1.00  0.00    -0.346 N 
HETATM   51  C20 UNL     1       2.749  -0.407 -12.300  1.00  0.00     0.116 A 
HETATM   52  H4  UNL     1       1.604  -0.633 -10.479  1.00  0.00     0.167 HD
HETATM   53  C21 UNL     1       2.483  -1.461 -13.191  1.00  0.00     0.109 A 
HETATM   54  C23 UNL     1       3.664   0.543 -12.719  1.00  0.00     0.142 A 
HETATM   55  N5  UNL     1       3.141  -1.491 -14.376  1.00  0.00    -0.341 N 
HETATM   56  C22 UNL     1       4.025  -0.508 -14.641  1.00  0.00     0.183 A 
HETATM   57  H5  UNL     1       2.971  -2.238 -15.050  1.00  0.00     0.167 HD
HETATM   58  N6  UNL     1       4.354   0.551 -13.873  1.00  0.00    -0.336 N 
HETATM   59  H6  UNL     1       5.036   1.264 -14.133  1.00  0.00     0.168 HD
BRANCH  53  60
HETATM   60  N7  UNL     1       1.586  -2.481 -12.918  1.00  0.00    -0.287 NA
HETATM   61  H33 UNL     1       1.056  -2.355 -12.059  1.00  0.00     0.125 HD
HETATM   62  H34 UNL     1       1.973  -3.401 -13.084  1.00  0.00     0.125 HD
ENDBRANCH  53  60
ENDBRANCH  37  48
ENDBRANCH  33  34
ENDBRANCH  32  33
ENDBRANCH  28  32
ENDBRANCH  27  28
ENDBRANCH  23  27
ENDBRANCH  22  23
ENDBRANCH  21  22
ENDBRANCH  18  21
ENDBRANCH  17  18
BRANCH  17  63
HETATM   63  O17 UNL     1       9.774   2.781 -16.077  1.00  0.00    -0.385 OA
HETATM   64  H38 UNL     1       8.912   2.823 -16.524  1.00  0.00     0.210 HD
ENDBRANCH  17  63
ENDBRANCH  14  17
ENDBRANCH  12  13
ENDBRANCH  11  12
ENDBRANCH   8  11
ENDBRANCH   6   7
ENDBRANCH   5   6
ENDBRANCH   4   5
ENDBRANCH   2   4
TORSDOF 27
ENDMDL
MODEL 7
REMARK VINA RESULT:      -6.1      4.764      7.882
REMARK  27 active torsions:
REMARK  status: ('A' for Active; 'I' for Inactive)
REMARK    1  A    between atoms: C2_2  and  S1_4 
REMARK    2  A    between atoms: S1_4  and  C3_5 
REMARK    3  A    between atoms: C3_5  and  C4_6 
REMARK    4  A    between atoms: C4_6  and  N1_7 
REMARK       I    between atoms: N1_7  and  C5_8 
REMARK    5  A    between atoms: C5_8  and  C6_10 
REMARK    6  A    between atoms: C6_10  and  C7_11 
REMARK    7  A    between atoms: C7_11  and  N2_12 
REMARK       I    between atoms: N2_12  and  C8_13 
REMARK    8  A    between atoms: C8_13  and  C9_15 
REMARK    9  A    between atoms: C9_15  and  C10_16 
REMARK   10  A    between atoms: C9_15  and  O17_54 
REMARK   11  A    between atoms: C10_16  and  C13_19 
REMARK   12  A    between atoms: C13_19  and  O4_20 
REMARK   13  A    between atoms: O4_20  and  P1_21 
REMARK   14  A    between atoms: P1_21  and  O6_23 
REMARK   15  A    between atoms: P1_21  and  O7_24 
REMARK   16  A    between atoms: O7_24  and  P2_25 
REMARK   17  A    between atoms: P2_25  and  O9_27 
REMARK   18  A    between atoms: P2_25  and  O10_28 
REMARK   19  A    between atoms: O10_28  and  C14_29 
REMARK   20  A    between atoms: C14_29  and  C15_30 
REMARK   21  A    between atoms: C16_31  and  O13_49 
REMARK   22  A    between atoms: C17_32  and  O12_48 
REMARK   23  A    between atoms: C18_33  and  N3_35 
REMARK   24  A    between atoms: C21_40  and  N7_47 
REMARK   25  A    between atoms: O13_49  and  P3_50 
REMARK   26  A    between atoms: P3_50  and  O15_52 
REMARK   27  A    between atoms: P3_50  and  O16_53 
ROOT
HETATM    1  C1  UNL     1       1.666   4.383  -8.625  1.00  0.00     0.104 C 
HETATM    2  C2  UNL     1       1.313   3.312  -9.611  1.00  0.00     0.182 C 
HETATM    3  O1  UNL     1       0.166   3.103  -9.998  1.00  0.00    -0.286 OA
ENDROOT
BRANCH   2   4
HETATM    4  S1  UNL     1       2.678   2.342 -10.146  1.00  0.00    -0.091 SA
BRANCH   4   5
HETATM    5  C3  UNL     1       2.715   2.782 -11.914  1.00  0.00     0.102 C 
BRANCH   5   6
HETATM    6  C4  UNL     1       4.076   2.487 -12.547  1.00  0.00     0.133 C 
BRANCH   6   7
HETATM    7  N1  UNL     1       4.730   1.338 -11.956  1.00  0.00    -0.360 N 
HETATM    8  C5  UNL     1       5.547   0.512 -12.692  1.00  0.00     0.219 C 
HETATM    9  O2  UNL     1       5.707   0.647 -13.899  1.00  0.00    -0.274 OA
HETATM   10  H8  UNL     1       4.585   1.147 -10.973  1.00  0.00     0.162 HD
BRANCH   8  11
HETATM   11  C6  UNL     1       6.175  -0.595 -11.872  1.00  0.00     0.122 C 
BRANCH  11  12
HETATM   12  C7  UNL     1       7.297  -1.302 -12.633  1.00  0.00     0.132 C 
BRANCH  12  13
HETATM   13  N2  UNL     1       6.828  -2.013 -13.804  1.00  0.00    -0.358 N 
HETATM   14  C8  UNL     1       7.674  -2.223 -14.877  1.00  0.00     0.247 C 
HETATM   15  O3  UNL     1       8.791  -1.724 -14.933  1.00  0.00    -0.271 OA
HETATM   16  H13 UNL     1       6.111  -2.716 -13.632  1.00  0.00     0.162 HD
BRANCH  14  17
HETATM   17  C9  UNL     1       7.110  -3.139 -15.973  1.00  0.00     0.219 C 
BRANCH  17  18
HETATM   18  C10 UNL     1       6.203  -2.422 -17.007  1.00  0.00     0.009 C 
HETATM   19  C11 UNL     1       5.866  -3.322 -18.205  1.00  0.00     0.020 C 
HETATM   20  C12 UNL     1       4.876  -1.961 -16.372  1.00  0.00     0.020 C 
BRANCH  18  21
HETATM   21  C13 UNL     1       7.009  -1.184 -17.495  1.00  0.00     0.192 C 
BRANCH  21  22
HETATM   22  O4  UNL     1       7.808  -1.472 -18.625  1.00  0.00    -0.296 OA
BRANCH  22  23
HETATM   23  P1  UNL     1       9.338  -1.010 -18.750  1.00  0.00     0.401 P 
HETATM   24  O5  UNL     1       9.963  -1.316 -20.074  1.00  0.00    -0.631 OA
BRANCH  23  25
HETATM   25  O6  UNL     1      10.122  -1.650 -17.498  1.00  0.00    -0.307 OA
HETATM   26  H23 UNL     1      10.745  -2.334 -17.773  1.00  0.00     0.222 HD
ENDBRANCH  23  25
BRANCH  23  27
HETATM   27  O7  UNL     1       9.335   0.532 -18.357  1.00  0.00    -0.195 OA
BRANCH  27  28
HETATM   28  P2  UNL     1      10.690   1.360 -18.479  1.00  0.00     0.401 P 
HETATM   29  O8  UNL     1      11.911   0.753 -17.869  1.00  0.00    -0.631 OA
BRANCH  28  30
HETATM   30  O9  UNL     1      10.813   1.635 -20.047  1.00  0.00    -0.307 OA
HETATM   31  H24 UNL     1      10.539   0.872 -20.613  1.00  0.00     0.222 HD
ENDBRANCH  28  30
BRANCH  28  32
HETATM   32  O10 UNL     1      10.300   2.818 -17.955  1.00  0.00    -0.294 OA
BRANCH  32  33
HETATM   33  C14 UNL     1       9.912   3.004 -16.619  1.00  0.00     0.215 C 
BRANCH  33  34
HETATM   34  C15 UNL     1      10.632   4.262 -16.137  1.00  0.00     0.180 C 
HETATM   35  C16 UNL     1      12.003   3.892 -15.587  1.00  0.00     0.197 C 
HETATM   36  C17 UNL     1      11.954   4.300 -14.127  1.00  0.00     0.199 C 
HETATM   37  C18 UNL     1      10.892   5.402 -14.135  1.00  0.00     0.262 C 
HETATM   38  O11 UNL     1       9.920   4.953 -15.105  1.00  0.00    -0.353 OA
BRANCH  35  39
HETATM   39  O13 UNL     1      12.983   4.624 -16.316  1.00  0.00    -0.286 OA
BRANCH  39  40
HETATM   40  P3  UNL     1      14.044   3.741 -17.123  1.00  0.00     0.391 P 
HETATM   41  O14 UNL     1      15.422   4.319 -17.138  1.00  0.00    -0.632 OA
BRANCH  40  42
HETATM   42  O15 UNL     1      13.293   3.580 -18.526  1.00  0.00    -0.307 OA
HETATM   43  H36 UNL     1      13.942   3.428 -19.254  1.00  0.00     0.222 HD
ENDBRANCH  40  42
BRANCH  40  44
HETATM   44  O16 UNL     1      13.850   2.317 -16.443  1.00  0.00    -0.307 OA
HETATM   45  H37 UNL     1      12.922   2.033 -16.421  1.00  0.00     0.222 HD
ENDBRANCH  40  44
ENDBRANCH  39  40
ENDBRANCH  35  39
BRANCH  36  46
HETATM   46  O12 UNL     1      13.261   4.651 -13.665  1.00  0.00    -0.388 OA
HETATM   47  H35 UNL     1      13.214   4.664 -12.680  1.00  0.00     0.210 HD
ENDBRANCH  36  46
BRANCH  37  48
HETATM   48  N3  UNL     1      10.235   5.551 -12.851  1.00  0.00    -0.297 N 
HETATM   49  C19 UNL     1      10.216   6.670 -12.053  1.00  0.00     0.188 A 
HETATM   50  N4  UNL     1       9.426   6.526 -11.011  1.00  0.00    -0.346 N 
HETATM   51  C20 UNL     1       8.904   5.251 -11.143  1.00  0.00     0.116 A 
HETATM   52  H4  UNL     1       9.240   7.202 -10.271  1.00  0.00     0.167 HD
HETATM   53  C21 UNL     1       7.973   4.520 -10.385  1.00  0.00     0.109 A 
HETATM   54  C23 UNL     1       9.427   4.622 -12.258  1.00  0.00     0.142 A 
HETATM   55  N5  UNL     1       7.666   3.259 -10.776  1.00  0.00    -0.341 N 
HETATM   56  C22 UNL     1       8.274   2.765 -11.873  1.00  0.00     0.183 A 
HETATM   57  H5  UNL     1       6.993   2.698 -10.253  1.00  0.00     0.167 HD
HETATM   58  N6  UNL     1       9.169   3.371 -12.679  1.00  0.00    -0.336 N 
HETATM   59  H6  UNL     1       9.594   2.939 -13.500  1.00  0.00     0.168 HD
BRANCH  53  60
HETATM   60  N7  UNL     1       7.357   5.017  -9.248  1.00  0.00    -0.287 NA
HETATM   61  H33 UNL     1       6.340   5.000  -9.281  1.00  0.00     0.125 HD
HETATM   62  H34 UNL     1       7.787   5.866  -8.905  1.00  0.00     0.125 HD
ENDBRANCH  53  60
ENDBRANCH  37  48
ENDBRANCH  33  34
ENDBRANCH  32  33
ENDBRANCH  28  32
ENDBRANCH  27  28
ENDBRANCH  23  27
ENDBRANCH  22  23
ENDBRANCH  21  22
ENDBRANCH  18  21
ENDBRANCH  17  18
BRANCH  17  63
HETATM   63  O17 UNL     1       8.178  -3.783 -16.675  1.00  0.00    -0.385 OA
HETATM   64  H38 UNL     1       8.944  -3.833 -16.079  1.00  0.00     0.210 HD
ENDBRANCH  17  63
ENDBRANCH  14  17
ENDBRANCH  12  13
ENDBRANCH  11  12
ENDBRANCH   8  11
ENDBRANCH   6   7
ENDBRANCH   5   6
ENDBRANCH   4   5
ENDBRANCH   2   4
TORSDOF 27
ENDMDL
MODEL 8
REMARK VINA RESULT:      -6.0      8.075     12.145
REMARK  27 active torsions:
REMARK  status: ('A' for Active; 'I' for Inactive)
REMARK    1  A    between atoms: C2_2  and  S1_4 
REMARK    2  A    between atoms: S1_4  and  C3_5 
REMARK    3  A    between atoms: C3_5  and  C4_6 
REMARK    4  A    between atoms: C4_6  and  N1_7 
REMARK       I    between atoms: N1_7  and  C5_8 
REMARK    5  A    between atoms: C5_8  and  C6_10 
REMARK    6  A    between atoms: C6_10  and  C7_11 
REMARK    7  A    between atoms: C7_11  and  N2_12 
REMARK       I    between atoms: N2_12  and  C8_13 
REMARK    8  A    between atoms: C8_13  and  C9_15 
REMARK    9  A    between atoms: C9_15  and  C10_16 
REMARK   10  A    between atoms: C9_15  and  O17_54 
REMARK   11  A    between atoms: C10_16  and  C13_19 
REMARK   12  A    between atoms: C13_19  and  O4_20 
REMARK   13  A    between atoms: O4_20  and  P1_21 
REMARK   14  A    between atoms: P1_21  and  O6_23 
REMARK   15  A    between atoms: P1_21  and  O7_24 
REMARK   16  A    between atoms: O7_24  and  P2_25 
REMARK   17  A    between atoms: P2_25  and  O9_27 
REMARK   18  A    between atoms: P2_25  and  O10_28 
REMARK   19  A    between atoms: O10_28  and  C14_29 
REMARK   20  A    between atoms: C14_29  and  C15_30 
REMARK   21  A    between atoms: C16_31  and  O13_49 
REMARK   22  A    between atoms: C17_32  and  O12_48 
REMARK   23  A    between atoms: C18_33  and  N3_35 
REMARK   24  A    between atoms: C21_40  and  N7_47 
REMARK   25  A    between atoms: O13_49  and  P3_50 
REMARK   26  A    between atoms: P3_50  and  O15_52 
REMARK   27  A    between atoms: P3_50  and  O16_53 
ROOT
HETATM    1  C1  UNL     1       5.317   8.246  -8.695  1.00  0.00     0.104 C 
HETATM    2  C2  UNL     1       5.906   7.699  -9.959  1.00  0.00     0.182 C 
HETATM    3  O1  UNL     1       6.534   8.384 -10.762  1.00  0.00    -0.286 OA
ENDROOT
BRANCH   2   4
HETATM    4  S1  UNL     1       5.589   5.990 -10.225  1.00  0.00    -0.091 SA
BRANCH   4   5
HETATM    5  C3  UNL     1       7.074   5.262  -9.462  1.00  0.00     0.102 C 
BRANCH   5   6
HETATM    6  C4  UNL     1       8.297   6.168  -9.618  1.00  0.00     0.133 C 
BRANCH   6   7
HETATM    7  N1  UNL     1       8.822   6.171 -10.968  1.00  0.00    -0.360 N 
HETATM    8  C5  UNL     1      10.119   5.802 -11.241  1.00  0.00     0.219 C 
HETATM    9  O2  UNL     1      10.927   5.530 -10.361  1.00  0.00    -0.274 OA
HETATM   10  H8  UNL     1       8.213   6.444 -11.727  1.00  0.00     0.162 HD
BRANCH   8  11
HETATM   11  C6  UNL     1      10.449   5.821 -12.718  1.00  0.00     0.122 C 
BRANCH  11  12
HETATM   12  C7  UNL     1      11.455   4.732 -13.092  1.00  0.00     0.132 C 
BRANCH  12  13
HETATM   13  N2  UNL     1      11.185   4.129 -14.380  1.00  0.00    -0.358 N 
HETATM   14  C8  UNL     1      12.198   3.992 -15.311  1.00  0.00     0.247 C 
HETATM   15  O3  UNL     1      13.311   4.470 -15.138  1.00  0.00    -0.271 OA
HETATM   16  H13 UNL     1      10.445   3.430 -14.390  1.00  0.00     0.162 HD
BRANCH  14  17
HETATM   17  C9  UNL     1      11.820   3.179 -16.559  1.00  0.00     0.219 C 
BRANCH  17  18
HETATM   18  C10 UNL     1      11.358   4.035 -17.767  1.00  0.00     0.009 C 
HETATM   19  C11 UNL     1      10.094   3.465 -18.430  1.00  0.00     0.020 C 
HETATM   20  C12 UNL     1      11.060   5.489 -17.349  1.00  0.00     0.020 C 
BRANCH  18  21
HETATM   21  C13 UNL     1      12.536   4.011 -18.783  1.00  0.00     0.192 C 
BRANCH  21  22
HETATM   22  O4  UNL     1      13.457   5.060 -18.563  1.00  0.00    -0.296 OA
BRANCH  22  23
HETATM   23  P1  UNL     1      15.044   4.836 -18.546  1.00  0.00     0.401 P 
HETATM   24  O5  UNL     1      15.564   4.048 -19.707  1.00  0.00    -0.631 OA
BRANCH  23  25
HETATM   25  O6  UNL     1      15.408   4.197 -17.113  1.00  0.00    -0.307 OA
HETATM   26  H23 UNL     1      14.745   3.558 -16.824  1.00  0.00     0.222 HD
ENDBRANCH  23  25
BRANCH  23  27
HETATM   27  O7  UNL     1      15.664   6.294 -18.400  1.00  0.00    -0.195 OA
BRANCH  27  28
HETATM   28  P2  UNL     1      14.784   7.441 -17.732  1.00  0.00     0.401 P 
HETATM   29  O8  UNL     1      13.837   8.175 -18.624  1.00  0.00    -0.631 OA
BRANCH  28  30
HETATM   30  O9  UNL     1      14.081   6.697 -16.507  1.00  0.00    -0.307 OA
HETATM   31  H24 UNL     1      14.547   5.878 -16.211  1.00  0.00     0.222 HD
ENDBRANCH  28  30
BRANCH  28  32
HETATM   32  O10 UNL     1      15.850   8.342 -16.955  1.00  0.00    -0.294 OA
BRANCH  32  33
HETATM   33  C14 UNL     1      15.700   8.579 -15.580  1.00  0.00     0.215 C 
BRANCH  33  34
HETATM   34  C15 UNL     1      16.671   9.706 -15.233  1.00  0.00     0.180 C 
HETATM   35  C16 UNL     1      17.132  10.400 -16.507  1.00  0.00     0.197 C 
HETATM   36  C17 UNL     1      18.631  10.170 -16.550  1.00  0.00     0.199 C 
HETATM   37  C18 UNL     1      18.969   9.971 -15.070  1.00  0.00     0.262 C 
HETATM   38  O11 UNL     1      17.837   9.246 -14.540  1.00  0.00    -0.353 OA
BRANCH  35  39
HETATM   39  O13 UNL     1      16.804  11.782 -16.401  1.00  0.00    -0.286 OA
BRANCH  39  40
HETATM   40  P3  UNL     1      15.824  12.346 -17.531  1.00  0.00     0.391 P 
HETATM   41  O14 UNL     1      14.774  13.273 -17.010  1.00  0.00    -0.632 OA
BRANCH  40  42
HETATM   42  O15 UNL     1      15.338  10.983 -18.213  1.00  0.00    -0.307 OA
HETATM   43  H36 UNL     1      15.507  11.000 -19.185  1.00  0.00     0.222 HD
ENDBRANCH  40  42
BRANCH  40  44
HETATM   44  O16 UNL     1      16.862  12.928 -18.586  1.00  0.00    -0.307 OA
HETATM   45  H37 UNL     1      16.636  12.700 -19.502  1.00  0.00     0.222 HD
ENDBRANCH  40  44
ENDBRANCH  39  40
ENDBRANCH  35  39
BRANCH  36  46
HETATM   46  O12 UNL     1      19.279  11.247 -17.232  1.00  0.00    -0.388 OA
HETATM   47  H35 UNL     1      18.585  11.688 -17.778  1.00  0.00     0.210 HD
ENDBRANCH  36  46
BRANCH  37  48
HETATM   48  N3  UNL     1      20.165   9.176 -14.874  1.00  0.00    -0.297 N 
HETATM   49  C19 UNL     1      21.385   9.611 -14.413  1.00  0.00     0.188 A 
HETATM   50  N4  UNL     1      22.230   8.620 -14.227  1.00  0.00    -0.346 N 
HETATM   51  C20 UNL     1      21.520   7.486 -14.582  1.00  0.00     0.116 A 
HETATM   52  H4  UNL     1      23.193   8.674 -13.896  1.00  0.00     0.167 HD
HETATM   53  C21 UNL     1      21.842   6.118 -14.567  1.00  0.00     0.109 A 
HETATM   54  C23 UNL     1      20.253   7.820 -15.022  1.00  0.00     0.142 A 
HETATM   55  N5  UNL     1      20.913   5.228 -14.996  1.00  0.00    -0.341 N 
HETATM   56  C22 UNL     1      19.724   5.701 -15.420  1.00  0.00     0.183 A 
HETATM   57  H5  UNL     1      21.109   4.227 -14.997  1.00  0.00     0.167 HD
HETATM   58  N6  UNL     1      19.302   6.981 -15.471  1.00  0.00    -0.336 N 
HETATM   59  H6  UNL     1      18.384   7.275 -15.806  1.00  0.00     0.168 HD
BRANCH  53  60
HETATM   60  N7  UNL     1      23.067   5.627 -14.146  1.00  0.00    -0.287 NA
HETATM   61  H33 UNL     1      23.109   4.613 -14.071  1.00  0.00     0.125 HD
HETATM   62  H34 UNL     1      23.463   6.157 -13.381  1.00  0.00     0.125 HD
ENDBRANCH  53  60
ENDBRANCH  37  48
ENDBRANCH  33  34
ENDBRANCH  32  33
ENDBRANCH  28  32
ENDBRANCH  27  28
ENDBRANCH  23  27
ENDBRANCH  22  23
ENDBRANCH  21  22
ENDBRANCH  18  21
ENDBRANCH  17  18
BRANCH  17  63
HETATM   63  O17 UNL     1      12.926   2.369 -16.973  1.00  0.00    -0.385 OA
HETATM   64  H38 UNL     1      12.865   2.245 -17.935  1.00  0.00     0.210 HD
ENDBRANCH  17  63
ENDBRANCH  14  17
ENDBRANCH  12  13
ENDBRANCH  11  12
ENDBRANCH   8  11
ENDBRANCH   6   7
ENDBRANCH   5   6
ENDBRANCH   4   5
ENDBRANCH   2   4
TORSDOF 27
ENDMDL
MODEL 9
REMARK VINA RESULT:      -6.0      5.114      7.471
REMARK  27 active torsions:
REMARK  status: ('A' for Active; 'I' for Inactive)
REMARK    1  A    between atoms: C2_2  and  S1_4 
REMARK    2  A    between atoms: S1_4  and  C3_5 
REMARK    3  A    between atoms: C3_5  and  C4_6 
REMARK    4  A    between atoms: C4_6  and  N1_7 
REMARK       I    between atoms: N1_7  and  C5_8 
REMARK    5  A    between atoms: C5_8  and  C6_10 
REMARK    6  A    between atoms: C6_10  and  C7_11 
REMARK    7  A    between atoms: C7_11  and  N2_12 
REMARK       I    between atoms: N2_12  and  C8_13 
REMARK    8  A    between atoms: C8_13  and  C9_15 
REMARK    9  A    between atoms: C9_15  and  C10_16 
REMARK   10  A    between atoms: C9_15  and  O17_54 
REMARK   11  A    between atoms: C10_16  and  C13_19 
REMARK   12  A    between atoms: C13_19  and  O4_20 
REMARK   13  A    between atoms: O4_20  and  P1_21 
REMARK   14  A    between atoms: P1_21  and  O6_23 
REMARK   15  A    between atoms: P1_21  and  O7_24 
REMARK   16  A    between atoms: O7_24  and  P2_25 
REMARK   17  A    between atoms: P2_25  and  O9_27 
REMARK   18  A    between atoms: P2_25  and  O10_28 
REMARK   19  A    between atoms: O10_28  and  C14_29 
REMARK   20  A    between atoms: C14_29  and  C15_30 
REMARK   21  A    between atoms: C16_31  and  O13_49 
REMARK   22  A    between atoms: C17_32  and  O12_48 
REMARK   23  A    between atoms: C18_33  and  N3_35 
REMARK   24  A    between atoms: C21_40  and  N7_47 
REMARK   25  A    between atoms: O13_49  and  P3_50 
REMARK   26  A    between atoms: P3_50  and  O15_52 
REMARK   27  A    between atoms: P3_50  and  O16_53 
ROOT
HETATM    1  C1  UNL     1       9.601  -1.294 -18.616  1.00  0.00     0.104 C 
HETATM    2  C2  UNL     1       9.540  -2.282 -17.491  1.00  0.00     0.182 C 
HETATM    3  O1  UNL     1       9.088  -2.013 -16.381  1.00  0.00    -0.286 OA
ENDROOT
BRANCH   2   4
HETATM    4  S1  UNL     1      10.209  -3.862 -17.877  1.00  0.00    -0.091 SA
BRANCH   4   5
HETATM    5  C3  UNL     1      11.906  -3.657 -17.246  1.00  0.00     0.102 C 
BRANCH   5   6
HETATM    6  C4  UNL     1      12.086  -4.308 -15.874  1.00  0.00     0.133 C 
BRANCH   6   7
HETATM    7  N1  UNL     1      10.825  -4.589 -15.218  1.00  0.00    -0.360 N 
HETATM    8  C5  UNL     1      10.487  -4.003 -14.020  1.00  0.00     0.219 C 
HETATM    9  O2  UNL     1      11.255  -3.279 -13.399  1.00  0.00    -0.274 OA
HETATM   10  H8  UNL     1      10.178  -5.227 -15.661  1.00  0.00     0.162 HD
BRANCH   8  11
HETATM   11  C6  UNL     1       9.105  -4.387 -13.535  1.00  0.00     0.122 C 
BRANCH  11  12
HETATM   12  C7  UNL     1       8.485  -3.299 -12.660  1.00  0.00     0.132 C 
BRANCH  12  13
HETATM   13  N2  UNL     1       8.381  -2.021 -13.331  1.00  0.00    -0.358 N 
HETATM   14  C8  UNL     1       7.167  -1.361 -13.391  1.00  0.00     0.247 C 
HETATM   15  O3  UNL     1       6.128  -1.873 -12.995  1.00  0.00    -0.271 OA
HETATM   16  H13 UNL     1       9.222  -1.447 -13.313  1.00  0.00     0.162 HD
BRANCH  14  17
HETATM   17  C9  UNL     1       7.234   0.059 -13.973  1.00  0.00     0.219 C 
BRANCH  17  18
HETATM   18  C10 UNL     1       7.158   1.191 -12.915  1.00  0.00     0.009 C 
HETATM   19  C11 UNL     1       5.729   1.726 -12.741  1.00  0.00     0.020 C 
HETATM   20  C12 UNL     1       7.656   0.710 -11.536  1.00  0.00     0.020 C 
BRANCH  18  21
HETATM   21  C13 UNL     1       8.081   2.328 -13.439  1.00  0.00     0.192 C 
BRANCH  21  22
HETATM   22  O4  UNL     1       8.067   3.464 -12.599  1.00  0.00    -0.296 OA
BRANCH  22  23
HETATM   23  P1  UNL     1       9.403   4.195 -12.099  1.00  0.00     0.401 P 
HETATM   24  O5  UNL     1       9.922   3.693 -10.788  1.00  0.00    -0.631 OA
BRANCH  23  25
HETATM   25  O6  UNL     1       9.103   5.776 -12.117  1.00  0.00    -0.307 OA
HETATM   26  H23 UNL     1       8.731   6.064 -12.960  1.00  0.00     0.222 HD
ENDBRANCH  23  25
BRANCH  23  27
HETATM   27  O7  UNL     1      10.423   4.060 -13.313  1.00  0.00    -0.195 OA
BRANCH  27  28
HETATM   28  P2  UNL     1      10.473   5.216 -14.408  1.00  0.00     0.401 P 
HETATM   29  O8  UNL     1       9.169   5.823 -14.812  1.00  0.00    -0.631 OA
BRANCH  28  30
HETATM   30  O9  UNL     1      11.514   6.259 -13.793  1.00  0.00    -0.307 OA
HETATM   31  H24 UNL     1      11.169   6.761 -13.014  1.00  0.00     0.222 HD
ENDBRANCH  28  30
BRANCH  28  32
HETATM   32  O10 UNL     1      11.348   4.591 -15.589  1.00  0.00    -0.294 OA
BRANCH  32  33
HETATM   33  C14 UNL     1      12.728   4.841 -15.649  1.00  0.00     0.215 C 
BRANCH  33  34
HETATM   34  C15 UNL     1      13.252   4.052 -16.848  1.00  0.00     0.180 C 
HETATM   35  C16 UNL     1      12.202   3.048 -17.304  1.00  0.00     0.197 C 
HETATM   36  C17 UNL     1      12.857   1.693 -17.112  1.00  0.00     0.199 C 
HETATM   37  C18 UNL     1      14.346   2.039 -17.203  1.00  0.00     0.262 C 
HETATM   38  O11 UNL     1      14.453   3.327 -16.559  1.00  0.00    -0.353 OA
BRANCH  35  39
HETATM   39  O13 UNL     1      11.904   3.311 -18.671  1.00  0.00    -0.286 OA
BRANCH  39  40
HETATM   40  P3  UNL     1      10.420   3.830 -18.965  1.00  0.00     0.391 P 
HETATM   41  O14 UNL     1       9.936   3.520 -20.344  1.00  0.00    -0.632 OA
BRANCH  40  42
HETATM   42  O15 UNL     1      10.556   5.371 -18.556  1.00  0.00    -0.307 OA
HETATM   43  H36 UNL     1       9.804   5.646 -17.980  1.00  0.00     0.222 HD
ENDBRANCH  40  42
BRANCH  40  44
HETATM   44  O16 UNL     1       9.619   3.201 -17.744  1.00  0.00    -0.307 OA
HETATM   45  H37 UNL     1      10.118   2.509 -17.282  1.00  0.00     0.222 HD
ENDBRANCH  40  44
ENDBRANCH  39  40
ENDBRANCH  35  39
BRANCH  36  46
HETATM   46  O12 UNL     1      12.342   0.754 -18.059  1.00  0.00    -0.388 OA
HETATM   47  H35 UNL     1      11.364   0.885 -18.076  1.00  0.00     0.210 HD
ENDBRANCH  36  46
BRANCH  37  48
HETATM   48  N3  UNL     1      15.181   1.091 -16.493  1.00  0.00    -0.297 N 
HETATM   49  C19 UNL     1      15.911   1.320 -15.349  1.00  0.00     0.188 A 
HETATM   50  N4  UNL     1      16.463   0.222 -14.882  1.00  0.00    -0.346 N 
HETATM   51  C20 UNL     1      16.068  -0.769 -15.763  1.00  0.00     0.116 A 
HETATM   52  H4  UNL     1      17.050   0.123 -14.054  1.00  0.00     0.167 HD
HETATM   53  C21 UNL     1      16.287  -2.157 -15.796  1.00  0.00     0.109 A 
HETATM   54  C23 UNL     1      15.306  -0.238 -16.787  1.00  0.00     0.142 A 
HETATM   55  N5  UNL     1      15.764  -2.873 -16.821  1.00  0.00    -0.341 N 
HETATM   56  C22 UNL     1      15.061  -2.215 -17.764  1.00  0.00     0.183 A 
HETATM   57  H5  UNL     1      15.899  -3.882 -16.877  1.00  0.00     0.167 HD
HETATM   58  N6  UNL     1      14.779  -0.898 -17.833  1.00  0.00    -0.336 N 
HETATM   59  H6  UNL     1      14.238  -0.461 -18.580  1.00  0.00     0.168 HD
BRANCH  53  60
HETATM   60  N7  UNL     1      17.022  -2.836 -14.836  1.00  0.00    -0.287 NA
HETATM   61  H33 UNL     1      17.358  -2.250 -14.075  1.00  0.00     0.125 HD
HETATM   62  H34 UNL     1      17.683  -3.489 -15.235  1.00  0.00     0.125 HD
ENDBRANCH  53  60
ENDBRANCH  37  48
ENDBRANCH  33  34
ENDBRANCH  32  33
ENDBRANCH  28  32
ENDBRANCH  27  28
ENDBRANCH  23  27
ENDBRANCH  22  23
ENDBRANCH  21  22
ENDBRANCH  18  21
ENDBRANCH  17  18
BRANCH  17  63
HETATM   63  O17 UNL     1       8.437   0.225 -14.731  1.00  0.00    -0.385 OA
HETATM   64  H38 UNL     1       8.535  -0.546 -15.314  1.00  0.00     0.210 HD
ENDBRANCH  17  63
ENDBRANCH  14  17
ENDBRANCH  12  13
ENDBRANCH  11  12
ENDBRANCH   8  11
ENDBRANCH   6   7
ENDBRANCH   5   6
ENDBRANCH   4   5
ENDBRANCH   2   4
TORSDOF 27
ENDMDL
MODEL 10
REMARK VINA RESULT:      -5.9      4.224      7.762
REMARK  27 active torsions:
REMARK  status: ('A' for Active; 'I' for Inactive)
REMARK    1  A    between atoms: C2_2  and  S1_4 
REMARK    2  A    between atoms: S1_4  and  C3_5 
REMARK    3  A    between atoms: C3_5  and  C4_6 
REMARK    4  A    between atoms: C4_6  and  N1_7 
REMARK       I    between atoms: N1_7  and  C5_8 
REMARK    5  A    between atoms: C5_8  and  C6_10 
REMARK    6  A    between atoms: C6_10  and  C7_11 
REMARK    7  A    between atoms: C7_11  and  N2_12 
REMARK       I    between atoms: N2_12  and  C8_13 
REMARK    8  A    between atoms: C8_13  and  C9_15 
REMARK    9  A    between atoms: C9_15  and  C10_16 
REMARK   10  A    between atoms: C9_15  and  O17_54 
REMARK   11  A    between atoms: C10_16  and  C13_19 
REMARK   12  A    between atoms: C13_19  and  O4_20 
REMARK   13  A    between atoms: O4_20  and  P1_21 
REMARK   14  A    between atoms: P1_21  and  O6_23 
REMARK   15  A    between atoms: P1_21  and  O7_24 
REMARK   16  A    between atoms: O7_24  and  P2_25 
REMARK   17  A    between atoms: P2_25  and  O9_27 
REMARK   18  A    between atoms: P2_25  and  O10_28 
REMARK   19  A    between atoms: O10_28  and  C14_29 
REMARK   20  A    between atoms: C14_29  and  C15_30 
REMARK   21  A    between atoms: C16_31  and  O13_49 
REMARK   22  A    between atoms: C17_32  and  O12_48 
REMARK   23  A    between atoms: C18_33  and  N3_35 
REMARK   24  A    between atoms: C21_40  and  N7_47 
REMARK   25  A    between atoms: O13_49  and  P3_50 
REMARK   26  A    between atoms: P3_50  and  O15_52 
REMARK   27  A    between atoms: P3_50  and  O16_53 
ROOT
HETATM    1  C1  UNL     1       9.201   3.107 -21.996  1.00  0.00     0.104 C 
HETATM    2  C2  UNL     1      10.593   3.661 -21.973  1.00  0.00     0.182 C 
HETATM    3  O1  UNL     1      10.948   4.561 -21.216  1.00  0.00    -0.286 OA
ENDROOT
BRANCH   2   4
HETATM    4  S1  UNL     1      11.678   2.944 -23.156  1.00  0.00    -0.091 SA
BRANCH   4   5
HETATM    5  C3  UNL     1      12.748   1.959 -22.058  1.00  0.00     0.102 C 
BRANCH   5   6
HETATM    6  C4  UNL     1      12.361   0.479 -22.063  1.00  0.00     0.133 C 
BRANCH   6   7
HETATM    7  N1  UNL     1      11.324   0.168 -21.100  1.00  0.00    -0.360 N 
HETATM    8  C5  UNL     1      11.418  -0.916 -20.259  1.00  0.00     0.219 C 
HETATM    9  O2  UNL     1      12.336  -1.726 -20.326  1.00  0.00    -0.274 OA
HETATM   10  H8  UNL     1      10.515   0.773 -21.043  1.00  0.00     0.162 HD
BRANCH   8  11
HETATM   11  C6  UNL     1      10.258  -1.029 -19.294  1.00  0.00     0.122 C 
BRANCH  11  12
HETATM   12  C7  UNL     1       9.353   0.202 -19.343  1.00  0.00     0.132 C 
BRANCH  12  13
HETATM   13  N2  UNL     1       9.398   0.989 -18.129  1.00  0.00    -0.358 N 
HETATM   14  C8  UNL     1      10.315   2.016 -17.998  1.00  0.00     0.247 C 
HETATM   15  O3  UNL     1      11.186   2.221 -18.833  1.00  0.00    -0.271 OA
HETATM   16  H13 UNL     1       8.511   1.092 -17.640  1.00  0.00     0.162 HD
BRANCH  14  17
HETATM   17  C9  UNL     1      10.138   2.880 -16.741  1.00  0.00     0.219 C 
BRANCH  17  18
HETATM   18  C10 UNL     1       9.644   4.325 -17.018  1.00  0.00     0.009 C 
HETATM   19  C11 UNL     1      10.807   5.321 -17.135  1.00  0.00     0.020 C 
HETATM   20  C12 UNL     1       8.821   4.400 -18.320  1.00  0.00     0.020 C 
BRANCH  18  21
HETATM   21  C13 UNL     1       8.747   4.709 -15.807  1.00  0.00     0.192 C 
BRANCH  21  22
HETATM   22  O4  UNL     1       9.329   5.715 -15.003  1.00  0.00    -0.296 OA
BRANCH  22  23
HETATM   23  P1  UNL     1      10.141   5.394 -13.658  1.00  0.00     0.401 P 
HETATM   24  O5  UNL     1      11.501   6.014 -13.601  1.00  0.00    -0.631 OA
BRANCH  23  25
HETATM   25  O6  UNL     1      10.149   3.793 -13.490  1.00  0.00    -0.307 OA
HETATM   26  H23 UNL     1       9.278   3.409 -13.651  1.00  0.00     0.222 HD
ENDBRANCH  23  25
BRANCH  23  27
HETATM   27  O7  UNL     1       9.165   5.824 -12.477  1.00  0.00    -0.195 OA
BRANCH  27  28
HETATM   28  P2  UNL     1       9.308   5.109 -11.061  1.00  0.00     0.401 P 
HETATM   29  O8  UNL     1      10.527   4.273 -10.845  1.00  0.00    -0.631 OA
BRANCH  28  30
HETATM   30  O9  UNL     1       9.153   6.314 -10.025  1.00  0.00    -0.307 OA
HETATM   31  H24 UNL     1       8.379   6.226  -9.417  1.00  0.00     0.222 HD
ENDBRANCH  28  30
BRANCH  28  32
HETATM   32  O10 UNL     1       7.908   4.367 -10.860  1.00  0.00    -0.294 OA
BRANCH  32  33
HETATM   33  C14 UNL     1       7.849   2.965 -10.867  1.00  0.00     0.215 C 
BRANCH  33  34
HETATM   34  C15 UNL     1       7.155   2.574 -12.171  1.00  0.00     0.180 C 
HETATM   35  C16 UNL     1       5.822   1.904 -11.864  1.00  0.00     0.197 C 
HETATM   36  C17 UNL     1       5.960   0.500 -12.422  1.00  0.00     0.199 C 
HETATM   37  C18 UNL     1       7.015   0.689 -13.515  1.00  0.00     0.262 C 
HETATM   38  O11 UNL     1       7.927   1.665 -12.965  1.00  0.00    -0.353 OA
BRANCH  35  39
HETATM   39  O13 UNL     1       4.796   2.643 -12.518  1.00  0.00    -0.286 OA
BRANCH  39  40
HETATM   40  P3  UNL     1       3.848   3.502 -11.559  1.00  0.00     0.391 P 
HETATM   41  O14 UNL     1       4.442   4.806 -11.135  1.00  0.00    -0.632 OA
BRANCH  40  42
HETATM   42  O15 UNL     1       3.526   2.429 -10.417  1.00  0.00    -0.307 OA
HETATM   43  H36 UNL     1       3.888   1.543 -10.659  1.00  0.00     0.222 HD
ENDBRANCH  40  42
BRANCH  40  44
HETATM   44  O16 UNL     1       2.501   3.546 -12.404  1.00  0.00    -0.307 OA
HETATM   45  H37 UNL     1       2.476   2.876 -13.106  1.00  0.00     0.222 HD
ENDBRANCH  40  44
ENDBRANCH  39  40
ENDBRANCH  35  39
BRANCH  36  46
HETATM   46  O12 UNL     1       4.682  -0.002 -12.823  1.00  0.00    -0.388 OA
HETATM   47  H35 UNL     1       4.400  -0.636 -12.121  1.00  0.00     0.210 HD
ENDBRANCH  36  46
BRANCH  37  48
HETATM   48  N3  UNL     1       7.749  -0.528 -13.796  1.00  0.00    -0.297 N 
HETATM   49  C19 UNL     1       8.512  -1.261 -12.917  1.00  0.00     0.188 A 
HETATM   50  N4  UNL     1       8.945  -2.383 -13.448  1.00  0.00    -0.346 N 
HETATM   51  C20 UNL     1       8.433  -2.381 -14.734  1.00  0.00     0.116 A 
HETATM   52  H4  UNL     1       9.528  -3.097 -13.010  1.00  0.00     0.167 HD
HETATM   53  C21 UNL     1       8.497  -3.311 -15.786  1.00  0.00     0.109 A 
HETATM   54  C23 UNL     1       7.723  -1.219 -14.975  1.00  0.00     0.142 A 
HETATM   55  N5  UNL     1       7.887  -3.007 -16.958  1.00  0.00    -0.341 N 
HETATM   56  C22 UNL     1       7.249  -1.824 -17.058  1.00  0.00     0.183 A 
HETATM   57  H5  UNL     1       7.909  -3.658 -17.743  1.00  0.00     0.167 HD
HETATM   58  N6  UNL     1       7.114  -0.864 -16.120  1.00  0.00    -0.336 N 
HETATM   59  H6  UNL     1       6.616   0.016 -16.261  1.00  0.00     0.168 HD
BRANCH  53  60
HETATM   60  N7  UNL     1       9.164  -4.522 -15.694  1.00  0.00    -0.287 NA
HETATM   61  H33 UNL     1       9.060  -5.121 -16.511  1.00  0.00     0.125 HD
HETATM   62  H34 UNL     1       9.058  -4.963 -14.790  1.00  0.00     0.125 HD
ENDBRANCH  53  60
ENDBRANCH  37  48
ENDBRANCH  33  34
ENDBRANCH  32  33
ENDBRANCH  28  32
ENDBRANCH  27  28
ENDBRANCH  23  27
ENDBRANCH  22  23
ENDBRANCH  21  22
ENDBRANCH  18  21
ENDBRANCH  17  18
BRANCH  17  63
HETATM   63  O17 UNL     1       9.223   2.253 -15.836  1.00  0.00    -0.385 OA
HETATM   64  H38 UNL     1       8.763   1.544 -16.315  1.00  0.00     0.210 HD
ENDBRANCH  17  63
ENDBRANCH  14  17
ENDBRANCH  12  13
ENDBRANCH  11  12
ENDBRANCH   8  11
ENDBRANCH   6   7
ENDBRANCH   5   6
ENDBRANCH   4   5
ENDBRANCH   2   4
TORSDOF 27
ENDMDL
MODEL 11
REMARK VINA RESULT:      -5.8     17.937     19.942
REMARK  27 active torsions:
REMARK  status: ('A' for Active; 'I' for Inactive)
REMARK    1  A    between atoms: C2_2  and  S1_4 
REMARK    2  A    between atoms: S1_4  and  C3_5 
REMARK    3  A    between atoms: C3_5  and  C4_6 
REMARK    4  A    between atoms: C4_6  and  N1_7 
REMARK       I    between atoms: N1_7  and  C5_8 
REMARK    5  A    between atoms: C5_8  and  C6_10 
REMARK    6  A    between atoms: C6_10  and  C7_11 
REMARK    7  A    between atoms: C7_11  and  N2_12 
REMARK       I    between atoms: N2_12  and  C8_13 
REMARK    8  A    between atoms: C8_13  and  C9_15 
REMARK    9  A    between atoms: C9_15  and  C10_16 
REMARK   10  A    between atoms: C9_15  and  O17_54 
REMARK   11  A    between atoms: C10_16  and  C13_19 
REMARK   12  A    between atoms: C13_19  and  O4_20 
REMARK   13  A    between atoms: O4_20  and  P1_21 
REMARK   14  A    between atoms: P1_21  and  O6_23 
REMARK   15  A    between atoms: P1_21  and  O7_24 
REMARK   16  A    between atoms: O7_24  and  P2_25 
REMARK   17  A    between atoms: P2_25  and  O9_27 
REMARK   18  A    between atoms: P2_25  and  O10_28 
REMARK   19  A    between atoms: O10_28  and  C14_29 
REMARK   20  A    between atoms: C14_29  and  C15_30 
REMARK   21  A    between atoms: C16_31  and  O13_49 
REMARK   22  A    between atoms: C17_32  and  O12_48 
REMARK   23  A    between atoms: C18_33  and  N3_35 
REMARK   24  A    between atoms: C21_40  and  N7_47 
REMARK   25  A    between atoms: O13_49  and  P3_50 
REMARK   26  A    between atoms: P3_50  and  O15_52 
REMARK   27  A    between atoms: P3_50  and  O16_53 
ROOT
HETATM    1  C1  UNL     1       5.010  22.341  -3.160  1.00  0.00     0.104 C 
HETATM    2  C2  UNL     1       5.235  21.215  -4.123  1.00  0.00     0.182 C 
HETATM    3  O1  UNL     1       5.800  20.168  -3.815  1.00  0.00    -0.286 OA
ENDROOT
BRANCH   2   4
HETATM    4  S1  UNL     1       4.656  21.528  -5.753  1.00  0.00    -0.091 SA
BRANCH   4   5
HETATM    5  C3  UNL     1       6.175  21.199  -6.705  1.00  0.00     0.102 C 
BRANCH   5   6
HETATM    6  C4  UNL     1       6.002  20.021  -7.665  1.00  0.00     0.133 C 
BRANCH   6   7
HETATM    7  N1  UNL     1       7.243  19.318  -7.917  1.00  0.00    -0.360 N 
HETATM    8  C5  UNL     1       8.133  19.743  -8.876  1.00  0.00     0.219 C 
HETATM    9  O2  UNL     1       7.898  20.685  -9.624  1.00  0.00    -0.274 OA
HETATM   10  H8  UNL     1       7.459  18.499  -7.366  1.00  0.00     0.162 HD
BRANCH   8  11
HETATM   11  C6  UNL     1       9.391  18.903  -8.941  1.00  0.00     0.122 C 
BRANCH  11  12
HETATM   12  C7  UNL     1      10.496  19.591  -9.742  1.00  0.00     0.132 C 
BRANCH  12  13
HETATM   13  N2  UNL     1      11.155  18.704 -10.677  1.00  0.00    -0.358 N 
HETATM   14  C8  UNL     1      11.038  18.915 -12.038  1.00  0.00     0.247 C 
HETATM   15  O3  UNL     1      10.293  19.767 -12.504  1.00  0.00    -0.271 OA
HETATM   16  H13 UNL     1      12.019  18.280 -10.344  1.00  0.00     0.162 HD
BRANCH  14  17
HETATM   17  C9  UNL     1      11.927  18.014 -12.908  1.00  0.00     0.219 C 
BRANCH  17  18
HETATM   18  C10 UNL     1      13.383  18.521 -13.082  1.00  0.00     0.009 C 
HETATM   19  C11 UNL     1      13.880  18.368 -14.527  1.00  0.00     0.020 C 
HETATM   20  C12 UNL     1      13.514  20.007 -12.690  1.00  0.00     0.020 C 
BRANCH  18  21
HETATM   21  C13 UNL     1      14.255  17.649 -12.134  1.00  0.00     0.192 C 
BRANCH  21  22
HETATM   22  O4  UNL     1      13.866  17.772 -10.781  1.00  0.00    -0.296 OA
BRANCH  22  23
HETATM   23  P1  UNL     1      14.921  17.841  -9.575  1.00  0.00     0.401 P 
HETATM   24  O5  UNL     1      16.322  18.146 -10.004  1.00  0.00    -0.631 OA
BRANCH  23  25
HETATM   25  O6  UNL     1      14.779  16.464  -8.753  1.00  0.00    -0.307 OA
HETATM   26  H23 UNL     1      14.302  16.587  -7.922  1.00  0.00     0.222 HD
ENDBRANCH  23  25
BRANCH  23  27
HETATM   27  O7  UNL     1      14.300  18.882  -8.544  1.00  0.00    -0.195 OA
BRANCH  27  28
HETATM   28  P2  UNL     1      14.447  18.601  -6.983  1.00  0.00     0.401 P 
HETATM   29  O8  UNL     1      15.818  18.292  -6.477  1.00  0.00    -0.631 OA
BRANCH  28  30
HETATM   30  O9  UNL     1      13.781  19.889  -6.315  1.00  0.00    -0.307 OA
HETATM   31  H24 UNL     1      13.135  19.682  -5.596  1.00  0.00     0.222 HD
ENDBRANCH  28  30
BRANCH  28  32
HETATM   32  O10 UNL     1      13.328  17.502  -6.682  1.00  0.00    -0.294 OA
BRANCH  32  33
HETATM   33  C14 UNL     1      11.973  17.868  -6.654  1.00  0.00     0.215 C 
BRANCH  33  34
HETATM   34  C15 UNL     1      11.423  17.370  -5.319  1.00  0.00     0.180 C 
HETATM   35  C16 UNL     1      11.536  18.469  -4.272  1.00  0.00     0.197 C 
HETATM   36  C17 UNL     1      12.466  17.902  -3.216  1.00  0.00     0.199 C 
HETATM   37  C18 UNL     1      12.275  16.394  -3.396  1.00  0.00     0.262 C 
HETATM   38  O11 UNL     1      12.120  16.221  -4.822  1.00  0.00    -0.353 OA
BRANCH  35  39
HETATM   39  O13 UNL     1      10.233  18.725  -3.758  1.00  0.00    -0.286 OA
BRANCH  39  40
HETATM   40  P3  UNL     1       9.365  19.787  -4.578  1.00  0.00     0.391 P 
HETATM   41  O14 UNL     1      10.160  20.589  -5.557  1.00  0.00    -0.632 OA
BRANCH  40  42
HETATM   42  O15 UNL     1       8.649  20.575  -3.383  1.00  0.00    -0.307 OA
HETATM   43  H36 UNL     1       7.670  20.469  -3.432  1.00  0.00     0.222 HD
ENDBRANCH  40  42
BRANCH  40  44
HETATM   44  O16 UNL     1       8.201  18.868  -5.152  1.00  0.00    -0.307 OA
HETATM   45  H37 UNL     1       7.750  19.264  -5.914  1.00  0.00     0.222 HD
ENDBRANCH  40  44
ENDBRANCH  39  40
ENDBRANCH  35  39
BRANCH  36  46
HETATM   46  O12 UNL     1      12.158  18.454  -1.934  1.00  0.00    -0.388 OA
HETATM   47  H35 UNL     1      12.578  19.347  -1.908  1.00  0.00     0.210 HD
ENDBRANCH  36  46
BRANCH  37  48
HETATM   48  N3  UNL     1      13.427  15.631  -2.957  1.00  0.00    -0.297 N 
HETATM   49  C19 UNL     1      13.637  15.084  -1.712  1.00  0.00     0.188 A 
HETATM   50  N4  UNL     1      14.722  14.343  -1.670  1.00  0.00    -0.346 N 
HETATM   51  C20 UNL     1      15.239  14.407  -2.952  1.00  0.00     0.116 A 
HETATM   52  H4  UNL     1      15.099  13.833  -0.871  1.00  0.00     0.167 HD
HETATM   53  C21 UNL     1      16.353  13.804  -3.562  1.00  0.00     0.109 A 
HETATM   54  C23 UNL     1      14.468  15.234  -3.749  1.00  0.00     0.142 A 
HETATM   55  N5  UNL     1      16.608  14.080  -4.864  1.00  0.00    -0.341 N 
HETATM   56  C22 UNL     1      15.781  14.926  -5.511  1.00  0.00     0.183 A 
HETATM   57  H5  UNL     1      17.405  13.659  -5.342  1.00  0.00     0.167 HD
HETATM   58  N6  UNL     1      14.685  15.553  -5.037  1.00  0.00    -0.336 N 
HETATM   59  H6  UNL     1      14.099  16.185  -5.583  1.00  0.00     0.168 HD
BRANCH  53  60
HETATM   60  N7  UNL     1      17.214  12.946  -2.897  1.00  0.00    -0.287 NA
HETATM   61  H33 UNL     1      16.759  12.139  -2.477  1.00  0.00     0.125 HD
HETATM   62  H34 UNL     1      17.895  13.432  -2.329  1.00  0.00     0.125 HD
ENDBRANCH  53  60
ENDBRANCH  37  48
ENDBRANCH  33  34
ENDBRANCH  32  33
ENDBRANCH  28  32
ENDBRANCH  27  28
ENDBRANCH  23  27
ENDBRANCH  22  23
ENDBRANCH  21  22
ENDBRANCH  18  21
ENDBRANCH  17  18
BRANCH  17  63
HETATM   63  O17 UNL     1      11.969  16.690 -12.365  1.00  0.00    -0.385 OA
HETATM   64  H38 UNL     1      12.552  16.151 -12.926  1.00  0.00     0.210 HD
ENDBRANCH  17  63
ENDBRANCH  14  17
ENDBRANCH  12  13
ENDBRANCH  11  12
ENDBRANCH   8  11
ENDBRANCH   6   7
ENDBRANCH   5   6
ENDBRANCH   4   5
ENDBRANCH   2   4
TORSDOF 27
ENDMDL
MODEL 12
REMARK VINA RESULT:      -5.8      4.182      8.084
REMARK  27 active torsions:
REMARK  status: ('A' for Active; 'I' for Inactive)
REMARK    1  A    between atoms: C2_2  and  S1_4 
REMARK    2  A    between atoms: S1_4  and  C3_5 
REMARK    3  A    between atoms: C3_5  and  C4_6 
REMARK    4  A    between atoms: C4_6  and  N1_7 
REMARK       I    between atoms: N1_7  and  C5_8 
REMARK    5  A    between atoms: C5_8  and  C6_10 
REMARK    6  A    between atoms: C6_10  and  C7_11 
REMARK    7  A    between atoms: C7_11  and  N2_12 
REMARK       I    between atoms: N2_12  and  C8_13 
REMARK    8  A    between atoms: C8_13  and  C9_15 
REMARK    9  A    between atoms: C9_15  and  C10_16 
REMARK   10  A    between atoms: C9_15  and  O17_54 
REMARK   11  A    between atoms: C10_16  and  C13_19 
REMARK   12  A    between atoms: C13_19  and  O4_20 
REMARK   13  A    between atoms: O4_20  and  P1_21 
REMARK   14  A    between atoms: P1_21  and  O6_23 
REMARK   15  A    between atoms: P1_21  and  O7_24 
REMARK   16  A    between atoms: O7_24  and  P2_25 
REMARK   17  A    between atoms: P2_25  and  O9_27 
REMARK   18  A    between atoms: P2_25  and  O10_28 
REMARK   19  A    between atoms: O10_28  and  C14_29 
REMARK   20  A    between atoms: C14_29  and  C15_30 
REMARK   21  A    between atoms: C16_31  and  O13_49 
REMARK   22  A    between atoms: C17_32  and  O12_48 
REMARK   23  A    between atoms: C18_33  and  N3_35 
REMARK   24  A    between atoms: C21_40  and  N7_47 
REMARK   25  A    between atoms: O13_49  and  P3_50 
REMARK   26  A    between atoms: P3_50  and  O15_52 
REMARK   27  A    between atoms: P3_50  and  O16_53 
ROOT
HETATM    1  C1  UNL     1       9.595   2.474 -23.688  1.00  0.00     0.104 C 
HETATM    2  C2  UNL     1      10.637   3.131 -22.835  1.00  0.00     0.182 C 
HETATM    3  O1  UNL     1      10.377   3.732 -21.795  1.00  0.00    -0.286 OA
ENDROOT
BRANCH   2   4
HETATM    4  S1  UNL     1      12.274   3.008 -23.466  1.00  0.00    -0.091 SA
BRANCH   4   5
HETATM    5  C3  UNL     1      13.125   2.299 -22.020  1.00  0.00     0.102 C 
BRANCH   5   6
HETATM    6  C4  UNL     1      12.924   0.785 -21.926  1.00  0.00     0.133 C 
BRANCH   6   7
HETATM    7  N1  UNL     1      11.800   0.421 -21.089  1.00  0.00    -0.360 N 
HETATM    8  C5  UNL     1      11.761  -0.772 -20.407  1.00  0.00     0.219 C 
HETATM    9  O2  UNL     1      12.629  -1.629 -20.527  1.00  0.00    -0.274 OA
HETATM   10  H8  UNL     1      11.028   1.069 -21.002  1.00  0.00     0.162 HD
BRANCH   8  11
HETATM   11  C6  UNL     1      10.526  -0.932 -19.548  1.00  0.00     0.122 C 
BRANCH  11  12
HETATM   12  C7  UNL     1       9.639   0.312 -19.586  1.00  0.00     0.132 C 
BRANCH  12  13
HETATM   13  N2  UNL     1       9.590   1.014 -18.321  1.00  0.00    -0.358 N 
HETATM   14  C8  UNL     1      10.421   2.095 -18.092  1.00  0.00     0.247 C 
HETATM   15  O3  UNL     1      11.296   2.424 -18.883  1.00  0.00    -0.271 OA
HETATM   16  H13 UNL     1       8.685   1.015 -17.855  1.00  0.00     0.162 HD
BRANCH  14  17
HETATM   17  C9  UNL     1      10.145   2.855 -16.786  1.00  0.00     0.219 C 
BRANCH  17  18
HETATM   18  C10 UNL     1       9.604   4.296 -16.983  1.00  0.00     0.009 C 
HETATM   19  C11 UNL     1      10.732   5.338 -17.007  1.00  0.00     0.020 C 
HETATM   20  C12 UNL     1       8.807   4.426 -18.297  1.00  0.00     0.020 C 
BRANCH  18  21
HETATM   21  C13 UNL     1       8.667   4.569 -15.771  1.00  0.00     0.192 C 
BRANCH  21  22
HETATM   22  O4  UNL     1       9.188   5.549 -14.897  1.00  0.00    -0.296 OA
BRANCH  22  23
HETATM   23  P1  UNL     1      10.064   5.185 -13.604  1.00  0.00     0.401 P 
HETATM   24  O5  UNL     1      11.417   5.824 -13.582  1.00  0.00    -0.631 OA
BRANCH  23  25
HETATM   25  O6  UNL     1      10.102   3.579 -13.505  1.00  0.00    -0.307 OA
HETATM   26  H23 UNL     1      10.251   3.276 -12.600  1.00  0.00     0.222 HD
ENDBRANCH  23  25
BRANCH  23  27
HETATM   27  O7  UNL     1       9.136   5.550 -12.364  1.00  0.00    -0.195 OA
BRANCH  27  28
HETATM   28  P2  UNL     1       9.590   5.101 -10.905  1.00  0.00     0.401 P 
HETATM   29  O8  UNL     1      10.812   4.246 -10.809  1.00  0.00    -0.631 OA
BRANCH  28  30
HETATM   30  O9  UNL     1       9.699   6.483 -10.113  1.00  0.00    -0.307 OA
HETATM   31  H24 UNL     1       9.878   6.382  -9.147  1.00  0.00     0.222 HD
ENDBRANCH  28  30
BRANCH  28  32
HETATM   32  O10 UNL     1       8.262   4.495 -10.256  1.00  0.00    -0.294 OA
BRANCH  32  33
HETATM   33  C14 UNL     1       7.684   3.335 -10.795  1.00  0.00     0.215 C 
BRANCH  33  34
HETATM   34  C15 UNL     1       6.432   3.790 -11.543  1.00  0.00     0.180 C 
HETATM   35  C16 UNL     1       5.390   4.288 -10.549  1.00  0.00     0.197 C 
HETATM   36  C17 UNL     1       4.211   3.350 -10.726  1.00  0.00     0.199 C 
HETATM   37  C18 UNL     1       4.400   2.862 -12.164  1.00  0.00     0.262 C 
HETATM   38  O11 UNL     1       5.832   2.745 -12.317  1.00  0.00    -0.353 OA
BRANCH  35  39
HETATM   39  O13 UNL     1       5.063   5.631 -10.889  1.00  0.00    -0.286 OA
BRANCH  39  40
HETATM   40  P3  UNL     1       5.664   6.753  -9.921  1.00  0.00     0.391 P 
HETATM   41  O14 UNL     1       4.666   7.784  -9.501  1.00  0.00    -0.632 OA
BRANCH  40  42
HETATM   42  O15 UNL     1       6.922   7.245 -10.777  1.00  0.00    -0.307 OA
HETATM   43  H36 UNL     1       6.658   7.428 -11.710  1.00  0.00     0.222 HD
ENDBRANCH  40  42
BRANCH  40  44
HETATM   44  O16 UNL     1       6.327   5.863  -8.782  1.00  0.00    -0.307 OA
HETATM   45  H37 UNL     1       5.714   5.659  -8.059  1.00  0.00     0.222 HD
ENDBRANCH  40  44
ENDBRANCH  39  40
ENDBRANCH  35  39
BRANCH  36  46
HETATM   46  O12 UNL     1       2.989   4.025 -10.416  1.00  0.00    -0.388 OA
HETATM   47  H35 UNL     1       2.531   4.179 -11.276  1.00  0.00     0.210 HD
ENDBRANCH  36  46
BRANCH  37  48
HETATM   48  N3  UNL     1       3.799   1.563 -12.395  1.00  0.00    -0.297 N 
HETATM   49  C19 UNL     1       2.516   1.304 -12.818  1.00  0.00     0.188 A 
HETATM   50  N4  UNL     1       2.318   0.026 -13.053  1.00  0.00    -0.346 N 
HETATM   51  C20 UNL     1       3.533  -0.573 -12.773  1.00  0.00     0.116 A 
HETATM   52  H4  UNL     1       1.459  -0.424 -13.371  1.00  0.00     0.167 HD
HETATM   53  C21 UNL     1       3.984  -1.902 -12.865  1.00  0.00     0.109 A 
HETATM   54  C23 UNL     1       4.448   0.362 -12.327  1.00  0.00     0.142 A 
HETATM   55  N5  UNL     1       5.259  -2.181 -12.499  1.00  0.00    -0.341 N 
HETATM   56  C22 UNL     1       6.033  -1.168 -12.059  1.00  0.00     0.183 A 
HETATM   57  H5  UNL     1       5.623  -3.132 -12.556  1.00  0.00     0.167 HD
HETATM   58  N6  UNL     1       5.715   0.137 -11.937  1.00  0.00    -0.336 N 
HETATM   59  H6  UNL     1       6.352   0.857 -11.595  1.00  0.00     0.168 HD
BRANCH  53  60
HETATM   60  N7  UNL     1       3.189  -2.948 -13.303  1.00  0.00    -0.287 NA
HETATM   61  H33 UNL     1       2.521  -3.284 -12.612  1.00  0.00     0.125 HD
HETATM   62  H34 UNL     1       3.706  -3.650 -13.816  1.00  0.00     0.125 HD
ENDBRANCH  53  60
ENDBRANCH  37  48
ENDBRANCH  33  34
ENDBRANCH  32  33
ENDBRANCH  28  32
ENDBRANCH  27  28
ENDBRANCH  23  27
ENDBRANCH  22  23
ENDBRANCH  21  22
ENDBRANCH  18  21
ENDBRANCH  17  18
BRANCH  17  63
HETATM   63  O17 UNL     1       9.213   2.126 -15.980  1.00  0.00    -0.385 OA
HETATM   64  H38 UNL     1       8.856   1.397 -16.515  1.00  0.00     0.210 HD
ENDBRANCH  17  63
ENDBRANCH  14  17
ENDBRANCH  12  13
ENDBRANCH  11  12
ENDBRANCH   8  11
ENDBRANCH   6   7
ENDBRANCH   5   6
ENDBRANCH   4   5
ENDBRANCH   2   4
TORSDOF 27
ENDMDL
MODEL 13
REMARK VINA RESULT:      -5.6      5.488     10.172
REMARK  27 active torsions:
REMARK  status: ('A' for Active; 'I' for Inactive)
REMARK    1  A    between atoms: C2_2  and  S1_4 
REMARK    2  A    between atoms: S1_4  and  C3_5 
REMARK    3  A    between atoms: C3_5  and  C4_6 
REMARK    4  A    between atoms: C4_6  and  N1_7 
REMARK       I    between atoms: N1_7  and  C5_8 
REMARK    5  A    between atoms: C5_8  and  C6_10 
REMARK    6  A    between atoms: C6_10  and  C7_11 
REMARK    7  A    between atoms: C7_11  and  N2_12 
REMARK       I    between atoms: N2_12  and  C8_13 
REMARK    8  A    between atoms: C8_13  and  C9_15 
REMARK    9  A    between atoms: C9_15  and  C10_16 
REMARK   10  A    between atoms: C9_15  and  O17_54 
REMARK   11  A    between atoms: C10_16  and  C13_19 
REMARK   12  A    between atoms: C13_19  and  O4_20 
REMARK   13  A    between atoms: O4_20  and  P1_21 
REMARK   14  A    between atoms: P1_21  and  O6_23 
REMARK   15  A    between atoms: P1_21  and  O7_24 
REMARK   16  A    between atoms: O7_24  and  P2_25 
REMARK   17  A    between atoms: P2_25  and  O9_27 
REMARK   18  A    between atoms: P2_25  and  O10_28 
REMARK   19  A    between atoms: O10_28  and  C14_29 
REMARK   20  A    between atoms: C14_29  and  C15_30 
REMARK   21  A    between atoms: C16_31  and  O13_49 
REMARK   22  A    between atoms: C17_32  and  O12_48 
REMARK   23  A    between atoms: C18_33  and  N3_35 
REMARK   24  A    between atoms: C21_40  and  N7_47 
REMARK   25  A    between atoms: O13_49  and  P3_50 
REMARK   26  A    between atoms: P3_50  and  O15_52 
REMARK   27  A    between atoms: P3_50  and  O16_53 
ROOT
HETATM    1  C1  UNL     1       9.625   4.638 -18.673  1.00  0.00     0.104 C 
HETATM    2  C2  UNL     1       9.421   4.264 -20.109  1.00  0.00     0.182 C 
HETATM    3  O1  UNL     1       9.158   5.081 -20.988  1.00  0.00    -0.286 OA
ENDROOT
BRANCH   2   4
HETATM    4  S1  UNL     1       9.551   2.541 -20.435  1.00  0.00    -0.091 SA
BRANCH   4   5
HETATM    5  C3  UNL     1      10.017   1.933 -18.782  1.00  0.00     0.102 C 
BRANCH   5   6
HETATM    6  C4  UNL     1      11.444   1.381 -18.759  1.00  0.00     0.133 C 
BRANCH   6   7
HETATM    7  N1  UNL     1      12.201   1.739 -19.941  1.00  0.00    -0.360 N 
HETATM    8  C5  UNL     1      13.333   2.517 -19.867  1.00  0.00     0.219 C 
HETATM    9  O2  UNL     1      13.722   3.018 -18.819  1.00  0.00    -0.274 OA
HETATM   10  H8  UNL     1      11.888   1.399 -20.841  1.00  0.00     0.162 HD
BRANCH   8  11
HETATM   11  C6  UNL     1      14.004   2.727 -21.208  1.00  0.00     0.122 C 
BRANCH  11  12
HETATM   12  C7  UNL     1      13.511   3.997 -21.900  1.00  0.00     0.132 C 
BRANCH  12  13
HETATM   13  N2  UNL     1      13.181   5.058 -20.972  1.00  0.00    -0.358 N 
HETATM   14  C8  UNL     1      12.424   6.138 -21.389  1.00  0.00     0.247 C 
HETATM   15  O3  UNL     1      12.109   6.299 -22.561  1.00  0.00    -0.271 OA
HETATM   16  H13 UNL     1      13.094   4.777 -19.998  1.00  0.00     0.162 HD
BRANCH  14  17
HETATM   17  C9  UNL     1      11.998   7.097 -20.268  1.00  0.00     0.219 C 
BRANCH  17  18
HETATM   18  C10 UNL     1      12.962   8.292 -20.044  1.00  0.00     0.009 C 
HETATM   19  C11 UNL     1      13.929   8.484 -21.222  1.00  0.00     0.020 C 
HETATM   20  C12 UNL     1      12.189   9.612 -19.845  1.00  0.00     0.020 C 
BRANCH  18  21
HETATM   21  C13 UNL     1      13.767   7.957 -18.756  1.00  0.00     0.192 C 
BRANCH  21  22
HETATM   22  O4  UNL     1      13.623   6.605 -18.368  1.00  0.00    -0.296 OA
BRANCH  22  23
HETATM   23  P1  UNL     1      13.820   6.107 -16.857  1.00  0.00     0.401 P 
HETATM   24  O5  UNL     1      14.299   7.170 -15.920  1.00  0.00    -0.631 OA
BRANCH  23  25
HETATM   25  O6  UNL     1      14.776   4.813 -16.914  1.00  0.00    -0.307 OA
HETATM   26  H23 UNL     1      14.282   3.993 -16.789  1.00  0.00     0.222 HD
ENDBRANCH  23  25
BRANCH  23  27
HETATM   27  O7  UNL     1      12.429   5.446 -16.457  1.00  0.00    -0.195 OA
BRANCH  27  28
HETATM   28  P2  UNL     1      12.406   4.324 -15.327  1.00  0.00     0.401 P 
HETATM   29  O8  UNL     1      12.842   2.952 -15.728  1.00  0.00    -0.631 OA
BRANCH  28  30
HETATM   30  O9  UNL     1      13.277   4.967 -14.154  1.00  0.00    -0.307 OA
HETATM   31  H24 UNL     1      13.477   5.927 -14.279  1.00  0.00     0.222 HD
ENDBRANCH  28  30
BRANCH  28  32
HETATM   32  O10 UNL     1      10.941   4.435 -14.702  1.00  0.00    -0.294 OA
BRANCH  32  33
HETATM   33  C14 UNL     1       9.914   3.599 -15.165  1.00  0.00     0.215 C 
BRANCH  33  34
HETATM   34  C15 UNL     1       8.774   3.723 -14.156  1.00  0.00     0.180 C 
HETATM   35  C16 UNL     1       9.339   4.032 -12.776  1.00  0.00     0.197 C 
HETATM   36  C17 UNL     1       8.933   2.847 -11.920  1.00  0.00     0.199 C 
HETATM   37  C18 UNL     1       7.689   2.334 -12.649  1.00  0.00     0.262 C 
HETATM   38  O11 UNL     1       7.990   2.529 -14.048  1.00  0.00    -0.353 OA
BRANCH  35  39
HETATM   39  O13 UNL     1       8.755   5.248 -12.322  1.00  0.00    -0.286 OA
BRANCH  39  40
HETATM   40  P3  UNL     1       9.783   6.350 -11.789  1.00  0.00     0.391 P 
HETATM   41  O14 UNL     1       9.581   7.703 -12.391  1.00  0.00    -0.632 OA
BRANCH  40  42
HETATM   42  O15 UNL     1      11.178   5.617 -12.066  1.00  0.00    -0.307 OA
HETATM   43  H36 UNL     1      11.146   5.116 -12.916  1.00  0.00     0.222 HD
ENDBRANCH  40  42
BRANCH  40  44
HETATM   44  O16 UNL     1       9.608   6.211 -10.215  1.00  0.00    -0.307 OA
HETATM   45  H37 UNL     1       9.106   5.420  -9.961  1.00  0.00     0.222 HD
ENDBRANCH  40  44
ENDBRANCH  39  40
ENDBRANCH  35  39
BRANCH  36  46
HETATM   46  O12 UNL     1       8.775   3.251 -10.557  1.00  0.00    -0.388 OA
HETATM   47  H35 UNL     1       8.755   2.422 -10.022  1.00  0.00     0.210 HD
ENDBRANCH  36  46
BRANCH  37  48
HETATM   48  N3  UNL     1       7.450   0.924 -12.416  1.00  0.00    -0.297 N 
HETATM   49  C19 UNL     1       8.393  -0.064 -12.251  1.00  0.00     0.188 A 
HETATM   50  N4  UNL     1       7.855  -1.219 -11.930  1.00  0.00    -0.346 N 
HETATM   51  C20 UNL     1       6.495  -0.968 -11.878  1.00  0.00     0.116 A 
HETATM   52  H4  UNL     1       8.332  -2.104 -11.757  1.00  0.00     0.167 HD
HETATM   53  C21 UNL     1       5.389  -1.773 -11.552  1.00  0.00     0.109 A 
HETATM   54  C23 UNL     1       6.227   0.346 -12.216  1.00  0.00     0.142 A 
HETATM   55  N5  UNL     1       4.150  -1.225 -11.605  1.00  0.00    -0.341 N 
HETATM   56  C22 UNL     1       4.038   0.066 -11.975  1.00  0.00     0.183 A 
HETATM   57  H5  UNL     1       3.324  -1.777 -11.372  1.00  0.00     0.167 HD
HETATM   58  N6  UNL     1       5.020   0.932 -12.300  1.00  0.00    -0.336 N 
HETATM   59  H6  UNL     1       4.867   1.903 -12.572  1.00  0.00     0.168 HD
BRANCH  53  60
HETATM   60  N7  UNL     1       5.497  -3.105 -11.186  1.00  0.00    -0.287 NA
HETATM   61  H33 UNL     1       5.922  -3.701 -11.893  1.00  0.00     0.125 HD
HETATM   62  H34 UNL     1       4.665  -3.458 -10.733  1.00  0.00     0.125 HD
ENDBRANCH  53  60
ENDBRANCH  37  48
ENDBRANCH  33  34
ENDBRANCH  32  33
ENDBRANCH  28  32
ENDBRANCH  27  28
ENDBRANCH  23  27
ENDBRANCH  22  23
ENDBRANCH  21  22
ENDBRANCH  18  21
ENDBRANCH  17  18
BRANCH  17  63
HETATM   63  O17 UNL     1      10.689   7.612 -20.530  1.00  0.00    -0.385 OA
HETATM   64  H38 UNL     1      10.116   6.868 -20.780  1.00  0.00     0.210 HD
ENDBRANCH  17  63
ENDBRANCH  14  17
ENDBRANCH  12  13
ENDBRANCH  11  12
ENDBRANCH   8  11
ENDBRANCH   6   7
ENDBRANCH   5   6
ENDBRANCH   4   5
ENDBRANCH   2   4
TORSDOF 27
ENDMDL
MODEL 14
REMARK VINA RESULT:      -5.4      8.714     12.804
REMARK  27 active torsions:
REMARK  status: ('A' for Active; 'I' for Inactive)
REMARK    1  A    between atoms: C2_2  and  S1_4 
REMARK    2  A    between atoms: S1_4  and  C3_5 
REMARK    3  A    between atoms: C3_5  and  C4_6 
REMARK    4  A    between atoms: C4_6  and  N1_7 
REMARK       I    between atoms: N1_7  and  C5_8 
REMARK    5  A    between atoms: C5_8  and  C6_10 
REMARK    6  A    between atoms: C6_10  and  C7_11 
REMARK    7  A    between atoms: C7_11  and  N2_12 
REMARK       I    between atoms: N2_12  and  C8_13 
REMARK    8  A    between atoms: C8_13  and  C9_15 
REMARK    9  A    between atoms: C9_15  and  C10_16 
REMARK   10  A    between atoms: C9_15  and  O17_54 
REMARK   11  A    between atoms: C10_16  and  C13_19 
REMARK   12  A    between atoms: C13_19  and  O4_20 
REMARK   13  A    between atoms: O4_20  and  P1_21 
REMARK   14  A    between atoms: P1_21  and  O6_23 
REMARK   15  A    between atoms: P1_21  and  O7_24 
REMARK   16  A    between atoms: O7_24  and  P2_25 
REMARK   17  A    between atoms: P2_25  and  O9_27 
REMARK   18  A    between atoms: P2_25  and  O10_28 
REMARK   19  A    between atoms: O10_28  and  C14_29 
REMARK   20  A    between atoms: C14_29  and  C15_30 
REMARK   21  A    between atoms: C16_31  and  O13_49 
REMARK   22  A    between atoms: C17_32  and  O12_48 
REMARK   23  A    between atoms: C18_33  and  N3_35 
REMARK   24  A    between atoms: C21_40  and  N7_47 
REMARK   25  A    between atoms: O13_49  and  P3_50 
REMARK   26  A    between atoms: P3_50  and  O15_52 
REMARK   27  A    between atoms: P3_50  and  O16_53 
ROOT
HETATM    1  C1  UNL     1       5.688   8.164  -8.554  1.00  0.00     0.104 C 
HETATM    2  C2  UNL     1       6.064   7.614  -9.896  1.00  0.00     0.182 C 
HETATM    3  O1  UNL     1       6.555   8.298 -10.792  1.00  0.00    -0.286 OA
ENDROOT
BRANCH   2   4
HETATM    4  S1  UNL     1       5.708   5.905 -10.105  1.00  0.00    -0.091 SA
BRANCH   4   5
HETATM    5  C3  UNL     1       7.193   5.170  -9.346  1.00  0.00     0.102 C 
BRANCH   5   6
HETATM    6  C4  UNL     1       8.438   6.027  -9.583  1.00  0.00     0.133 C 
BRANCH   6   7
HETATM    7  N1  UNL     1       8.938   5.925 -10.938  1.00  0.00    -0.360 N 
HETATM    8  C5  UNL     1      10.280   5.783 -11.206  1.00  0.00     0.219 C 
HETATM    9  O2  UNL     1      11.135   5.815 -10.329  1.00  0.00    -0.274 OA
HETATM   10  H8  UNL     1       8.278   5.952 -11.704  1.00  0.00     0.162 HD
BRANCH   8  11
HETATM   11  C6  UNL     1      10.584   5.639 -12.681  1.00  0.00     0.122 C 
BRANCH  11  12
HETATM   12  C7  UNL     1      11.606   4.533 -12.948  1.00  0.00     0.132 C 
BRANCH  12  13
HETATM   13  N2  UNL     1      11.528   4.001 -14.292  1.00  0.00    -0.358 N 
HETATM   14  C8  UNL     1      12.458   4.375 -15.244  1.00  0.00     0.247 C 
HETATM   15  O3  UNL     1      13.294   5.244 -15.032  1.00  0.00    -0.271 OA
HETATM   16  H13 UNL     1      11.131   3.067 -14.371  1.00  0.00     0.162 HD
BRANCH  14  17
HETATM   17  C9  UNL     1      12.368   3.605 -16.570  1.00  0.00     0.219 C 
BRANCH  17  18
HETATM   18  C10 UNL     1      11.477   4.280 -17.646  1.00  0.00     0.009 C 
HETATM   19  C11 UNL     1      10.527   3.279 -18.321  1.00  0.00     0.020 C 
HETATM   20  C12 UNL     1      10.623   5.413 -17.044  1.00  0.00     0.020 C 
BRANCH  18  21
HETATM   21  C13 UNL     1      12.456   4.866 -18.704  1.00  0.00     0.192 C 
BRANCH  21  22
HETATM   22  O4  UNL     1      13.116   6.027 -18.241  1.00  0.00    -0.296 OA
BRANCH  22  23
HETATM   23  P1  UNL     1      13.679   7.160 -19.227  1.00  0.00     0.401 P 
HETATM   24  O5  UNL     1      12.912   8.444 -19.184  1.00  0.00    -0.631 OA
BRANCH  23  25
HETATM   25  O6  UNL     1      13.761   6.502 -20.694  1.00  0.00    -0.307 OA
HETATM   26  H23 UNL     1      13.890   7.167 -21.382  1.00  0.00     0.222 HD
ENDBRANCH  23  25
BRANCH  23  27
HETATM   27  O7  UNL     1      15.221   7.293 -18.861  1.00  0.00    -0.195 OA
BRANCH  27  28
HETATM   28  P2  UNL     1      15.675   7.083 -17.349  1.00  0.00     0.401 P 
HETATM   29  O8  UNL     1      14.979   7.903 -16.313  1.00  0.00    -0.631 OA
BRANCH  28  30
HETATM   30  O9  UNL     1      15.529   5.507 -17.138  1.00  0.00    -0.307 OA
HETATM   31  H24 UNL     1      14.614   5.214 -16.904  1.00  0.00     0.222 HD
ENDBRANCH  28  30
BRANCH  28  32
HETATM   32  O10 UNL     1      17.265   7.226 -17.399  1.00  0.00    -0.294 OA
BRANCH  32  33
HETATM   33  C14 UNL     1      17.881   7.830 -18.506  1.00  0.00     0.215 C 
BRANCH  33  34
HETATM   34  C15 UNL     1      18.463   9.150 -18.003  1.00  0.00     0.180 C 
HETATM   35  C16 UNL     1      19.252   8.910 -16.722  1.00  0.00     0.197 C 
HETATM   36  C17 UNL     1      18.526   9.722 -15.666  1.00  0.00     0.199 C 
HETATM   37  C18 UNL     1      17.848  10.809 -16.504  1.00  0.00     0.262 C 
HETATM   38  O11 UNL     1      17.459  10.131 -17.719  1.00  0.00    -0.353 OA
BRANCH  35  39
HETATM   39  O13 UNL     1      20.583   9.370 -16.932  1.00  0.00    -0.286 OA
BRANCH  39  40
HETATM   40  P3  UNL     1      21.726   8.264 -16.774  1.00  0.00     0.391 P 
HETATM   41  O14 UNL     1      22.909   8.728 -15.987  1.00  0.00    -0.632 OA
BRANCH  40  42
HETATM   42  O15 UNL     1      21.966   7.860 -18.303  1.00  0.00    -0.307 OA
HETATM   43  H36 UNL     1      22.531   7.054 -18.367  1.00  0.00     0.222 HD
ENDBRANCH  40  42
BRANCH  40  44
HETATM   44  O16 UNL     1      20.898   7.033 -16.201  1.00  0.00    -0.307 OA
HETATM   45  H37 UNL     1      20.133   6.805 -16.753  1.00  0.00     0.222 HD
ENDBRANCH  40  44
ENDBRANCH  39  40
ENDBRANCH  35  39
BRANCH  36  46
HETATM   46  O12 UNL     1      19.441  10.149 -14.654  1.00  0.00    -0.388 OA
HETATM   47  H35 UNL     1      20.191  10.586 -15.123  1.00  0.00     0.210 HD
ENDBRANCH  36  46
BRANCH  37  48
HETATM   48  N3  UNL     1      16.660  11.342 -15.867  1.00  0.00    -0.297 N 
HETATM   49  C19 UNL     1      16.059  10.888 -14.717  1.00  0.00     0.188 A 
HETATM   50  N4  UNL     1      15.071  11.665 -14.330  1.00  0.00    -0.346 N 
HETATM   51  C20 UNL     1      15.033  12.676 -15.274  1.00  0.00     0.116 A 
HETATM   52  H4  UNL     1      14.467  11.549 -13.516  1.00  0.00     0.167 HD
HETATM   53  C21 UNL     1      14.239  13.829 -15.404  1.00  0.00     0.109 A 
HETATM   54  C23 UNL     1      15.986  12.467 -16.254  1.00  0.00     0.142 A 
HETATM   55  N5  UNL     1      14.440  14.639 -16.473  1.00  0.00    -0.341 N 
HETATM   56  C22 UNL     1      15.392  14.296 -17.363  1.00  0.00     0.183 A 
HETATM   57  H5  UNL     1      13.886  15.486 -16.599  1.00  0.00     0.167 HD
HETATM   58  N6  UNL     1      16.216  13.228 -17.339  1.00  0.00    -0.336 N 
HETATM   59  H6  UNL     1      16.920  13.024 -18.048  1.00  0.00     0.168 HD
BRANCH  53  60
HETATM   60  N7  UNL     1      13.248  14.178 -14.500  1.00  0.00    -0.287 NA
HETATM   61  H33 UNL     1      12.346  13.742 -14.677  1.00  0.00     0.125 HD
HETATM   62  H34 UNL     1      13.242  15.166 -14.284  1.00  0.00     0.125 HD
ENDBRANCH  53  60
ENDBRANCH  37  48
ENDBRANCH  33  34
ENDBRANCH  32  33
ENDBRANCH  28  32
ENDBRANCH  27  28
ENDBRANCH  23  27
ENDBRANCH  22  23
ENDBRANCH  21  22
ENDBRANCH  18  21
ENDBRANCH  17  18
BRANCH  17  63
HETATM   63  O17 UNL     1      13.676   3.413 -17.118  1.00  0.00    -0.385 OA
HETATM   64  H38 UNL     1      13.994   2.537 -16.842  1.00  0.00     0.210 HD
ENDBRANCH  17  63
ENDBRANCH  14  17
ENDBRANCH  12  13
ENDBRANCH  11  12
ENDBRANCH   8  11
ENDBRANCH   6   7
ENDBRANCH   5   6
ENDBRANCH   4   5
ENDBRANCH   2   4
TORSDOF 27
ENDMDL
MODEL 15
REMARK VINA RESULT:      -5.2      8.643     12.881
REMARK  27 active torsions:
REMARK  status: ('A' for Active; 'I' for Inactive)
REMARK    1  A    between atoms: C2_2  and  S1_4 
REMARK    2  A    between atoms: S1_4  and  C3_5 
REMARK    3  A    between atoms: C3_5  and  C4_6 
REMARK    4  A    between atoms: C4_6  and  N1_7 
REMARK       I    between atoms: N1_7  and  C5_8 
REMARK    5  A    between atoms: C5_8  and  C6_10 
REMARK    6  A    between atoms: C6_10  and  C7_11 
REMARK    7  A    between atoms: C7_11  and  N2_12 
REMARK       I    between atoms: N2_12  and  C8_13 
REMARK    8  A    between atoms: C8_13  and  C9_15 
REMARK    9  A    between atoms: C9_15  and  C10_16 
REMARK   10  A    between atoms: C9_15  and  O17_54 
REMARK   11  A    between atoms: C10_16  and  C13_19 
REMARK   12  A    between atoms: C13_19  and  O4_20 
REMARK   13  A    between atoms: O4_20  and  P1_21 
REMARK   14  A    between atoms: P1_21  and  O6_23 
REMARK   15  A    between atoms: P1_21  and  O7_24 
REMARK   16  A    between atoms: O7_24  and  P2_25 
REMARK   17  A    between atoms: P2_25  and  O9_27 
REMARK   18  A    between atoms: P2_25  and  O10_28 
REMARK   19  A    between atoms: O10_28  and  C14_29 
REMARK   20  A    between atoms: C14_29  and  C15_30 
REMARK   21  A    between atoms: C16_31  and  O13_49 
REMARK   22  A    between atoms: C17_32  and  O12_48 
REMARK   23  A    between atoms: C18_33  and  N3_35 
REMARK   24  A    between atoms: C21_40  and  N7_47 
REMARK   25  A    between atoms: O13_49  and  P3_50 
REMARK   26  A    between atoms: P3_50  and  O15_52 
REMARK   27  A    between atoms: P3_50  and  O16_53 
ROOT
HETATM    1  C1  UNL     1       6.062   7.386  -8.315  1.00  0.00     0.104 C 
HETATM    2  C2  UNL     1       6.247   7.210  -9.791  1.00  0.00     0.182 C 
HETATM    3  O1  UNL     1       6.537   8.132 -10.549  1.00  0.00    -0.286 OA
ENDROOT
BRANCH   2   4
HETATM    4  S1  UNL     1       5.975   5.570 -10.365  1.00  0.00    -0.091 SA
BRANCH   4   5
HETATM    5  C3  UNL     1       7.571   4.806  -9.931  1.00  0.00     0.102 C 
BRANCH   5   6
HETATM    6  C4  UNL     1       8.733   5.790 -10.081  1.00  0.00     0.133 C 
BRANCH   6   7
HETATM    7  N1  UNL     1       9.288   5.800 -11.419  1.00  0.00    -0.360 N 
HETATM    8  C5  UNL     1      10.643   5.867 -11.641  1.00  0.00     0.219 C 
HETATM    9  O2  UNL     1      11.455   6.003 -10.732  1.00  0.00    -0.274 OA
HETATM   10  H8  UNL     1       8.656   5.750 -12.208  1.00  0.00     0.162 HD
BRANCH   8  11
HETATM   11  C6  UNL     1      11.015   5.810 -13.107  1.00  0.00     0.122 C 
BRANCH  11  12
HETATM   12  C7  UNL     1      11.780   4.533 -13.453  1.00  0.00     0.132 C 
BRANCH  12  13
HETATM   13  N2  UNL     1      11.368   3.948 -14.711  1.00  0.00    -0.358 N 
HETATM   14  C8  UNL     1      12.312   3.597 -15.659  1.00  0.00     0.247 C 
HETATM   15  O3  UNL     1      13.498   3.870 -15.528  1.00  0.00    -0.271 OA
HETATM   16  H13 UNL     1      10.513   3.395 -14.678  1.00  0.00     0.162 HD
BRANCH  14  17
HETATM   17  C9  UNL     1      11.757   2.827 -16.866  1.00  0.00     0.219 C 
BRANCH  17  18
HETATM   18  C10 UNL     1      11.643   3.666 -18.166  1.00  0.00     0.009 C 
HETATM   19  C11 UNL     1      10.212   3.677 -18.724  1.00  0.00     0.020 C 
HETATM   20  C12 UNL     1      12.073   5.129 -17.935  1.00  0.00     0.020 C 
BRANCH  18  21
HETATM   21  C13 UNL     1      12.598   2.994 -19.193  1.00  0.00     0.192 C 
BRANCH  21  22
HETATM   22  O4  UNL     1      13.959   3.259 -18.916  1.00  0.00    -0.296 OA
BRANCH  22  23
HETATM   23  P1  UNL     1      15.149   2.817 -19.896  1.00  0.00     0.401 P 
HETATM   24  O5  UNL     1      15.497   3.836 -20.934  1.00  0.00    -0.631 OA
BRANCH  23  25
HETATM   25  O6  UNL     1      14.743   1.382 -20.503  1.00  0.00    -0.307 OA
HETATM   26  H23 UNL     1      13.900   1.414 -20.974  1.00  0.00     0.222 HD
ENDBRANCH  23  25
BRANCH  23  27
HETATM   27  O7  UNL     1      16.348   2.415 -18.930  1.00  0.00    -0.195 OA
BRANCH  27  28
HETATM   28  P2  UNL     1      16.433   3.087 -17.488  1.00  0.00     0.401 P 
HETATM   29  O8  UNL     1      16.217   4.564 -17.416  1.00  0.00    -0.631 OA
BRANCH  28  30
HETATM   30  O9  UNL     1      15.397   2.234 -16.624  1.00  0.00    -0.307 OA
HETATM   31  H24 UNL     1      14.763   2.781 -16.099  1.00  0.00     0.222 HD
ENDBRANCH  28  30
BRANCH  28  32
HETATM   32  O10 UNL     1      17.818   2.555 -16.896  1.00  0.00    -0.294 OA
BRANCH  32  33
HETATM   33  C14 UNL     1      18.834   2.125 -17.763  1.00  0.00     0.215 C 
BRANCH  33  34
HETATM   34  C15 UNL     1      20.055   2.989 -17.451  1.00  0.00     0.180 C 
HETATM   35  C16 UNL     1      20.447   2.818 -15.990  1.00  0.00     0.197 C 
HETATM   36  C17 UNL     1      20.283   4.199 -15.384  1.00  0.00     0.199 C 
HETATM   37  C18 UNL     1      20.456   5.109 -16.602  1.00  0.00     0.262 C 
HETATM   38  O11 UNL     1      19.826   4.384 -17.681  1.00  0.00    -0.353 OA
BRANCH  35  39
HETATM   39  O13 UNL     1      21.798   2.369 -15.946  1.00  0.00    -0.286 OA
BRANCH  39  40
HETATM   40  P3  UNL     1      22.063   1.067 -15.057  1.00  0.00     0.391 P 
HETATM   41  O14 UNL     1      22.855   0.010 -15.757  1.00  0.00    -0.632 OA
BRANCH  40  42
HETATM   42  O15 UNL     1      20.571   0.701 -14.610  1.00  0.00    -0.307 OA
HETATM   43  H36 UNL     1      20.245  -0.092 -15.099  1.00  0.00     0.222 HD
ENDBRANCH  40  42
BRANCH  40  44
HETATM   44  O16 UNL     1      22.688   1.705 -13.741  1.00  0.00    -0.307 OA
HETATM   45  H37 UNL     1      23.651   1.601 -13.693  1.00  0.00     0.222 HD
ENDBRANCH  40  44
ENDBRANCH  39  40
ENDBRANCH  35  39
BRANCH  36  46
HETATM   46  O12 UNL     1      21.196   4.375 -14.298  1.00  0.00    -0.388 OA
HETATM   47  H35 UNL     1      20.958   3.697 -13.621  1.00  0.00     0.210 HD
ENDBRANCH  36  46
BRANCH  37  48
HETATM   48  N3  UNL     1      19.787   6.384 -16.444  1.00  0.00    -0.297 N 
HETATM   49  C19 UNL     1      18.594   6.772 -17.007  1.00  0.00     0.188 A 
HETATM   50  N4  UNL     1      18.192   7.944 -16.567  1.00  0.00    -0.346 N 
HETATM   51  C20 UNL     1      19.171   8.334 -15.670  1.00  0.00     0.116 A 
HETATM   52  H4  UNL     1      17.348   8.453 -16.828  1.00  0.00     0.167 HD
HETATM   53  C21 UNL     1      19.308   9.459 -14.838  1.00  0.00     0.109 A 
HETATM   54  C23 UNL     1      20.184   7.395 -15.614  1.00  0.00     0.142 A 
HETATM   55  N5  UNL     1      20.414   9.561 -14.062  1.00  0.00    -0.341 N 
HETATM   56  C22 UNL     1      21.334   8.577 -14.128  1.00  0.00     0.183 A 
HETATM   57  H5  UNL     1      20.547  10.361 -13.443  1.00  0.00     0.167 HD
HETATM   58  N6  UNL     1      21.307   7.455 -14.875  1.00  0.00    -0.336 N 
HETATM   59  H6  UNL     1      22.040   6.745 -14.879  1.00  0.00     0.168 HD
BRANCH  53  60
HETATM   60  N7  UNL     1      18.374  10.480 -14.777  1.00  0.00    -0.287 NA
HETATM   61  H33 UNL     1      17.524  10.241 -14.271  1.00  0.00     0.125 HD
HETATM   62  H34 UNL     1      18.258  10.963 -15.658  1.00  0.00     0.125 HD
ENDBRANCH  53  60
ENDBRANCH  37  48
ENDBRANCH  33  34
ENDBRANCH  32  33
ENDBRANCH  28  32
ENDBRANCH  27  28
ENDBRANCH  23  27
ENDBRANCH  22  23
ENDBRANCH  21  22
ENDBRANCH  18  21
ENDBRANCH  17  18
BRANCH  17  63
HETATM   63  O17 UNL     1      12.571   1.680 -17.136  1.00  0.00    -0.385 OA
HETATM   64  H38 UNL     1      12.106   0.895 -16.802  1.00  0.00     0.210 HD
ENDBRANCH  17  63
ENDBRANCH  14  17
ENDBRANCH  12  13
ENDBRANCH  11  12
ENDBRANCH   8  11
ENDBRANCH   6   7
ENDBRANCH   5   6
ENDBRANCH   4   5
ENDBRANCH   2   4
TORSDOF 27
ENDMDL
MODEL 16
REMARK VINA RESULT:      -5.1      4.874      8.526
REMARK  27 active torsions:
REMARK  status: ('A' for Active; 'I' for Inactive)
REMARK    1  A    between atoms: C2_2  and  S1_4 
REMARK    2  A    between atoms: S1_4  and  C3_5 
REMARK    3  A    between atoms: C3_5  and  C4_6 
REMARK    4  A    between atoms: C4_6  and  N1_7 
REMARK       I    between atoms: N1_7  and  C5_8 
REMARK    5  A    between atoms: C5_8  and  C6_10 
REMARK    6  A    between atoms: C6_10  and  C7_11 
REMARK    7  A    between atoms: C7_11  and  N2_12 
REMARK       I    between atoms: N2_12  and  C8_13 
REMARK    8  A    between atoms: C8_13  and  C9_15 
REMARK    9  A    between atoms: C9_15  and  C10_16 
REMARK   10  A    between atoms: C9_15  and  O17_54 
REMARK   11  A    between atoms: C10_16  and  C13_19 
REMARK   12  A    between atoms: C13_19  and  O4_20 
REMARK   13  A    between atoms: O4_20  and  P1_21 
REMARK   14  A    between atoms: P1_21  and  O6_23 
REMARK   15  A    between atoms: P1_21  and  O7_24 
REMARK   16  A    between atoms: O7_24  and  P2_25 
REMARK   17  A    between atoms: P2_25  and  O9_27 
REMARK   18  A    between atoms: P2_25  and  O10_28 
REMARK   19  A    between atoms: O10_28  and  C14_29 
REMARK   20  A    between atoms: C14_29  and  C15_30 
REMARK   21  A    between atoms: C16_31  and  O13_49 
REMARK   22  A    between atoms: C17_32  and  O12_48 
REMARK   23  A    between atoms: C18_33  and  N3_35 
REMARK   24  A    between atoms: C21_40  and  N7_47 
REMARK   25  A    between atoms: O13_49  and  P3_50 
REMARK   26  A    between atoms: P3_50  and  O15_52 
REMARK   27  A    between atoms: P3_50  and  O16_53 
ROOT
HETATM    1  C1  UNL     1       1.331   3.901  -7.953  1.00  0.00     0.104 C 
HETATM    2  C2  UNL     1       1.152   3.437  -9.366  1.00  0.00     0.182 C 
HETATM    3  O1  UNL     1       0.162   3.703 -10.043  1.00  0.00    -0.286 OA
ENDROOT
BRANCH   2   4
HETATM    4  S1  UNL     1       2.465   2.437  -9.973  1.00  0.00    -0.091 SA
BRANCH   4   5
HETATM    5  C3  UNL     1       3.130   3.529 -11.271  1.00  0.00     0.102 C 
BRANCH   5   6
HETATM    6  C4  UNL     1       4.280   4.395 -10.753  1.00  0.00     0.133 C 
BRANCH   6   7
HETATM    7  N1  UNL     1       5.518   3.656 -10.612  1.00  0.00    -0.360 N 
HETATM    8  C5  UNL     1       6.735   4.291 -10.530  1.00  0.00     0.219 C 
HETATM    9  O2  UNL     1       6.856   5.504 -10.651  1.00  0.00    -0.274 OA
HETATM   10  H8  UNL     1       5.479   2.646 -10.566  1.00  0.00     0.162 HD
BRANCH   8  11
HETATM   11  C6  UNL     1       7.895   3.339 -10.330  1.00  0.00     0.122 C 
BRANCH  11  12
HETATM   12  C7  UNL     1       8.215   2.554 -11.601  1.00  0.00     0.132 C 
BRANCH  12  13
HETATM   13  N2  UNL     1       7.208   1.565 -11.925  1.00  0.00    -0.358 N 
HETATM   14  C8  UNL     1       7.572   0.252 -12.161  1.00  0.00     0.247 C 
HETATM   15  O3  UNL     1       8.744  -0.099 -12.222  1.00  0.00    -0.271 OA
HETATM   16  H13 UNL     1       6.288   1.728 -11.522  1.00  0.00     0.162 HD
BRANCH  14  17
HETATM   17  C9  UNL     1       6.396  -0.724 -12.317  1.00  0.00     0.219 C 
BRANCH  17  18
HETATM   18  C10 UNL     1       5.485  -0.443 -13.540  1.00  0.00     0.009 C 
HETATM   19  C11 UNL     1       4.694  -1.687 -13.971  1.00  0.00     0.020 C 
HETATM   20  C12 UNL     1       4.474   0.684 -13.245  1.00  0.00     0.020 C 
BRANCH  18  21
HETATM   21  C13 UNL     1       6.437  -0.005 -14.690  1.00  0.00     0.192 C 
BRANCH  21  22
HETATM   22  O4  UNL     1       6.446  -0.926 -15.762  1.00  0.00    -0.296 OA
BRANCH  22  23
HETATM   23  P1  UNL     1       7.700  -1.870 -16.089  1.00  0.00     0.401 P 
HETATM   24  O5  UNL     1       7.332  -3.278 -16.435  1.00  0.00    -0.631 OA
BRANCH  23  25
HETATM   25  O6  UNL     1       8.710  -1.751 -14.841  1.00  0.00    -0.307 OA
HETATM   26  H23 UNL     1       9.246  -2.547 -14.732  1.00  0.00     0.222 HD
ENDBRANCH  23  25
BRANCH  23  27
HETATM   27  O7  UNL     1       8.512  -1.098 -17.218  1.00  0.00    -0.195 OA
BRANCH  27  28
HETATM   28  P2  UNL     1       9.622  -1.888 -18.044  1.00  0.00     0.401 P 
HETATM   29  O8  UNL     1      10.540  -2.774 -17.269  1.00  0.00    -0.631 OA
BRANCH  28  30
HETATM   30  O9  UNL     1       8.774  -2.648 -19.164  1.00  0.00    -0.307 OA
HETATM   31  H24 UNL     1       8.514  -3.569 -18.917  1.00  0.00     0.222 HD
ENDBRANCH  28  30
BRANCH  28  32
HETATM   32  O10 UNL     1      10.325  -0.756 -18.926  1.00  0.00    -0.294 OA
BRANCH  32  33
HETATM   33  C14 UNL     1       9.610   0.396 -19.289  1.00  0.00     0.215 C 
BRANCH  33  34
HETATM   34  C15 UNL     1      10.610   1.551 -19.241  1.00  0.00     0.180 C 
HETATM   35  C16 UNL     1      11.823   1.148 -18.413  1.00  0.00     0.197 C 
HETATM   36  C17 UNL     1      11.830   2.117 -17.246  1.00  0.00     0.199 C 
HETATM   37  C18 UNL     1      11.083   3.322 -17.822  1.00  0.00     0.262 C 
HETATM   38  O11 UNL     1      10.062   2.741 -18.662  1.00  0.00    -0.353 OA
BRANCH  35  39
HETATM   39  O13 UNL     1      12.980   1.285 -19.231  1.00  0.00    -0.286 OA
BRANCH  39  40
HETATM   40  P3  UNL     1      13.951   0.014 -19.269  1.00  0.00     0.391 P 
HETATM   41  O14 UNL     1      15.134   0.187 -20.165  1.00  0.00    -0.632 OA
BRANCH  40  42
HETATM   42  O15 UNL     1      12.911  -1.146 -19.631  1.00  0.00    -0.307 OA
HETATM   43  H36 UNL     1      11.983  -0.840 -19.488  1.00  0.00     0.222 HD
ENDBRANCH  40  42
BRANCH  40  44
HETATM   44  O16 UNL     1      14.227  -0.218 -17.720  1.00  0.00    -0.307 OA
HETATM   45  H37 UNL     1      15.151  -0.052 -17.474  1.00  0.00     0.222 HD
ENDBRANCH  40  44
ENDBRANCH  39  40
ENDBRANCH  35  39
BRANCH  36  46
HETATM   46  O12 UNL     1      13.168   2.331 -16.787  1.00  0.00    -0.388 OA
HETATM   47  H35 UNL     1      13.202   3.260 -16.455  1.00  0.00     0.210 HD
ENDBRANCH  36  46
BRANCH  37  48
HETATM   48  N3  UNL     1      10.444   4.123 -16.797  1.00  0.00    -0.297 N 
HETATM   49  C19 UNL     1       9.209   4.724 -16.862  1.00  0.00     0.188 A 
HETATM   50  N4  UNL     1       8.860   5.273 -15.719  1.00  0.00    -0.346 N 
HETATM   51  C20 UNL     1       9.920   5.010 -14.869  1.00  0.00     0.116 A 
HETATM   52  H4  UNL     1       8.001   5.780 -15.506  1.00  0.00     0.167 HD
HETATM   53  C21 UNL     1      10.143   5.290 -13.509  1.00  0.00     0.109 A 
HETATM   54  C23 UNL     1      10.925   4.332 -15.535  1.00  0.00     0.142 A 
HETATM   55  N5  UNL     1      11.315   4.903 -12.951  1.00  0.00    -0.341 N 
HETATM   56  C22 UNL     1      12.215   4.269 -13.730  1.00  0.00     0.183 A 
HETATM   57  H5  UNL     1      11.511   5.085 -11.967  1.00  0.00     0.167 HD
HETATM   58  N6  UNL     1      12.109   3.940 -15.033  1.00  0.00    -0.336 N 
HETATM   59  H6  UNL     1      12.832   3.458 -15.568  1.00  0.00     0.168 HD
BRANCH  53  60
HETATM   60  N7  UNL     1       9.228   5.954 -12.708  1.00  0.00    -0.287 NA
HETATM   61  H33 UNL     1       9.616   6.740 -12.191  1.00  0.00     0.125 HD
HETATM   62  H34 UNL     1       8.623   5.326 -12.196  1.00  0.00     0.125 HD
ENDBRANCH  53  60
ENDBRANCH  37  48
ENDBRANCH  33  34
ENDBRANCH  32  33
ENDBRANCH  28  32
ENDBRANCH  27  28
ENDBRANCH  23  27
ENDBRANCH  22  23
ENDBRANCH  21  22
ENDBRANCH  18  21
ENDBRANCH  17  18
BRANCH  17  63
HETATM   63  O17 UNL     1       6.881  -2.069 -12.411  1.00  0.00    -0.385 OA
HETATM   64  H38 UNL     1       6.950  -2.428 -11.510  1.00  0.00     0.210 HD
ENDBRANCH  17  63
ENDBRANCH  14  17
ENDBRANCH  12  13
ENDBRANCH  11  12
ENDBRANCH   8  11
ENDBRANCH   6   7
ENDBRANCH   5   6
ENDBRANCH   4   5
ENDBRANCH   2   4
TORSDOF 27
ENDMDL
MODEL 17
REMARK VINA RESULT:      -5.1     18.150     20.447
REMARK  27 active torsions:
REMARK  status: ('A' for Active; 'I' for Inactive)
REMARK    1  A    between atoms: C2_2  and  S1_4 
REMARK    2  A    between atoms: S1_4  and  C3_5 
REMARK    3  A    between atoms: C3_5  and  C4_6 
REMARK    4  A    between atoms: C4_6  and  N1_7 
REMARK       I    between atoms: N1_7  and  C5_8 
REMARK    5  A    between atoms: C5_8  and  C6_10 
REMARK    6  A    between atoms: C6_10  and  C7_11 
REMARK    7  A    between atoms: C7_11  and  N2_12 
REMARK       I    between atoms: N2_12  and  C8_13 
REMARK    8  A    between atoms: C8_13  and  C9_15 
REMARK    9  A    between atoms: C9_15  and  C10_16 
REMARK   10  A    between atoms: C9_15  and  O17_54 
REMARK   11  A    between atoms: C10_16  and  C13_19 
REMARK   12  A    between atoms: C13_19  and  O4_20 
REMARK   13  A    between atoms: O4_20  and  P1_21 
REMARK   14  A    between atoms: P1_21  and  O6_23 
REMARK   15  A    between atoms: P1_21  and  O7_24 
REMARK   16  A    between atoms: O7_24  and  P2_25 
REMARK   17  A    between atoms: P2_25  and  O9_27 
REMARK   18  A    between atoms: P2_25  and  O10_28 
REMARK   19  A    between atoms: O10_28  and  C14_29 
REMARK   20  A    between atoms: C14_29  and  C15_30 
REMARK   21  A    between atoms: C16_31  and  O13_49 
REMARK   22  A    between atoms: C17_32  and  O12_48 
REMARK   23  A    between atoms: C18_33  and  N3_35 
REMARK   24  A    between atoms: C21_40  and  N7_47 
REMARK   25  A    between atoms: O13_49  and  P3_50 
REMARK   26  A    between atoms: P3_50  and  O15_52 
REMARK   27  A    between atoms: P3_50  and  O16_53 
ROOT
HETATM    1  C1  UNL     1      15.044  23.603 -10.022  1.00  0.00     0.104 C 
HETATM    2  C2  UNL     1      14.343  22.365 -10.490  1.00  0.00     0.182 C 
HETATM    3  O1  UNL     1      13.391  21.864  -9.896  1.00  0.00    -0.286 OA
ENDROOT
BRANCH   2   4
HETATM    4  S1  UNL     1      15.021  21.655 -11.949  1.00  0.00    -0.091 SA
BRANCH   4   5
HETATM    5  C3  UNL     1      13.566  20.756 -12.577  1.00  0.00     0.102 C 
BRANCH   5   6
HETATM    6  C4  UNL     1      13.591  19.279 -12.177  1.00  0.00     0.133 C 
BRANCH   6   7
HETATM    7  N1  UNL     1      12.828  19.012 -10.976  1.00  0.00    -0.360 N 
HETATM    8  C5  UNL     1      12.009  17.912 -10.868  1.00  0.00     0.219 C 
HETATM    9  O2  UNL     1      11.813  17.141 -11.801  1.00  0.00    -0.274 OA
HETATM   10  H8  UNL     1      12.908  19.650 -10.196  1.00  0.00     0.162 HD
BRANCH   8  11
HETATM   11  C6  UNL     1      11.346  17.788  -9.514  1.00  0.00     0.122 C 
BRANCH  11  12
HETATM   12  C7  UNL     1       9.976  18.464  -9.484  1.00  0.00     0.132 C 
BRANCH  12  13
HETATM   13  N2  UNL     1       9.856  19.459  -8.439  1.00  0.00    -0.358 N 
HETATM   14  C8  UNL     1       8.833  20.389  -8.477  1.00  0.00     0.247 C 
HETATM   15  O3  UNL     1       8.076  20.486  -9.434  1.00  0.00    -0.271 OA
HETATM   16  H13 UNL     1      10.192  19.173  -7.522  1.00  0.00     0.162 HD
BRANCH  14  17
HETATM   17  C9  UNL     1       8.716  21.268  -7.223  1.00  0.00     0.219 C 
BRANCH  17  18
HETATM   18  C10 UNL     1       7.762  20.711  -6.134  1.00  0.00     0.009 C 
HETATM   19  C11 UNL     1       6.804  21.786  -5.599  1.00  0.00     0.020 C 
HETATM   20  C12 UNL     1       6.911  19.542  -6.672  1.00  0.00     0.020 C 
BRANCH  18  21
HETATM   21  C13 UNL     1       8.678  20.206  -4.982  1.00  0.00     0.192 C 
BRANCH  21  22
HETATM   22  O4  UNL     1       9.135  18.886  -5.197  1.00  0.00    -0.296 OA
BRANCH  22  23
HETATM   23  P1  UNL     1      10.666  18.452  -5.001  1.00  0.00     0.401 P 
HETATM   24  O5  UNL     1      11.565  18.857  -6.127  1.00  0.00    -0.631 OA
BRANCH  23  25
HETATM   25  O6  UNL     1      10.667  16.870  -4.705  1.00  0.00    -0.307 OA
HETATM   26  H23 UNL     1       9.785  16.541  -4.490  1.00  0.00     0.222 HD
ENDBRANCH  23  25
BRANCH  23  27
HETATM   27  O7  UNL     1      11.079  19.033  -3.579  1.00  0.00    -0.195 OA
BRANCH  27  28
HETATM   28  P2  UNL     1      12.148  20.212  -3.509  1.00  0.00     0.401 P 
HETATM   29  O8  UNL     1      11.848  21.445  -4.297  1.00  0.00    -0.631 OA
BRANCH  28  30
HETATM   30  O9  UNL     1      12.313  20.465  -1.941  1.00  0.00    -0.307 OA
HETATM   31  H24 UNL     1      12.232  19.648  -1.390  1.00  0.00     0.222 HD
ENDBRANCH  28  30
BRANCH  28  32
HETATM   32  O10 UNL     1      13.536  19.494  -3.839  1.00  0.00    -0.294 OA
BRANCH  32  33
HETATM   33  C14 UNL     1      14.429  20.078  -4.750  1.00  0.00     0.215 C 
BRANCH  33  34
HETATM   34  C15 UNL     1      15.476  19.011  -5.065  1.00  0.00     0.180 C 
HETATM   35  C16 UNL     1      15.070  18.244  -6.316  1.00  0.00     0.197 C 
HETATM   36  C17 UNL     1      14.882  16.814  -5.846  1.00  0.00     0.199 C 
HETATM   37  C18 UNL     1      15.786  16.758  -4.612  1.00  0.00     0.262 C 
HETATM   38  O11 UNL     1      15.643  18.062  -4.006  1.00  0.00    -0.353 OA
BRANCH  35  39
HETATM   39  O13 UNL     1      16.123  18.362  -7.268  1.00  0.00    -0.286 OA
BRANCH  39  40
HETATM   40  P3  UNL     1      15.687  18.875  -8.718  1.00  0.00     0.391 P 
HETATM   41  O14 UNL     1      16.719  19.718  -9.394  1.00  0.00    -0.632 OA
BRANCH  40  42
HETATM   42  O15 UNL     1      14.277  19.554  -8.384  1.00  0.00    -0.307 OA
HETATM   43  H36 UNL     1      13.606  19.319  -9.067  1.00  0.00     0.222 HD
ENDBRANCH  40  42
BRANCH  40  44
HETATM   44  O16 UNL     1      15.272  17.511  -9.423  1.00  0.00    -0.307 OA
HETATM   45  H37 UNL     1      15.569  16.728  -8.932  1.00  0.00     0.222 HD
ENDBRANCH  40  44
ENDBRANCH  39  40
ENDBRANCH  35  39
BRANCH  36  46
HETATM   46  O12 UNL     1      15.165  15.901  -6.909  1.00  0.00    -0.388 OA
HETATM   47  H35 UNL     1      14.801  15.027  -6.630  1.00  0.00     0.210 HD
ENDBRANCH  36  46
BRANCH  37  48
HETATM   48  N3  UNL     1      15.365  15.752  -3.658  1.00  0.00    -0.297 N 
HETATM   49  C19 UNL     1      16.020  14.586  -3.337  1.00  0.00     0.188 A 
HETATM   50  N4  UNL     1      15.443  13.948  -2.342  1.00  0.00    -0.346 N 
HETATM   51  C20 UNL     1      14.363  14.742  -1.998  1.00  0.00     0.116 A 
HETATM   52  H4  UNL     1      15.728  13.065  -1.917  1.00  0.00     0.167 HD
HETATM   53  C21 UNL     1      13.385  14.638  -0.994  1.00  0.00     0.109 A 
HETATM   54  C23 UNL     1      14.280  15.842  -2.831  1.00  0.00     0.142 A 
HETATM   55  N5  UNL     1      12.428  15.594  -0.918  1.00  0.00    -0.341 N 
HETATM   56  C22 UNL     1      12.458  16.600  -1.815  1.00  0.00     0.183 A 
HETATM   57  H5  UNL     1      11.704  15.554  -0.201  1.00  0.00     0.167 HD
HETATM   58  N6  UNL     1      13.345  16.809  -2.810  1.00  0.00    -0.336 N 
HETATM   59  H6  UNL     1      13.312  17.595  -3.459  1.00  0.00     0.168 HD
BRANCH  53  60
HETATM   60  N7  UNL     1      13.341  13.598  -0.078  1.00  0.00    -0.287 NA
HETATM   61  H33 UNL     1      12.404  13.249   0.114  1.00  0.00     0.125 HD
HETATM   62  H34 UNL     1      13.943  13.749   0.720  1.00  0.00     0.125 HD
ENDBRANCH  53  60
ENDBRANCH  37  48
ENDBRANCH  33  34
ENDBRANCH  32  33
ENDBRANCH  28  32
ENDBRANCH  27  28
ENDBRANCH  23  27
ENDBRANCH  22  23
ENDBRANCH  21  22
ENDBRANCH  18  21
ENDBRANCH  17  18
BRANCH  17  63
HETATM   63  O17 UNL     1      10.007  21.467  -6.637  1.00  0.00    -0.385 OA
HETATM   64  H38 UNL     1      10.362  22.309  -6.968  1.00  0.00     0.210 HD
ENDBRANCH  17  63
ENDBRANCH  14  17
ENDBRANCH  12  13
ENDBRANCH  11  12
ENDBRANCH   8  11
ENDBRANCH   6   7
ENDBRANCH   5   6
ENDBRANCH   4   5
ENDBRANCH   2   4
TORSDOF 27
ENDMDL
MODEL 18
REMARK VINA RESULT:      -4.8      7.844     13.321
REMARK  27 active torsions:
REMARK  status: ('A' for Active; 'I' for Inactive)
REMARK    1  A    between atoms: C2_2  and  S1_4 
REMARK    2  A    between atoms: S1_4  and  C3_5 
REMARK    3  A    between atoms: C3_5  and  C4_6 
REMARK    4  A    between atoms: C4_6  and  N1_7 
REMARK       I    between atoms: N1_7  and  C5_8 
REMARK    5  A    between atoms: C5_8  and  C6_10 
REMARK    6  A    between atoms: C6_10  and  C7_11 
REMARK    7  A    between atoms: C7_11  and  N2_12 
REMARK       I    between atoms: N2_12  and  C8_13 
REMARK    8  A    between atoms: C8_13  and  C9_15 
REMARK    9  A    between atoms: C9_15  and  C10_16 
REMARK   10  A    between atoms: C9_15  and  O17_54 
REMARK   11  A    between atoms: C10_16  and  C13_19 
REMARK   12  A    between atoms: C13_19  and  O4_20 
REMARK   13  A    between atoms: O4_20  and  P1_21 
REMARK   14  A    between atoms: P1_21  and  O6_23 
REMARK   15  A    between atoms: P1_21  and  O7_24 
REMARK   16  A    between atoms: O7_24  and  P2_25 
REMARK   17  A    between atoms: P2_25  and  O9_27 
REMARK   18  A    between atoms: P2_25  and  O10_28 
REMARK   19  A    between atoms: O10_28  and  C14_29 
REMARK   20  A    between atoms: C14_29  and  C15_30 
REMARK   21  A    between atoms: C16_31  and  O13_49 
REMARK   22  A    between atoms: C17_32  and  O12_48 
REMARK   23  A    between atoms: C18_33  and  N3_35 
REMARK   24  A    between atoms: C21_40  and  N7_47 
REMARK   25  A    between atoms: O13_49  and  P3_50 
REMARK   26  A    between atoms: P3_50  and  O15_52 
REMARK   27  A    between atoms: P3_50  and  O16_53 
ROOT
HETATM    1  C1  UNL     1      20.075   7.686 -19.982  1.00  0.00     0.104 C 
HETATM    2  C2  UNL     1      21.198   6.702 -19.871  1.00  0.00     0.182 C 
HETATM    3  O1  UNL     1      21.941   6.417 -20.807  1.00  0.00    -0.286 OA
ENDROOT
BRANCH   2   4
HETATM    4  S1  UNL     1      21.347   5.948 -18.289  1.00  0.00    -0.091 SA
BRANCH   4   5
HETATM    5  C3  UNL     1      22.068   7.326 -17.340  1.00  0.00     0.102 C 
BRANCH   5   6
HETATM    6  C4  UNL     1      21.735   7.229 -15.850  1.00  0.00     0.133 C 
BRANCH   6   7
HETATM    7  N1  UNL     1      20.946   8.349 -15.379  1.00  0.00    -0.360 N 
HETATM    8  C5  UNL     1      19.577   8.274 -15.266  1.00  0.00     0.219 C 
HETATM    9  O2  UNL     1      18.938   7.294 -15.630  1.00  0.00    -0.274 OA
HETATM   10  H8  UNL     1      21.421   9.204 -15.121  1.00  0.00     0.162 HD
BRANCH   8  11
HETATM   11  C6  UNL     1      18.953   9.532 -14.703  1.00  0.00     0.122 C 
BRANCH  11  12
HETATM   12  C7  UNL     1      17.810  10.044 -15.580  1.00  0.00     0.132 C 
BRANCH  12  13
HETATM   13  N2  UNL     1      16.737   9.084 -15.730  1.00  0.00    -0.358 N 
HETATM   14  C8  UNL     1      15.805   9.233 -16.742  1.00  0.00     0.247 C 
HETATM   15  O3  UNL     1      15.777  10.223 -17.461  1.00  0.00    -0.271 OA
HETATM   16  H13 UNL     1      16.953   8.134 -15.433  1.00  0.00     0.162 HD
BRANCH  14  17
HETATM   17  C9  UNL     1      14.832   8.055 -16.899  1.00  0.00     0.219 C 
BRANCH  17  18
HETATM   18  C10 UNL     1      15.121   7.140 -18.118  1.00  0.00     0.009 C 
HETATM   19  C11 UNL     1      14.486   7.678 -19.409  1.00  0.00     0.020 C 
HETATM   20  C12 UNL     1      16.636   6.986 -18.362  1.00  0.00     0.020 C 
BRANCH  18  21
HETATM   21  C13 UNL     1      14.502   5.756 -17.769  1.00  0.00     0.192 C 
BRANCH  21  22
HETATM   22  O4  UNL     1      15.477   4.820 -17.355  1.00  0.00    -0.296 OA
BRANCH  22  23
HETATM   23  P1  UNL     1      15.358   3.249 -17.655  1.00  0.00     0.401 P 
HETATM   24  O5  UNL     1      15.668   2.377 -16.479  1.00  0.00    -0.631 OA
BRANCH  23  25
HETATM   25  O6  UNL     1      16.274   2.951 -18.944  1.00  0.00    -0.307 OA
HETATM   26  H23 UNL     1      17.075   3.491 -18.952  1.00  0.00     0.222 HD
ENDBRANCH  23  25
BRANCH  23  27
HETATM   27  O7  UNL     1      13.899   3.056 -18.260  1.00  0.00    -0.195 OA
BRANCH  27  28
HETATM   28  P2  UNL     1      13.419   1.590 -18.658  1.00  0.00     0.401 P 
HETATM   29  O8  UNL     1      14.256   0.849 -19.649  1.00  0.00    -0.631 OA
BRANCH  28  30
HETATM   30  O9  UNL     1      13.276   0.855 -17.248  1.00  0.00    -0.307 OA
HETATM   31  H24 UNL     1      14.122   0.786 -16.741  1.00  0.00     0.222 HD
ENDBRANCH  28  30
BRANCH  28  32
HETATM   32  O10 UNL     1      11.882   1.780 -19.047  1.00  0.00    -0.294 OA
BRANCH  32  33
HETATM   33  C14 UNL     1      10.878   1.249 -18.223  1.00  0.00     0.215 C 
BRANCH  33  34
HETATM   34  C15 UNL     1       9.955   2.414 -17.870  1.00  0.00     0.180 C 
HETATM   35  C16 UNL     1      10.329   3.637 -18.697  1.00  0.00     0.197 C 
HETATM   36  C17 UNL     1      10.752   4.676 -17.676  1.00  0.00     0.199 C 
HETATM   37  C18 UNL     1       9.994   4.226 -16.424  1.00  0.00     0.262 C 
HETATM   38  O11 UNL     1      10.025   2.783 -16.488  1.00  0.00    -0.353 OA
BRANCH  35  39
HETATM   39  O13 UNL     1       9.178   4.042 -19.430  1.00  0.00    -0.286 OA
BRANCH  39  40
HETATM   40  P3  UNL     1       9.421   4.345 -20.981  1.00  0.00     0.391 P 
HETATM   41  O14 UNL     1       8.399   3.732 -21.882  1.00  0.00    -0.632 OA
BRANCH  40  42
HETATM   42  O15 UNL     1      10.938   3.864 -21.146  1.00  0.00    -0.307 OA
HETATM   43  H36 UNL     1      11.349   4.274 -21.944  1.00  0.00     0.222 HD
ENDBRANCH  40  42
BRANCH  40  44
HETATM   44  O16 UNL     1       9.543   5.931 -20.977  1.00  0.00    -0.307 OA
HETATM   45  H37 UNL     1       9.137   6.341 -21.757  1.00  0.00     0.222 HD
ENDBRANCH  40  44
ENDBRANCH  39  40
ENDBRANCH  35  39
BRANCH  36  46
HETATM   46  O12 UNL     1      10.485   5.992 -18.168  1.00  0.00    -0.388 OA
HETATM   47  H35 UNL     1      10.609   5.953 -19.146  1.00  0.00     0.210 HD
ENDBRANCH  36  46
BRANCH  37  48
HETATM   48  N3  UNL     1      10.640   4.653 -15.199  1.00  0.00    -0.297 N 
HETATM   49  C19 UNL     1      11.717   5.500 -15.079  1.00  0.00     0.188 A 
HETATM   50  N4  UNL     1      11.986   5.790 -13.825  1.00  0.00    -0.346 N 
HETATM   51  C20 UNL     1      11.033   5.100 -13.096  1.00  0.00     0.116 A 
HETATM   52  H4  UNL     1      12.730   6.390 -13.468  1.00  0.00     0.167 HD
HETATM   53  C21 UNL     1      10.755   5.027 -11.720  1.00  0.00     0.109 A 
HETATM   54  C23 UNL     1      10.218   4.361 -13.933  1.00  0.00     0.142 A 
HETATM   55  N5  UNL     1       9.736   4.236 -11.304  1.00  0.00    -0.341 N 
HETATM   56  C22 UNL     1       9.040   3.552 -12.234  1.00  0.00     0.183 A 
HETATM   57  H5  UNL     1       9.502   4.160 -10.314  1.00  0.00     0.167 HD
HETATM   58  N6  UNL     1       9.207   3.550 -13.572  1.00  0.00    -0.336 N 
HETATM   59  H6  UNL     1       8.642   3.006 -14.225  1.00  0.00     0.168 HD
BRANCH  53  60
HETATM   60  N7  UNL     1      11.477   5.717 -10.758  1.00  0.00    -0.287 NA
HETATM   61  H33 UNL     1      11.666   5.182  -9.913  1.00  0.00     0.125 HD
HETATM   62  H34 UNL     1      11.161   6.669 -10.634  1.00  0.00     0.125 HD
ENDBRANCH  53  60
ENDBRANCH  37  48
ENDBRANCH  33  34
ENDBRANCH  32  33
ENDBRANCH  28  32
ENDBRANCH  27  28
ENDBRANCH  23  27
ENDBRANCH  22  23
ENDBRANCH  21  22
ENDBRANCH  18  21
ENDBRANCH  17  18
BRANCH  17  63
HETATM   63  O17 UNL     1      14.836   7.250 -15.715  1.00  0.00    -0.385 OA
HETATM   64  H38 UNL     1      15.754   7.173 -15.406  1.00  0.00     0.210 HD
ENDBRANCH  17  63
ENDBRANCH  14  17
ENDBRANCH  12  13
ENDBRANCH  11  12
ENDBRANCH   8  11
ENDBRANCH   6   7
ENDBRANCH   5   6
ENDBRANCH   4   5
ENDBRANCH   2   4
TORSDOF 27
ENDMDL
MODEL 19
REMARK VINA RESULT:      -4.8     16.332     19.846
REMARK  27 active torsions:
REMARK  status: ('A' for Active; 'I' for Inactive)
REMARK    1  A    between atoms: C2_2  and  S1_4 
REMARK    2  A    between atoms: S1_4  and  C3_5 
REMARK    3  A    between atoms: C3_5  and  C4_6 
REMARK    4  A    between atoms: C4_6  and  N1_7 
REMARK       I    between atoms: N1_7  and  C5_8 
REMARK    5  A    between atoms: C5_8  and  C6_10 
REMARK    6  A    between atoms: C6_10  and  C7_11 
REMARK    7  A    between atoms: C7_11  and  N2_12 
REMARK       I    between atoms: N2_12  and  C8_13 
REMARK    8  A    between atoms: C8_13  and  C9_15 
REMARK    9  A    between atoms: C9_15  and  C10_16 
REMARK   10  A    between atoms: C9_15  and  O17_54 
REMARK   11  A    between atoms: C10_16  and  C13_19 
REMARK   12  A    between atoms: C13_19  and  O4_20 
REMARK   13  A    between atoms: O4_20  and  P1_21 
REMARK   14  A    between atoms: P1_21  and  O6_23 
REMARK   15  A    between atoms: P1_21  and  O7_24 
REMARK   16  A    between atoms: O7_24  and  P2_25 
REMARK   17  A    between atoms: P2_25  and  O9_27 
REMARK   18  A    between atoms: P2_25  and  O10_28 
REMARK   19  A    between atoms: O10_28  and  C14_29 
REMARK   20  A    between atoms: C14_29  and  C15_30 
REMARK   21  A    between atoms: C16_31  and  O13_49 
REMARK   22  A    between atoms: C17_32  and  O12_48 
REMARK   23  A    between atoms: C18_33  and  N3_35 
REMARK   24  A    between atoms: C21_40  and  N7_47 
REMARK   25  A    between atoms: O13_49  and  P3_50 
REMARK   26  A    between atoms: P3_50  and  O15_52 
REMARK   27  A    between atoms: P3_50  and  O16_53 
ROOT
HETATM    1  C1  UNL     1      17.666  22.880  -5.295  1.00  0.00     0.104 C 
HETATM    2  C2  UNL     1      17.819  21.424  -5.615  1.00  0.00     0.182 C 
HETATM    3  O1  UNL     1      18.908  20.863  -5.701  1.00  0.00    -0.286 OA
ENDROOT
BRANCH   2   4
HETATM    4  S1  UNL     1      16.302  20.582  -5.902  1.00  0.00    -0.091 SA
BRANCH   4   5
HETATM    5  C3  UNL     1      16.520  20.108  -7.647  1.00  0.00     0.102 C 
BRANCH   5   6
HETATM    6  C4  UNL     1      15.757  18.826  -7.989  1.00  0.00     0.133 C 
BRANCH   6   7
HETATM    7  N1  UNL     1      16.290  18.153  -9.156  1.00  0.00    -0.360 N 
HETATM    8  C5  UNL     1      15.901  18.496 -10.430  1.00  0.00     0.219 C 
HETATM    9  O2  UNL     1      15.029  19.328 -10.653  1.00  0.00    -0.274 OA
HETATM   10  H8  UNL     1      16.971  17.417  -9.024  1.00  0.00     0.162 HD
BRANCH   8  11
HETATM   11  C6  UNL     1      16.617  17.710 -11.507  1.00  0.00     0.122 C 
BRANCH  11  12
HETATM   12  C7  UNL     1      16.145  18.099 -12.907  1.00  0.00     0.132 C 
BRANCH  12  13
HETATM   13  N2  UNL     1      14.851  17.544 -13.245  1.00  0.00    -0.358 N 
HETATM   14  C8  UNL     1      14.765  16.394 -14.009  1.00  0.00     0.247 C 
HETATM   15  O3  UNL     1      15.749  15.876 -14.521  1.00  0.00    -0.271 OA
HETATM   16  H13 UNL     1      14.113  17.706 -12.563  1.00  0.00     0.162 HD
BRANCH  14  17
HETATM   17  C9  UNL     1      13.348  15.815 -14.143  1.00  0.00     0.219 C 
BRANCH  17  18
HETATM   18  C10 UNL     1      12.582  16.279 -15.409  1.00  0.00     0.009 C 
HETATM   19  C11 UNL     1      13.504  16.972 -16.422  1.00  0.00     0.020 C 
HETATM   20  C12 UNL     1      11.898  15.094 -16.122  1.00  0.00     0.020 C 
BRANCH  18  21
HETATM   21  C13 UNL     1      11.504  17.284 -14.911  1.00  0.00     0.192 C 
BRANCH  21  22
HETATM   22  O4  UNL     1      11.620  17.558 -13.529  1.00  0.00    -0.296 OA
BRANCH  22  23
HETATM   23  P1  UNL     1      11.324  19.002 -12.900  1.00  0.00     0.401 P 
HETATM   24  O5  UNL     1      10.412  19.854 -13.726  1.00  0.00    -0.631 OA
BRANCH  23  25
HETATM   25  O6  UNL     1      12.752  19.681 -12.600  1.00  0.00    -0.307 OA
HETATM   26  H23 UNL     1      12.768  20.615 -12.846  1.00  0.00     0.222 HD
ENDBRANCH  23  25
BRANCH  23  27
HETATM   27  O7  UNL     1      10.805  18.709 -11.425  1.00  0.00    -0.195 OA
BRANCH  27  28
HETATM   28  P2  UNL     1      11.303  17.391 -10.681  1.00  0.00     0.401 P 
HETATM   29  O8  UNL     1      10.733  16.093 -11.151  1.00  0.00    -0.631 OA
BRANCH  28  30
HETATM   30  O9  UNL     1      12.893  17.484 -10.796  1.00  0.00    -0.307 OA
HETATM   31  H24 UNL     1      13.228  17.539 -11.725  1.00  0.00     0.222 HD
ENDBRANCH  28  30
BRANCH  28  32
HETATM   32  O10 UNL     1      11.101  17.722  -9.132  1.00  0.00    -0.294 OA
BRANCH  32  33
HETATM   33  C14 UNL     1      12.199  17.692  -8.258  1.00  0.00     0.215 C 
BRANCH  33  34
HETATM   34  C15 UNL     1      11.632  17.880  -6.853  1.00  0.00     0.180 C 
HETATM   35  C16 UNL     1      12.205  19.146  -6.230  1.00  0.00     0.197 C 
HETATM   36  C17 UNL     1      12.974  18.663  -5.015  1.00  0.00     0.199 C 
HETATM   37  C18 UNL     1      12.264  17.347  -4.686  1.00  0.00     0.262 C 
HETATM   38  O11 UNL     1      11.935  16.788  -5.977  1.00  0.00    -0.353 OA
BRANCH  35  39
HETATM   39  O13 UNL     1      11.118  19.994  -5.875  1.00  0.00    -0.286 OA
BRANCH  39  40
HETATM   40  P3  UNL     1      11.233  21.508  -6.376  1.00  0.00     0.391 P 
HETATM   41  O14 UNL     1       9.985  22.029  -7.011  1.00  0.00    -0.632 OA
BRANCH  40  42
HETATM   42  O15 UNL     1      12.547  21.424  -7.284  1.00  0.00    -0.307 OA
HETATM   43  H36 UNL     1      12.312  21.457  -8.242  1.00  0.00     0.222 HD
ENDBRANCH  40  42
BRANCH  40  44
HETATM   44  O16 UNL     1      11.749  22.237  -5.060  1.00  0.00    -0.307 OA
HETATM   45  H37 UNL     1      11.229  23.026  -4.838  1.00  0.00     0.222 HD
ENDBRANCH  40  44
ENDBRANCH  39  40
ENDBRANCH  35  39
BRANCH  36  46
HETATM   46  O12 UNL     1      12.986  19.673  -4.002  1.00  0.00    -0.388 OA
HETATM   47  H35 UNL     1      13.819  20.186  -4.133  1.00  0.00     0.210 HD
ENDBRANCH  36  46
BRANCH  37  48
HETATM   48  N3  UNL     1      13.120  16.415  -3.979  1.00  0.00    -0.297 N 
HETATM   49  C19 UNL     1      12.907  15.872  -2.734  1.00  0.00     0.188 A 
HETATM   50  N4  UNL     1      13.805  14.962  -2.427  1.00  0.00    -0.346 N 
HETATM   51  C20 UNL     1      14.639  14.909  -3.530  1.00  0.00     0.116 A 
HETATM   52  H4  UNL     1      13.873  14.417  -1.567  1.00  0.00     0.167 HD
HETATM   53  C21 UNL     1      15.756  14.115  -3.842  1.00  0.00     0.109 A 
HETATM   54  C23 UNL     1      14.249  15.832  -4.483  1.00  0.00     0.142 A 
HETATM   55  N5  UNL     1      16.382  14.312  -5.029  1.00  0.00    -0.341 N 
HETATM   56  C22 UNL     1      15.903  15.267  -5.851  1.00  0.00     0.183 A 
HETATM   57  H5  UNL     1      17.193  13.753  -5.292  1.00  0.00     0.167 HD
HETATM   58  N6  UNL     1      14.842  16.078  -5.664  1.00  0.00    -0.336 N 
HETATM   59  H6  UNL     1      14.530  16.785  -6.331  1.00  0.00     0.168 HD
BRANCH  53  60
HETATM   60  N7  UNL     1      16.261  13.142  -2.994  1.00  0.00    -0.287 NA
HETATM   61  H33 UNL     1      15.903  13.189  -2.042  1.00  0.00     0.125 HD
HETATM   62  H34 UNL     1      17.258  13.005  -3.100  1.00  0.00     0.125 HD
ENDBRANCH  53  60
ENDBRANCH  37  48
ENDBRANCH  33  34
ENDBRANCH  32  33
ENDBRANCH  28  32
ENDBRANCH  27  28
ENDBRANCH  23  27
ENDBRANCH  22  23
ENDBRANCH  21  22
ENDBRANCH  18  21
ENDBRANCH  17  18
BRANCH  17  63
HETATM   63  O17 UNL     1      13.398  14.384 -14.140  1.00  0.00    -0.385 OA
HETATM   64  H38 UNL     1      12.515  14.052 -13.907  1.00  0.00     0.210 HD
ENDBRANCH  17  63
ENDBRANCH  14  17
ENDBRANCH  12  13
ENDBRANCH  11  12
ENDBRANCH   8  11
ENDBRANCH   6   7
ENDBRANCH   5   6
ENDBRANCH   4   5
ENDBRANCH   2   4
TORSDOF 27
ENDMDL
MODEL 20
REMARK VINA RESULT:      -4.7      7.065     10.269
REMARK  27 active torsions:
REMARK  status: ('A' for Active; 'I' for Inactive)
REMARK    1  A    between atoms: C2_2  and  S1_4 
REMARK    2  A    between atoms: S1_4  and  C3_5 
REMARK    3  A    between atoms: C3_5  and  C4_6 
REMARK    4  A    between atoms: C4_6  and  N1_7 
REMARK       I    between atoms: N1_7  and  C5_8 
REMARK    5  A    between atoms: C5_8  and  C6_10 
REMARK    6  A    between atoms: C6_10  and  C7_11 
REMARK    7  A    between atoms: C7_11  and  N2_12 
REMARK       I    between atoms: N2_12  and  C8_13 
REMARK    8  A    between atoms: C8_13  and  C9_15 
REMARK    9  A    between atoms: C9_15  and  C10_16 
REMARK   10  A    between atoms: C9_15  and  O17_54 
REMARK   11  A    between atoms: C10_16  and  C13_19 
REMARK   12  A    between atoms: C13_19  and  O4_20 
REMARK   13  A    between atoms: O4_20  and  P1_21 
REMARK   14  A    between atoms: P1_21  and  O6_23 
REMARK   15  A    between atoms: P1_21  and  O7_24 
REMARK   16  A    between atoms: O7_24  and  P2_25 
REMARK   17  A    between atoms: P2_25  and  O9_27 
REMARK   18  A    between atoms: P2_25  and  O10_28 
REMARK   19  A    between atoms: O10_28  and  C14_29 
REMARK   20  A    between atoms: C14_29  and  C15_30 
REMARK   21  A    between atoms: C16_31  and  O13_49 
REMARK   22  A    between atoms: C17_32  and  O12_48 
REMARK   23  A    between atoms: C18_33  and  N3_35 
REMARK   24  A    between atoms: C21_40  and  N7_47 
REMARK   25  A    between atoms: O13_49  and  P3_50 
REMARK   26  A    between atoms: P3_50  and  O15_52 
REMARK   27  A    between atoms: P3_50  and  O16_53 
ROOT
HETATM    1  C1  UNL     1      11.520   5.489 -22.254  1.00  0.00     0.104 C 
HETATM    2  C2  UNL     1      12.114   5.505 -20.879  1.00  0.00     0.182 C 
HETATM    3  O1  UNL     1      11.922   6.411 -20.072  1.00  0.00    -0.286 OA
ENDROOT
BRANCH   2   4
HETATM    4  S1  UNL     1      13.149   4.130 -20.520  1.00  0.00    -0.091 SA
BRANCH   4   5
HETATM    5  C3  UNL     1      12.793   3.071 -21.959  1.00  0.00     0.102 C 
BRANCH   5   6
HETATM    6  C4  UNL     1      13.933   2.092 -22.243  1.00  0.00     0.133 C 
BRANCH   6   7
HETATM    7  N1  UNL     1      13.671   0.764 -21.728  1.00  0.00    -0.360 N 
HETATM    8  C5  UNL     1      13.211  -0.249 -22.537  1.00  0.00     0.219 C 
HETATM    9  O2  UNL     1      12.919  -0.072 -23.714  1.00  0.00    -0.274 OA
HETATM   10  H8  UNL     1      13.840   0.580 -20.748  1.00  0.00     0.162 HD
BRANCH   8  11
HETATM   11  C6  UNL     1      13.056  -1.570 -21.814  1.00  0.00     0.122 C 
BRANCH  11  12
HETATM   12  C7  UNL     1      14.402  -2.134 -21.361  1.00  0.00     0.132 C 
BRANCH  12  13
HETATM   13  N2  UNL     1      14.452  -2.413 -19.942  1.00  0.00    -0.358 N 
HETATM   14  C8  UNL     1      14.820  -1.424 -19.049  1.00  0.00     0.247 C 
HETATM   15  O3  UNL     1      15.226  -0.329 -19.420  1.00  0.00    -0.271 OA
HETATM   16  H13 UNL     1      13.797  -3.119 -19.611  1.00  0.00     0.162 HD
BRANCH  14  17
HETATM   17  C9  UNL     1      14.660  -1.800 -17.568  1.00  0.00     0.219 C 
BRANCH  17  18
HETATM   18  C10 UNL     1      15.991  -2.123 -16.840  1.00  0.00     0.009 C 
HETATM   19  C11 UNL     1      15.932  -3.464 -16.095  1.00  0.00     0.020 C 
HETATM   20  C12 UNL     1      17.176  -2.179 -17.825  1.00  0.00     0.020 C 
BRANCH  18  21
HETATM   21  C13 UNL     1      16.211  -0.968 -15.820  1.00  0.00     0.192 C 
BRANCH  21  22
HETATM   22  O4  UNL     1      17.239  -0.085 -16.221  1.00  0.00    -0.296 OA
BRANCH  22  23
HETATM   23  P1  UNL     1      16.965   1.439 -16.636  1.00  0.00     0.401 P 
HETATM   24  O5  UNL     1      17.161   1.722 -18.092  1.00  0.00    -0.631 OA
BRANCH  23  25
HETATM   25  O6  UNL     1      17.870   2.354 -15.669  1.00  0.00    -0.307 OA
HETATM   26  H23 UNL     1      18.062   1.915 -14.830  1.00  0.00     0.222 HD
ENDBRANCH  23  25
BRANCH  23  27
HETATM   27  O7  UNL     1      15.507   1.759 -16.087  1.00  0.00    -0.195 OA
BRANCH  27  28
HETATM   28  P2  UNL     1      14.578   2.760 -16.907  1.00  0.00     0.401 P 
HETATM   29  O8  UNL     1      15.145   4.105 -17.222  1.00  0.00    -0.631 OA
BRANCH  28  30
HETATM   30  O9  UNL     1      14.168   1.908 -18.195  1.00  0.00    -0.307 OA
HETATM   31  H24 UNL     1      14.936   1.535 -18.692  1.00  0.00     0.222 HD
ENDBRANCH  28  30
BRANCH  28  32
HETATM   32  O10 UNL     1      13.199   2.755 -16.102  1.00  0.00    -0.294 OA
BRANCH  32  33
HETATM   33  C14 UNL     1      12.960   3.722 -15.113  1.00  0.00     0.215 C 
BRANCH  33  34
HETATM   34  C15 UNL     1      11.899   4.662 -15.683  1.00  0.00     0.180 C 
HETATM   35  C16 UNL     1      10.588   4.478 -14.929  1.00  0.00     0.197 C 
HETATM   36  C17 UNL     1       9.607   3.990 -15.978  1.00  0.00     0.199 C 
HETATM   37  C18 UNL     1      10.211   4.546 -17.269  1.00  0.00     0.262 C 
HETATM   38  O11 UNL     1      11.638   4.433 -17.073  1.00  0.00    -0.353 OA
BRANCH  35  39
HETATM   39  O13 UNL     1      10.211   5.739 -14.386  1.00  0.00    -0.286 OA
BRANCH  39  40
HETATM   40  P3  UNL     1      10.160   5.814 -12.790  1.00  0.00     0.391 P 
HETATM   41  O14 UNL     1      11.478   5.563 -12.132  1.00  0.00    -0.632 OA
BRANCH  40  42
HETATM   42  O15 UNL     1       8.971   4.790 -12.480  1.00  0.00    -0.307 OA
HETATM   43  H36 UNL     1       8.991   4.508 -11.535  1.00  0.00     0.222 HD
ENDBRANCH  40  42
BRANCH  40  44
HETATM   44  O16 UNL     1       9.482   7.234 -12.563  1.00  0.00    -0.307 OA
HETATM   45  H37 UNL     1       9.956   7.778 -11.914  1.00  0.00     0.222 HD
ENDBRANCH  40  44
ENDBRANCH  39  40
ENDBRANCH  35  39
BRANCH  36  46
HETATM   46  O12 UNL     1       8.279   4.402 -15.644  1.00  0.00    -0.388 OA
HETATM   47  H35 UNL     1       8.280   5.389 -15.667  1.00  0.00     0.210 HD
ENDBRANCH  36  46
BRANCH  37  48
HETATM   48  N3  UNL     1       9.839   3.772 -18.437  1.00  0.00    -0.297 N 
HETATM   49  C19 UNL     1       9.133   4.209 -19.533  1.00  0.00     0.188 A 
HETATM   50  N4  UNL     1       9.068   3.298 -20.480  1.00  0.00    -0.346 N 
HETATM   51  C20 UNL     1       9.771   2.219 -19.974  1.00  0.00     0.116 A 
HETATM   52  H4  UNL     1       8.604   3.371 -21.385  1.00  0.00     0.167 HD
HETATM   53  C21 UNL     1      10.101   0.962 -20.509  1.00  0.00     0.109 A 
HETATM   54  C23 UNL     1      10.220   2.485 -18.693  1.00  0.00     0.142 A 
HETATM   55  N5  UNL     1      10.810   0.096 -19.743  1.00  0.00    -0.341 N 
HETATM   56  C22 UNL     1      11.160   0.484 -18.501  1.00  0.00     0.183 A 
HETATM   57  H5  UNL     1      11.071  -0.823 -20.098  1.00  0.00     0.167 HD
HETATM   58  N6  UNL     1      10.911   1.659 -17.887  1.00  0.00    -0.336 N 
HETATM   59  H6  UNL     1      11.206   1.890 -16.939  1.00  0.00     0.168 HD
BRANCH  53  60
HETATM   60  N7  UNL     1       9.730   0.553 -21.780  1.00  0.00    -0.287 NA
HETATM   61  H33 UNL     1       9.795  -0.451 -21.933  1.00  0.00     0.125 HD
HETATM   62  H34 UNL     1      10.099   1.149 -22.509  1.00  0.00     0.125 HD
ENDBRANCH  53  60
ENDBRANCH  37  48
ENDBRANCH  33  34
ENDBRANCH  32  33
ENDBRANCH  28  32
ENDBRANCH  27  28
ENDBRANCH  23  27
ENDBRANCH  22  23
ENDBRANCH  21  22
ENDBRANCH  18  21
ENDBRANCH  17  18
BRANCH  17  63
HETATM   63  O17 UNL     1      13.999  -0.745 -16.861  1.00  0.00    -0.385 OA
HETATM   64  H38 UNL     1      13.254  -0.438 -17.404  1.00  0.00     0.210 HD
ENDBRANCH  17  63
ENDBRANCH  14  17
ENDBRANCH  12  13
ENDBRANCH  11  12
ENDBRANCH   8  11
ENDBRANCH   6   7
ENDBRANCH   5   6
ENDBRANCH   4   5
ENDBRANCH   2   4
TORSDOF 27
ENDMDL
