MODEL 1
REMARK VINA RESULT:      -3.5      0.000      0.000
REMARK  2 active torsions:
REMARK  status: ('A' for Active; 'I' for Inactive)
REMARK    1  A    between atoms: C3_3  and  O1_10 
REMARK    2  A    between atoms: C6_6  and  N1_7 
ROOT
HETATM    1  C1  PAP L   1     -16.673   7.093   2.293  1.00  0.00     0.026 A 
HETATM    2  C2  PAP L   1     -17.492   8.205   2.509  1.00  0.00     0.038 A 
HETATM    3  C3  PAP L   1     -17.336   8.959   3.664  1.00  0.00     0.065 A 
HETATM    4  C4  PAP L   1     -16.364   8.628   4.600  1.00  0.00     0.038 A 
HETATM    5  C5  PAP L   1     -15.549   7.513   4.378  1.00  0.00     0.026 A 
HETATM    6  C6  PAP L   1     -15.729   6.707   3.249  1.00  0.00     0.005 A 
ENDROOT
BRANCH   6   7
HETATM    7  N1  PAP L   1     -14.833   5.667   2.976  1.00  0.00    -0.303 NA
HETATM    8  H5  PAP L   1     -13.937   5.984   2.620  1.00  0.00     0.124 HD
HETATM    9  H6  PAP L   1     -15.230   4.921   2.414  1.00  0.00     0.124 HD
ENDBRANCH   6   7
BRANCH   3  10
HETATM   10  O1  PAP L   1     -18.152  10.036   3.837  1.00  0.00    -0.361 OA
HETATM   11  H7  PAP L   1     -18.883   9.978   3.201  1.00  0.00     0.217 HD
ENDBRANCH   3  10
TORSDOF 2
ENDMDL
MODEL 2
REMARK VINA RESULT:      -3.5      2.780      3.262
REMARK  2 active torsions:
REMARK  status: ('A' for Active; 'I' for Inactive)
REMARK    1  A    between atoms: C3_3  and  O1_10 
REMARK    2  A    between atoms: C6_6  and  N1_7 
ROOT
HETATM    1  C1  PAP L   1     -17.392   8.119   2.406  1.00  0.00     0.026 A 
HETATM    2  C2  PAP L   1     -16.590   6.976   2.344  1.00  0.00     0.038 A 
HETATM    3  C3  PAP L   1     -15.777   6.648   3.420  1.00  0.00     0.065 A 
HETATM    4  C4  PAP L   1     -15.764   7.437   4.565  1.00  0.00     0.038 A 
HETATM    5  C5  PAP L   1     -16.568   8.579   4.619  1.00  0.00     0.026 A 
HETATM    6  C6  PAP L   1     -17.350   8.959   3.522  1.00  0.00     0.005 A 
ENDROOT
BRANCH   6   7
HETATM    7  N1  PAP L   1     -18.240  10.034   3.630  1.00  0.00    -0.303 NA
HETATM    8  H5  PAP L   1     -18.472  10.277   4.587  1.00  0.00     0.124 HD
HETATM    9  H6  PAP L   1     -19.063   9.945   3.044  1.00  0.00     0.124 HD
ENDBRANCH   6   7
BRANCH   3  10
HETATM   10  O1  PAP L   1     -15.011   5.525   3.322  1.00  0.00    -0.361 OA
HETATM   11  H7  PAP L   1     -15.567   4.798   2.997  1.00  0.00     0.217 HD
ENDBRANCH   3  10
TORSDOF 2
ENDMDL
MODEL 3
REMARK VINA RESULT:      -3.4      2.548      3.279
REMARK  2 active torsions:
REMARK  status: ('A' for Active; 'I' for Inactive)
REMARK    1  A    between atoms: C3_3  and  O1_10 
REMARK    2  A    between atoms: C6_6  and  N1_7 
ROOT
HETATM    1  C1  PAP L   1     -16.644   7.703   2.810  1.00  0.00     0.026 A 
HETATM    2  C2  PAP L   1     -16.987   7.420   1.485  1.00  0.00     0.038 A 
HETATM    3  C3  PAP L   1     -16.569   6.229   0.907  1.00  0.00     0.065 A 
HETATM    4  C4  PAP L   1     -15.827   5.308   1.637  1.00  0.00     0.038 A 
HETATM    5  C5  PAP L   1     -15.486   5.599   2.962  1.00  0.00     0.026 A 
HETATM    6  C6  PAP L   1     -15.847   6.819   3.544  1.00  0.00     0.005 A 
ENDROOT
BRANCH   6   7
HETATM    7  N1  PAP L   1     -15.607   7.050   4.903  1.00  0.00    -0.303 NA
HETATM    8  H5  PAP L   1     -14.982   7.829   5.080  1.00  0.00     0.124 HD
HETATM    9  H6  PAP L   1     -15.342   6.217   5.420  1.00  0.00     0.124 HD
ENDBRANCH   6   7
BRANCH   3  10
HETATM   10  O1  PAP L   1     -16.926   5.989  -0.386  1.00  0.00    -0.361 OA
HETATM   11  H7  PAP L   1     -16.135   5.723  -0.882  1.00  0.00     0.217 HD
ENDBRANCH   3  10
TORSDOF 2
ENDMDL
MODEL 4
REMARK VINA RESULT:      -3.4      2.600      3.375
REMARK  2 active torsions:
REMARK  status: ('A' for Active; 'I' for Inactive)
REMARK    1  A    between atoms: C3_3  and  O1_10 
REMARK    2  A    between atoms: C6_6  and  N1_7 
ROOT
HETATM    1  C1  PAP L   1     -15.450   5.538   2.922  1.00  0.00     0.026 A 
HETATM    2  C2  PAP L   1     -15.761   5.314   1.578  1.00  0.00     0.038 A 
HETATM    3  C3  PAP L   1     -16.698   6.120   0.946  1.00  0.00     0.065 A 
HETATM    4  C4  PAP L   1     -17.318   7.158   1.632  1.00  0.00     0.038 A 
HETATM    5  C5  PAP L   1     -17.002   7.376   2.977  1.00  0.00     0.026 A 
HETATM    6  C6  PAP L   1     -16.105   6.538   3.648  1.00  0.00     0.005 A 
ENDROOT
BRANCH   6   7
HETATM    7  N1  PAP L   1     -15.706   6.836   4.956  1.00  0.00    -0.303 NA
HETATM    8  H5  PAP L   1     -15.708   7.829   5.167  1.00  0.00     0.124 HD
HETATM    9  H6  PAP L   1     -14.840   6.385   5.233  1.00  0.00     0.124 HD
ENDBRANCH   6   7
BRANCH   3  10
HETATM   10  O1  PAP L   1     -16.972   5.871  -0.365  1.00  0.00    -0.361 OA
HETATM   11  H7  PAP L   1     -17.355   4.982  -0.439  1.00  0.00     0.217 HD
ENDBRANCH   3  10
TORSDOF 2
ENDMDL
MODEL 5
REMARK VINA RESULT:      -3.4      2.116      2.944
REMARK  2 active torsions:
REMARK  status: ('A' for Active; 'I' for Inactive)
REMARK    1  A    between atoms: C3_3  and  O1_10 
REMARK    2  A    between atoms: C6_6  and  N1_7 
ROOT
HETATM    1  C1  PAP L   1     -15.419   5.290   2.119  1.00  0.00     0.026 A 
HETATM    2  C2  PAP L   1     -15.556   5.888   3.375  1.00  0.00     0.038 A 
HETATM    3  C3  PAP L   1     -16.562   6.821   3.586  1.00  0.00     0.065 A 
HETATM    4  C4  PAP L   1     -17.444   7.155   2.565  1.00  0.00     0.038 A 
HETATM    5  C5  PAP L   1     -17.301   6.554   1.311  1.00  0.00     0.026 A 
HETATM    6  C6  PAP L   1     -16.258   5.655   1.061  1.00  0.00     0.005 A 
ENDROOT
BRANCH   6   7
HETATM    7  N1  PAP L   1     -16.195   4.970  -0.157  1.00  0.00    -0.303 NA
HETATM    8  H5  PAP L   1     -15.539   4.196  -0.157  1.00  0.00     0.124 HD
HETATM    9  H6  PAP L   1     -16.076   5.576  -0.963  1.00  0.00     0.124 HD
ENDBRANCH   6   7
BRANCH   3  10
HETATM   10  O1  PAP L   1     -16.664   7.380   4.824  1.00  0.00    -0.361 OA
HETATM   11  H7  PAP L   1     -17.417   7.992   4.827  1.00  0.00     0.217 HD
ENDBRANCH   3  10
TORSDOF 2
ENDMDL
MODEL 6
REMARK VINA RESULT:      -3.3      1.702      2.129
REMARK  2 active torsions:
REMARK  status: ('A' for Active; 'I' for Inactive)
REMARK    1  A    between atoms: C3_3  and  O1_10 
REMARK    2  A    between atoms: C6_6  and  N1_7 
ROOT
HETATM    1  C1  PAP L   1     -15.537   6.820   3.184  1.00  0.00     0.026 A 
HETATM    2  C2  PAP L   1     -16.806   6.556   2.662  1.00  0.00     0.038 A 
HETATM    3  C3  PAP L   1     -17.873   7.375   3.002  1.00  0.00     0.065 A 
HETATM    4  C4  PAP L   1     -17.689   8.466   3.844  1.00  0.00     0.038 A 
HETATM    5  C5  PAP L   1     -16.416   8.723   4.364  1.00  0.00     0.026 A 
HETATM    6  C6  PAP L   1     -15.341   7.875   4.080  1.00  0.00     0.005 A 
ENDROOT
BRANCH   6   7
HETATM    7  N1  PAP L   1     -14.050   8.207   4.506  1.00  0.00    -0.303 NA
HETATM    8  H5  PAP L   1     -13.624   7.506   5.102  1.00  0.00     0.124 HD
HETATM    9  H6  PAP L   1     -13.974   9.142   4.894  1.00  0.00     0.124 HD
ENDBRANCH   6   7
BRANCH   3  10
HETATM   10  O1  PAP L   1     -19.094   7.087   2.470  1.00  0.00    -0.361 OA
HETATM   11  H7  PAP L   1     -19.662   6.733   3.173  1.00  0.00     0.217 HD
ENDBRANCH   3  10
TORSDOF 2
ENDMDL
MODEL 7
REMARK VINA RESULT:      -3.3      2.495      3.166
REMARK  2 active torsions:
REMARK  status: ('A' for Active; 'I' for Inactive)
REMARK    1  A    between atoms: C3_3  and  O1_10 
REMARK    2  A    between atoms: C6_6  and  N1_7 
ROOT
HETATM    1  C1  PAP L   1     -18.254   7.909   3.048  1.00  0.00     0.026 A 
HETATM    2  C2  PAP L   1     -17.449   7.743   4.178  1.00  0.00     0.038 A 
HETATM    3  C3  PAP L   1     -16.347   6.901   4.119  1.00  0.00     0.065 A 
HETATM    4  C4  PAP L   1     -16.027   6.234   2.942  1.00  0.00     0.038 A 
HETATM    5  C5  PAP L   1     -16.838   6.405   1.815  1.00  0.00     0.026 A 
HETATM    6  C6  PAP L   1     -17.986   7.202   1.872  1.00  0.00     0.005 A 
ENDROOT
BRANCH   6   7
HETATM    7  N1  PAP L   1     -18.721   7.462   0.711  1.00  0.00    -0.303 NA
HETATM    8  H5  PAP L   1     -18.829   6.654   0.107  1.00  0.00     0.124 HD
HETATM    9  H6  PAP L   1     -18.411   8.284   0.203  1.00  0.00     0.124 HD
ENDBRANCH   6   7
BRANCH   3  10
HETATM   10  O1  PAP L   1     -15.585   6.766   5.241  1.00  0.00    -0.361 OA
HETATM   11  H7  PAP L   1     -14.797   6.245   5.020  1.00  0.00     0.217 HD
ENDBRANCH   3  10
TORSDOF 2
ENDMDL
MODEL 8
REMARK VINA RESULT:      -3.0     15.675     15.789
REMARK  2 active torsions:
REMARK  status: ('A' for Active; 'I' for Inactive)
REMARK    1  A    between atoms: C3_3  and  O1_10 
REMARK    2  A    between atoms: C6_6  and  N1_7 
ROOT
HETATM    1  C1  PAP L   1     -13.802  20.193  12.654  1.00  0.00     0.026 A 
HETATM    2  C2  PAP L   1     -15.180  20.106  12.868  1.00  0.00     0.038 A 
HETATM    3  C3  PAP L   1     -15.663  19.389  13.954  1.00  0.00     0.065 A 
HETATM    4  C4  PAP L   1     -14.788  18.769  14.840  1.00  0.00     0.038 A 
HETATM    5  C5  PAP L   1     -13.410  18.860  14.618  1.00  0.00     0.026 A 
HETATM    6  C6  PAP L   1     -12.907  19.528  13.498  1.00  0.00     0.005 A 
ENDROOT
BRANCH   6   7
HETATM    7  N1  PAP L   1     -11.527  19.715  13.350  1.00  0.00    -0.303 NA
HETATM    8  H5  PAP L   1     -10.996  19.506  14.188  1.00  0.00     0.124 HD
HETATM    9  H6  PAP L   1     -11.276  20.612  12.947  1.00  0.00     0.124 HD
ENDBRANCH   6   7
BRANCH   3  10
HETATM   10  O1  PAP L   1     -17.012  19.329  14.130  1.00  0.00    -0.361 OA
HETATM   11  H7  PAP L   1     -17.437  19.273  13.259  1.00  0.00     0.217 HD
ENDBRANCH   3  10
TORSDOF 2
ENDMDL
MODEL 9
REMARK VINA RESULT:      -3.0     15.845     16.041
REMARK  2 active torsions:
REMARK  status: ('A' for Active; 'I' for Inactive)
REMARK    1  A    between atoms: C3_3  and  O1_10 
REMARK    2  A    between atoms: C6_6  and  N1_7 
ROOT
HETATM    1  C1  PAP L   1     -14.746  18.831  14.724  1.00  0.00     0.026 A 
HETATM    2  C2  PAP L   1     -13.360  18.862  14.544  1.00  0.00     0.038 A 
HETATM    3  C3  PAP L   1     -12.822  19.563  13.474  1.00  0.00     0.065 A 
HETATM    4  C4  PAP L   1     -13.647  20.247  12.588  1.00  0.00     0.038 A 
HETATM    5  C5  PAP L   1     -15.032  20.210  12.774  1.00  0.00     0.026 A 
HETATM    6  C6  PAP L   1     -15.597  19.461  13.812  1.00  0.00     0.005 A 
ENDROOT
BRANCH   6   7
HETATM    7  N1  PAP L   1     -16.973  19.528  14.060  1.00  0.00    -0.303 NA
HETATM    8  H5  PAP L   1     -17.334  20.475  14.105  1.00  0.00     0.124 HD
HETATM    9  H6  PAP L   1     -17.275  18.962  14.846  1.00  0.00     0.124 HD
ENDBRANCH   6   7
BRANCH   3  10
HETATM   10  O1  PAP L   1     -11.467  19.572  13.334  1.00  0.00    -0.361 OA
HETATM   11  H7  PAP L   1     -11.068  19.238  14.153  1.00  0.00     0.217 HD
ENDBRANCH   3  10
TORSDOF 2
ENDMDL
MODEL 10
REMARK VINA RESULT:      -3.0      1.697      2.474
REMARK  2 active torsions:
REMARK  status: ('A' for Active; 'I' for Inactive)
REMARK    1  A    between atoms: C3_3  and  O1_10 
REMARK    2  A    between atoms: C6_6  and  N1_7 
ROOT
HETATM    1  C1  PAP L   1     -17.051   8.217   3.915  1.00  0.00     0.026 A 
HETATM    2  C2  PAP L   1     -18.364   8.299   3.443  1.00  0.00     0.038 A 
HETATM    3  C3  PAP L   1     -18.740   7.569   2.325  1.00  0.00     0.065 A 
HETATM    4  C4  PAP L   1     -17.827   6.743   1.678  1.00  0.00     0.038 A 
HETATM    5  C5  PAP L   1     -16.515   6.666   2.155  1.00  0.00     0.026 A 
HETATM    6  C6  PAP L   1     -16.102   7.440   3.245  1.00  0.00     0.005 A 
ENDROOT
BRANCH   6   7
HETATM    7  N1  PAP L   1     -14.823   7.266   3.787  1.00  0.00    -0.303 NA
HETATM    8  H5  PAP L   1     -14.120   7.014   3.100  1.00  0.00     0.124 HD
HETATM    9  H6  PAP L   1     -14.801   6.662   4.601  1.00  0.00     0.124 HD
ENDBRANCH   6   7
BRANCH   3  10
HETATM   10  O1  PAP L   1     -20.029   7.674   1.898  1.00  0.00    -0.361 OA
HETATM   11  H7  PAP L   1     -20.026   7.870   0.947  1.00  0.00     0.217 HD
ENDBRANCH   3  10
TORSDOF 2
ENDMDL
MODEL 11
REMARK VINA RESULT:      -3.0     11.071     11.904
REMARK  2 active torsions:
REMARK  status: ('A' for Active; 'I' for Inactive)
REMARK    1  A    between atoms: C3_3  and  O1_10 
REMARK    2  A    between atoms: C6_6  and  N1_7 
ROOT
HETATM    1  C1  PAP L   1      -8.984  17.259   7.309  1.00  0.00     0.026 A 
HETATM    2  C2  PAP L   1      -9.591  17.792   8.450  1.00  0.00     0.038 A 
HETATM    3  C3  PAP L   1     -10.821  17.301   8.866  1.00  0.00     0.065 A 
HETATM    4  C4  PAP L   1     -11.448  16.274   8.169  1.00  0.00     0.038 A 
HETATM    5  C5  PAP L   1     -10.835  15.747   7.028  1.00  0.00     0.026 A 
HETATM    6  C6  PAP L   1      -9.624  16.268   6.559  1.00  0.00     0.005 A 
ENDROOT
BRANCH   6   7
HETATM    7  N1  PAP L   1      -8.962  15.656   5.489  1.00  0.00    -0.303 NA
HETATM    8  H5  PAP L   1      -8.047  16.051   5.296  1.00  0.00     0.124 HD
HETATM    9  H6  PAP L   1      -9.528  15.568   4.652  1.00  0.00     0.124 HD
ENDBRANCH   6   7
BRANCH   3  10
HETATM   10  O1  PAP L   1     -11.379  17.845   9.984  1.00  0.00    -0.361 OA
HETATM   11  H7  PAP L   1     -10.979  18.715  10.139  1.00  0.00     0.217 HD
ENDBRANCH   3  10
TORSDOF 2
ENDMDL
MODEL 12
REMARK VINA RESULT:      -3.0     11.188     12.009
REMARK  2 active torsions:
REMARK  status: ('A' for Active; 'I' for Inactive)
REMARK    1  A    between atoms: C3_3  and  O1_10 
REMARK    2  A    between atoms: C6_6  and  N1_7 
ROOT
HETATM    1  C1  PAP L   1     -11.353  16.129   7.985  1.00  0.00     0.026 A 
HETATM    2  C2  PAP L   1     -10.745  15.585   6.851  1.00  0.00     0.038 A 
HETATM    3  C3  PAP L   1      -9.532  16.096   6.409  1.00  0.00     0.065 A 
HETATM    4  C4  PAP L   1      -8.910  17.134   7.093  1.00  0.00     0.038 A 
HETATM    5  C5  PAP L   1      -9.525  17.674   8.226  1.00  0.00     0.026 A 
HETATM    6  C6  PAP L   1     -10.774  17.212   8.653  1.00  0.00     0.005 A 
ENDROOT
BRANCH   6   7
HETATM    7  N1  PAP L   1     -11.324  17.675   9.854  1.00  0.00    -0.303 NA
HETATM    8  H5  PAP L   1     -10.632  17.887  10.565  1.00  0.00     0.124 HD
HETATM    9  H6  PAP L   1     -12.078  17.097  10.210  1.00  0.00     0.124 HD
ENDBRANCH   6   7
BRANCH   3  10
HETATM   10  O1  PAP L   1      -8.970  15.537   5.301  1.00  0.00    -0.361 OA
HETATM   11  H7  PAP L   1      -8.143  15.101   5.559  1.00  0.00     0.217 HD
ENDBRANCH   3  10
TORSDOF 2
ENDMDL
MODEL 13
REMARK VINA RESULT:      -2.9      3.860      4.657
REMARK  2 active torsions:
REMARK  status: ('A' for Active; 'I' for Inactive)
REMARK    1  A    between atoms: C3_3  and  O1_10 
REMARK    2  A    between atoms: C6_6  and  N1_7 
ROOT
HETATM    1  C1  PAP L   1     -18.416   6.489   0.495  1.00  0.00     0.026 A 
HETATM    2  C2  PAP L   1     -17.843   5.759  -0.550  1.00  0.00     0.038 A 
HETATM    3  C3  PAP L   1     -16.620   5.131  -0.359  1.00  0.00     0.065 A 
HETATM    4  C4  PAP L   1     -15.968   5.207   0.866  1.00  0.00     0.038 A 
HETATM    5  C5  PAP L   1     -16.547   5.940   1.907  1.00  0.00     0.026 A 
HETATM    6  C6  PAP L   1     -17.750   6.629   1.715  1.00  0.00     0.005 A 
ENDROOT
BRANCH   6   7
HETATM    7  N1  PAP L   1     -18.380   7.259   2.795  1.00  0.00    -0.303 NA
HETATM    8  H5  PAP L   1     -18.556   6.642   3.581  1.00  0.00     0.124 HD
HETATM    9  H6  PAP L   1     -19.201   7.796   2.534  1.00  0.00     0.124 HD
ENDBRANCH   6   7
BRANCH   3  10
HETATM   10  O1  PAP L   1     -16.095   4.427  -1.401  1.00  0.00    -0.361 OA
HETATM   11  H7  PAP L   1     -16.355   3.496  -1.309  1.00  0.00     0.217 HD
ENDBRANCH   3  10
TORSDOF 2
ENDMDL
MODEL 14
REMARK VINA RESULT:      -2.7      2.173      2.830
REMARK  2 active torsions:
REMARK  status: ('A' for Active; 'I' for Inactive)
REMARK    1  A    between atoms: C3_3  and  O1_10 
REMARK    2  A    between atoms: C6_6  and  N1_7 
ROOT
HETATM    1  C1  PAP L   1     -17.238   9.173   3.901  1.00  0.00     0.026 A 
HETATM    2  C2  PAP L   1     -16.945   9.895   2.741  1.00  0.00     0.038 A 
HETATM    3  C3  PAP L   1     -16.731   9.220   1.547  1.00  0.00     0.065 A 
HETATM    4  C4  PAP L   1     -16.822   7.834   1.490  1.00  0.00     0.038 A 
HETATM    5  C5  PAP L   1     -17.115   7.118   2.656  1.00  0.00     0.026 A 
HETATM    6  C6  PAP L   1     -17.275   7.775   3.880  1.00  0.00     0.005 A 
ENDROOT
BRANCH   6   7
HETATM    7  N1  PAP L   1     -17.685   7.064   5.013  1.00  0.00    -0.303 NA
HETATM    8  H5  PAP L   1     -16.977   6.436   5.379  1.00  0.00     0.124 HD
HETATM    9  H6  PAP L   1     -18.586   6.609   4.909  1.00  0.00     0.124 HD
ENDBRANCH   6   7
BRANCH   3  10
HETATM   10  O1  PAP L   1     -16.450   9.959   0.438  1.00  0.00    -0.361 OA
HETATM   11  H7  PAP L   1     -16.710  10.879   0.604  1.00  0.00     0.217 HD
ENDBRANCH   3  10
TORSDOF 2
ENDMDL
MODEL 15
REMARK VINA RESULT:      -2.7     11.332     12.269
REMARK  2 active torsions:
REMARK  status: ('A' for Active; 'I' for Inactive)
REMARK    1  A    between atoms: C3_3  and  O1_10 
REMARK    2  A    between atoms: C6_6  and  N1_7 
ROOT
HETATM    1  C1  PAP L   1     -22.405  16.154  11.350  1.00  0.00     0.026 A 
HETATM    2  C2  PAP L   1     -21.430  17.002  11.884  1.00  0.00     0.038 A 
HETATM    3  C3  PAP L   1     -20.095  16.806  11.556  1.00  0.00     0.065 A 
HETATM    4  C4  PAP L   1     -19.720  15.785  10.689  1.00  0.00     0.038 A 
HETATM    5  C5  PAP L   1     -20.702  14.941  10.160  1.00  0.00     0.026 A 
HETATM    6  C6  PAP L   1     -22.044  15.085  10.525  1.00  0.00     0.005 A 
ENDROOT
BRANCH   6   7
HETATM    7  N1  PAP L   1     -23.031  14.314   9.899  1.00  0.00    -0.303 NA
HETATM    8  H5  PAP L   1     -23.929  14.780   9.830  1.00  0.00     0.124 HD
HETATM    9  H6  PAP L   1     -23.112  13.373  10.269  1.00  0.00     0.124 HD
ENDBRANCH   6   7
BRANCH   3  10
HETATM   10  O1  PAP L   1     -19.175  17.654  12.094  1.00  0.00    -0.361 OA
HETATM   11  H7  PAP L   1     -19.258  18.518  11.660  1.00  0.00     0.217 HD
ENDBRANCH   3  10
TORSDOF 2
ENDMDL
MODEL 16
REMARK VINA RESULT:      -2.7     11.256     12.239
REMARK  2 active torsions:
REMARK  status: ('A' for Active; 'I' for Inactive)
REMARK    1  A    between atoms: C3_3  and  O1_10 
REMARK    2  A    between atoms: C6_6  and  N1_7 
ROOT
HETATM    1  C1  PAP L   1     -20.485  15.919  11.155  1.00  0.00     0.026 A 
HETATM    2  C2  PAP L   1     -20.603  15.021  10.091  1.00  0.00     0.038 A 
HETATM    3  C3  PAP L   1     -21.863  14.658   9.635  1.00  0.00     0.065 A 
HETATM    4  C4  PAP L   1     -23.008  15.192  10.216  1.00  0.00     0.038 A 
HETATM    5  C5  PAP L   1     -22.881  16.089  11.281  1.00  0.00     0.026 A 
HETATM    6  C6  PAP L   1     -21.623  16.421  11.794  1.00  0.00     0.005 A 
ENDROOT
BRANCH   6   7
HETATM    7  N1  PAP L   1     -21.501  17.408  12.778  1.00  0.00    -0.303 NA
HETATM    8  H5  PAP L   1     -20.850  18.148  12.536  1.00  0.00     0.124 HD
HETATM    9  H6  PAP L   1     -21.338  17.040  13.710  1.00  0.00     0.124 HD
ENDBRANCH   6   7
BRANCH   3  10
HETATM   10  O1  PAP L   1     -21.937  13.783   8.593  1.00  0.00    -0.361 OA
HETATM   11  H7  PAP L   1     -22.443  14.196   7.876  1.00  0.00     0.217 HD
ENDBRANCH   3  10
TORSDOF 2
ENDMDL
MODEL 17
REMARK VINA RESULT:      -2.6      3.444      4.204
REMARK  2 active torsions:
REMARK  status: ('A' for Active; 'I' for Inactive)
REMARK    1  A    between atoms: C3_3  and  O1_10 
REMARK    2  A    between atoms: C6_6  and  N1_7 
ROOT
HETATM    1  C1  PAP L   1     -18.420   4.865  -0.683  1.00  0.00     0.026 A 
HETATM    2  C2  PAP L   1     -19.237   5.510   0.250  1.00  0.00     0.038 A 
HETATM    3  C3  PAP L   1     -18.661   6.236   1.282  1.00  0.00     0.065 A 
HETATM    4  C4  PAP L   1     -17.279   6.342   1.389  1.00  0.00     0.038 A 
HETATM    5  C5  PAP L   1     -16.467   5.694   0.453  1.00  0.00     0.026 A 
HETATM    6  C6  PAP L   1     -17.028   4.909  -0.560  1.00  0.00     0.005 A 
ENDROOT
BRANCH   6   7
HETATM    7  N1  PAP L   1     -16.215   4.363  -1.560  1.00  0.00    -0.303 NA
HETATM    8  H5  PAP L   1     -16.012   5.008  -2.317  1.00  0.00     0.124 HD
HETATM    9  H6  PAP L   1     -16.529   3.459  -1.897  1.00  0.00     0.124 HD
ENDBRANCH   6   7
BRANCH   3  10
HETATM   10  O1  PAP L   1     -19.491   6.852   2.170  1.00  0.00    -0.361 OA
HETATM   11  H7  PAP L   1     -19.107   7.711   2.410  1.00  0.00     0.217 HD
ENDBRANCH   3  10
TORSDOF 2
ENDMDL
MODEL 18
REMARK VINA RESULT:      -2.6     10.087     10.489
REMARK  2 active torsions:
REMARK  status: ('A' for Active; 'I' for Inactive)
REMARK    1  A    between atoms: C3_3  and  O1_10 
REMARK    2  A    between atoms: C6_6  and  N1_7 
ROOT
HETATM    1  C1  PAP L   1      -8.428  12.604   3.184  1.00  0.00     0.026 A 
HETATM    2  C2  PAP L   1      -9.262  13.632   3.633  1.00  0.00     0.038 A 
HETATM    3  C3  PAP L   1      -8.706  14.776   4.187  1.00  0.00     0.065 A 
HETATM    4  C4  PAP L   1      -7.326  14.917   4.285  1.00  0.00     0.038 A 
HETATM    5  C5  PAP L   1      -6.498  13.884   3.835  1.00  0.00     0.026 A 
HETATM    6  C6  PAP L   1      -7.041  12.699   3.328  1.00  0.00     0.005 A 
ENDROOT
BRANCH   6   7
HETATM    7  N1  PAP L   1      -6.206  11.724   2.770  1.00  0.00    -0.303 NA
HETATM    8  H5  PAP L   1      -5.305  11.647   3.230  1.00  0.00     0.124 HD
HETATM    9  H6  PAP L   1      -6.121  11.785   1.761  1.00  0.00     0.124 HD
ENDBRANCH   6   7
BRANCH   3  10
HETATM   10  O1  PAP L   1      -9.551  15.757   4.611  1.00  0.00    -0.361 OA
HETATM   11  H7  PAP L   1      -9.533  15.785   5.581  1.00  0.00     0.217 HD
ENDBRANCH   3  10
TORSDOF 2
ENDMDL
MODEL 19
REMARK VINA RESULT:      -2.6     11.417     12.334
REMARK  2 active torsions:
REMARK  status: ('A' for Active; 'I' for Inactive)
REMARK    1  A    between atoms: C3_3  and  O1_10 
REMARK    2  A    between atoms: C6_6  and  N1_7 
ROOT
HETATM    1  C1  PAP L   1     -10.962  17.763   8.955  1.00  0.00     0.026 A 
HETATM    2  C2  PAP L   1      -9.615  17.905   8.612  1.00  0.00     0.038 A 
HETATM    3  C3  PAP L   1      -9.097  17.185   7.545  1.00  0.00     0.065 A 
HETATM    4  C4  PAP L   1      -9.910  16.335   6.803  1.00  0.00     0.038 A 
HETATM    5  C5  PAP L   1     -11.257  16.197   7.152  1.00  0.00     0.026 A 
HETATM    6  C6  PAP L   1     -11.783  16.869   8.261  1.00  0.00     0.005 A 
ENDROOT
BRANCH   6   7
HETATM    7  N1  PAP L   1     -13.155  16.818   8.529  1.00  0.00    -0.303 NA
HETATM    8  H5  PAP L   1     -13.425  16.047   9.131  1.00  0.00     0.124 HD
HETATM    9  H6  PAP L   1     -13.738  16.882   7.701  1.00  0.00     0.124 HD
ENDBRANCH   6   7
BRANCH   3  10
HETATM   10  O1  PAP L   1      -7.780  17.352   7.241  1.00  0.00    -0.361 OA
HETATM   11  H7  PAP L   1      -7.595  16.900   6.402  1.00  0.00     0.217 HD
ENDBRANCH   3  10
TORSDOF 2
ENDMDL
MODEL 20
REMARK VINA RESULT:      -2.6     10.661     11.092
REMARK  2 active torsions:
REMARK  status: ('A' for Active; 'I' for Inactive)
REMARK    1  A    between atoms: C3_3  and  O1_10 
REMARK    2  A    between atoms: C6_6  and  N1_7 
ROOT
HETATM    1  C1  PAP L   1     -20.472  16.169   8.224  1.00  0.00     0.026 A 
HETATM    2  C2  PAP L   1     -19.550  17.016   8.845  1.00  0.00     0.038 A 
HETATM    3  C3  PAP L   1     -19.288  16.872  10.200  1.00  0.00     0.065 A 
HETATM    4  C4  PAP L   1     -19.922  15.882  10.943  1.00  0.00     0.038 A 
HETATM    5  C5  PAP L   1     -20.844  15.039  10.315  1.00  0.00     0.026 A 
HETATM    6  C6  PAP L   1     -21.165  15.207   8.964  1.00  0.00     0.005 A 
ENDROOT
BRANCH   6   7
HETATM    7  N1  PAP L   1     -21.997  14.285   8.318  1.00  0.00    -0.303 NA
HETATM    8  H5  PAP L   1     -21.495  13.615   7.745  1.00  0.00     0.124 HD
HETATM    9  H6  PAP L   1     -22.774  14.710   7.823  1.00  0.00     0.124 HD
ENDBRANCH   6   7
BRANCH   3  10
HETATM   10  O1  PAP L   1     -18.381  17.715  10.768  1.00  0.00    -0.361 OA
HETATM   11  H7  PAP L   1     -17.984  18.260  10.070  1.00  0.00     0.217 HD
ENDBRANCH   3  10
TORSDOF 2
ENDMDL
