HETATM    1  C1  PAP L   1     -16.819  16.171   7.737  1.00  0.00     0.026 A 
HETATM    2  C2  PAP L   1     -17.638  17.283   7.953  1.00  0.00     0.038 A 
HETATM    3  C3  PAP L   1     -17.482  18.037   9.108  1.00  0.00     0.065 A 
HETATM    4  C4  PAP L   1     -16.510  17.706  10.044  1.00  0.00     0.038 A 
HETATM    5  C5  PAP L   1     -15.695  16.591   9.822  1.00  0.00     0.026 A 
HETATM    6  C6  PAP L   1     -15.875  15.785   8.693  1.00  0.00     0.005 A 
HETATM    7  N1  PAP L   1     -14.979  14.745   8.420  1.00  0.00    -0.303 NA
HETATM    8  H5  PAP L   1     -14.083  15.062   8.064  1.00  0.00     0.124 HD
HETATM    9  H6  PAP L   1     -15.376  13.999   7.858  1.00  0.00     0.124 HD
HETATM   10  O1  PAP L   1     -18.298  19.114   9.281  1.00  0.00    -0.361 OA
HETATM   11  H7  PAP L   1     -19.029  19.056   8.645  1.00  0.00     0.217 HD
HETATM    1  C1  PAP L   1     -17.538  17.197   7.850  1.00  0.00     0.026 A 
HETATM    2  C2  PAP L   1     -16.736  16.054   7.788  1.00  0.00     0.038 A 
HETATM    3  C3  PAP L   1     -15.923  15.726   8.864  1.00  0.00     0.065 A 
HETATM    4  C4  PAP L   1     -15.910  16.515  10.009  1.00  0.00     0.038 A 
HETATM    5  C5  PAP L   1     -16.714  17.657  10.063  1.00  0.00     0.026 A 
HETATM    6  C6  PAP L   1     -17.496  18.037   8.966  1.00  0.00     0.005 A 
HETATM    7  N1  PAP L   1     -18.386  19.112   9.074  1.00  0.00    -0.303 NA
HETATM    8  H5  PAP L   1     -18.618  19.355  10.031  1.00  0.00     0.124 HD
HETATM    9  H6  PAP L   1     -19.209  19.023   8.488  1.00  0.00     0.124 HD
HETATM   10  O1  PAP L   1     -15.157  14.603   8.766  1.00  0.00    -0.361 OA
HETATM   11  H7  PAP L   1     -15.713  13.876   8.441  1.00  0.00     0.217 HD
HETATM    1  C1  PAP L   1     -16.790  16.781   8.254  1.00  0.00     0.026 A 
HETATM    2  C2  PAP L   1     -17.133  16.498   6.929  1.00  0.00     0.038 A 
HETATM    3  C3  PAP L   1     -16.715  15.307   6.351  1.00  0.00     0.065 A 
HETATM    4  C4  PAP L   1     -15.973  14.386   7.081  1.00  0.00     0.038 A 
HETATM    5  C5  PAP L   1     -15.632  14.677   8.406  1.00  0.00     0.026 A 
HETATM    6  C6  PAP L   1     -15.993  15.897   8.988  1.00  0.00     0.005 A 
HETATM    7  N1  PAP L   1     -15.753  16.128  10.347  1.00  0.00    -0.303 NA
HETATM    8  H5  PAP L   1     -15.128  16.907  10.524  1.00  0.00     0.124 HD
HETATM    9  H6  PAP L   1     -15.488  15.295  10.864  1.00  0.00     0.124 HD
HETATM   10  O1  PAP L   1     -17.072  15.067   5.058  1.00  0.00    -0.361 OA
HETATM   11  H7  PAP L   1     -16.281  14.801   4.562  1.00  0.00     0.217 HD
HETATM    1  C1  PAP L   1     -15.596  14.616   8.366  1.00  0.00     0.026 A 
HETATM    2  C2  PAP L   1     -15.907  14.392   7.022  1.00  0.00     0.038 A 
HETATM    3  C3  PAP L   1     -16.844  15.198   6.390  1.00  0.00     0.065 A 
HETATM    4  C4  PAP L   1     -17.464  16.236   7.076  1.00  0.00     0.038 A 
HETATM    5  C5  PAP L   1     -17.148  16.454   8.421  1.00  0.00     0.026 A 
HETATM    6  C6  PAP L   1     -16.251  15.616   9.092  1.00  0.00     0.005 A 
HETATM    7  N1  PAP L   1     -15.852  15.914  10.400  1.00  0.00    -0.303 NA
HETATM    8  H5  PAP L   1     -15.854  16.907  10.611  1.00  0.00     0.124 HD
HETATM    9  H6  PAP L   1     -14.986  15.463  10.677  1.00  0.00     0.124 HD
HETATM   10  O1  PAP L   1     -17.118  14.949   5.079  1.00  0.00    -0.361 OA
HETATM   11  H7  PAP L   1     -17.501  14.060   5.005  1.00  0.00     0.217 HD
HETATM    1  C1  PAP L   1     -15.565  14.368   7.563  1.00  0.00     0.026 A 
HETATM    2  C2  PAP L   1     -15.702  14.966   8.819  1.00  0.00     0.038 A 
HETATM    3  C3  PAP L   1     -16.708  15.899   9.030  1.00  0.00     0.065 A 
HETATM    4  C4  PAP L   1     -17.590  16.233   8.009  1.00  0.00     0.038 A 
HETATM    5  C5  PAP L   1     -17.447  15.632   6.755  1.00  0.00     0.026 A 
HETATM    6  C6  PAP L   1     -16.404  14.733   6.505  1.00  0.00     0.005 A 
HETATM    7  N1  PAP L   1     -16.341  14.048   5.287  1.00  0.00    -0.303 NA
HETATM    8  H5  PAP L   1     -15.685  13.274   5.287  1.00  0.00     0.124 HD
HETATM    9  H6  PAP L   1     -16.222  14.654   4.481  1.00  0.00     0.124 HD
HETATM   10  O1  PAP L   1     -16.810  16.458  10.268  1.00  0.00    -0.361 OA
HETATM   11  H7  PAP L   1     -17.563  17.070  10.271  1.00  0.00     0.217 HD
HETATM    1  C1  PAP L   1     -15.683  15.898   8.628  1.00  0.00     0.026 A 
HETATM    2  C2  PAP L   1     -16.952  15.634   8.106  1.00  0.00     0.038 A 
HETATM    3  C3  PAP L   1     -18.019  16.453   8.446  1.00  0.00     0.065 A 
HETATM    4  C4  PAP L   1     -17.835  17.544   9.288  1.00  0.00     0.038 A 
HETATM    5  C5  PAP L   1     -16.562  17.801   9.808  1.00  0.00     0.026 A 
HETATM    6  C6  PAP L   1     -15.487  16.953   9.524  1.00  0.00     0.005 A 
HETATM    7  N1  PAP L   1     -14.196  17.285   9.950  1.00  0.00    -0.303 NA
HETATM    8  H5  PAP L   1     -13.770  16.584  10.546  1.00  0.00     0.124 HD
HETATM    9  H6  PAP L   1     -14.120  18.220  10.338  1.00  0.00     0.124 HD
HETATM   10  O1  PAP L   1     -19.240  16.165   7.914  1.00  0.00    -0.361 OA
HETATM   11  H7  PAP L   1     -19.808  15.811   8.617  1.00  0.00     0.217 HD
HETATM    1  C1  PAP L   1     -18.400  16.987   8.492  1.00  0.00     0.026 A 
HETATM    2  C2  PAP L   1     -17.595  16.821   9.622  1.00  0.00     0.038 A 
HETATM    3  C3  PAP L   1     -16.493  15.979   9.563  1.00  0.00     0.065 A 
HETATM    4  C4  PAP L   1     -16.173  15.312   8.386  1.00  0.00     0.038 A 
HETATM    5  C5  PAP L   1     -16.984  15.483   7.259  1.00  0.00     0.026 A 
HETATM    6  C6  PAP L   1     -18.132  16.280   7.316  1.00  0.00     0.005 A 
HETATM    7  N1  PAP L   1     -18.867  16.540   6.155  1.00  0.00    -0.303 NA
HETATM    8  H5  PAP L   1     -18.975  15.732   5.551  1.00  0.00     0.124 HD
HETATM    9  H6  PAP L   1     -18.557  17.362   5.647  1.00  0.00     0.124 HD
HETATM   10  O1  PAP L   1     -15.731  15.844  10.685  1.00  0.00    -0.361 OA
HETATM   11  H7  PAP L   1     -14.943  15.323  10.464  1.00  0.00     0.217 HD
HETATM    1  C1  PAP L   1     -13.948  29.271  18.098  1.00  0.00     0.026 A 
HETATM    2  C2  PAP L   1     -15.326  29.184  18.312  1.00  0.00     0.038 A 
HETATM    3  C3  PAP L   1     -15.809  28.467  19.398  1.00  0.00     0.065 A 
HETATM    4  C4  PAP L   1     -14.934  27.847  20.284  1.00  0.00     0.038 A 
HETATM    5  C5  PAP L   1     -13.556  27.938  20.062  1.00  0.00     0.026 A 
HETATM    6  C6  PAP L   1     -13.053  28.606  18.942  1.00  0.00     0.005 A 
HETATM    7  N1  PAP L   1     -11.673  28.793  18.794  1.00  0.00    -0.303 NA
HETATM    8  H5  PAP L   1     -11.142  28.584  19.632  1.00  0.00     0.124 HD
HETATM    9  H6  PAP L   1     -11.422  29.690  18.391  1.00  0.00     0.124 HD
HETATM   10  O1  PAP L   1     -17.158  28.407  19.574  1.00  0.00    -0.361 OA
HETATM   11  H7  PAP L   1     -17.583  28.351  18.703  1.00  0.00     0.217 HD
HETATM    1  C1  PAP L   1     -14.892  27.909  20.168  1.00  0.00     0.026 A 
HETATM    2  C2  PAP L   1     -13.506  27.940  19.988  1.00  0.00     0.038 A 
HETATM    3  C3  PAP L   1     -12.968  28.641  18.918  1.00  0.00     0.065 A 
HETATM    4  C4  PAP L   1     -13.793  29.325  18.032  1.00  0.00     0.038 A 
HETATM    5  C5  PAP L   1     -15.178  29.288  18.218  1.00  0.00     0.026 A 
HETATM    6  C6  PAP L   1     -15.743  28.539  19.256  1.00  0.00     0.005 A 
HETATM    7  N1  PAP L   1     -17.119  28.606  19.504  1.00  0.00    -0.303 NA
HETATM    8  H5  PAP L   1     -17.480  29.553  19.549  1.00  0.00     0.124 HD
HETATM    9  H6  PAP L   1     -17.421  28.040  20.290  1.00  0.00     0.124 HD
HETATM   10  O1  PAP L   1     -11.613  28.650  18.778  1.00  0.00    -0.361 OA
HETATM   11  H7  PAP L   1     -11.214  28.316  19.597  1.00  0.00     0.217 HD
HETATM    1  C1  PAP L   1     -17.197  17.295   9.359  1.00  0.00     0.026 A 
HETATM    2  C2  PAP L   1     -18.510  17.377   8.887  1.00  0.00     0.038 A 
HETATM    3  C3  PAP L   1     -18.886  16.647   7.769  1.00  0.00     0.065 A 
HETATM    4  C4  PAP L   1     -17.973  15.821   7.122  1.00  0.00     0.038 A 
HETATM    5  C5  PAP L   1     -16.661  15.744   7.599  1.00  0.00     0.026 A 
HETATM    6  C6  PAP L   1     -16.248  16.518   8.689  1.00  0.00     0.005 A 
HETATM    7  N1  PAP L   1     -14.969  16.344   9.231  1.00  0.00    -0.303 NA
HETATM    8  H5  PAP L   1     -14.266  16.092   8.544  1.00  0.00     0.124 HD
HETATM    9  H6  PAP L   1     -14.947  15.740  10.045  1.00  0.00     0.124 HD
HETATM   10  O1  PAP L   1     -20.175  16.752   7.342  1.00  0.00    -0.361 OA
HETATM   11  H7  PAP L   1     -20.172  16.948   6.391  1.00  0.00     0.217 HD
HETATM    1  C1  PAP L   1      -9.130  26.337  12.753  1.00  0.00     0.026 A 
HETATM    2  C2  PAP L   1      -9.737  26.870  13.894  1.00  0.00     0.038 A 
HETATM    3  C3  PAP L   1     -10.967  26.379  14.310  1.00  0.00     0.065 A 
HETATM    4  C4  PAP L   1     -11.594  25.352  13.613  1.00  0.00     0.038 A 
HETATM    5  C5  PAP L   1     -10.981  24.825  12.472  1.00  0.00     0.026 A 
HETATM    6  C6  PAP L   1      -9.770  25.346  12.003  1.00  0.00     0.005 A 
HETATM    7  N1  PAP L   1      -9.108  24.734  10.933  1.00  0.00    -0.303 NA
HETATM    8  H5  PAP L   1      -8.193  25.129  10.740  1.00  0.00     0.124 HD
HETATM    9  H6  PAP L   1      -9.674  24.646  10.096  1.00  0.00     0.124 HD
HETATM   10  O1  PAP L   1     -11.525  26.923  15.428  1.00  0.00    -0.361 OA
HETATM   11  H7  PAP L   1     -11.125  27.793  15.583  1.00  0.00     0.217 HD
HETATM    1  C1  PAP L   1     -11.499  25.207  13.429  1.00  0.00     0.026 A 
HETATM    2  C2  PAP L   1     -10.891  24.663  12.295  1.00  0.00     0.038 A 
HETATM    3  C3  PAP L   1      -9.678  25.174  11.853  1.00  0.00     0.065 A 
HETATM    4  C4  PAP L   1      -9.056  26.212  12.537  1.00  0.00     0.038 A 
HETATM    5  C5  PAP L   1      -9.671  26.752  13.670  1.00  0.00     0.026 A 
HETATM    6  C6  PAP L   1     -10.920  26.290  14.097  1.00  0.00     0.005 A 
HETATM    7  N1  PAP L   1     -11.470  26.753  15.298  1.00  0.00    -0.303 NA
HETATM    8  H5  PAP L   1     -10.778  26.965  16.009  1.00  0.00     0.124 HD
HETATM    9  H6  PAP L   1     -12.224  26.175  15.654  1.00  0.00     0.124 HD
HETATM   10  O1  PAP L   1      -9.116  24.615  10.745  1.00  0.00    -0.361 OA
HETATM   11  H7  PAP L   1      -8.289  24.179  11.003  1.00  0.00     0.217 HD
HETATM    1  C1  PAP L   1     -18.562  15.567   5.939  1.00  0.00     0.026 A 
HETATM    2  C2  PAP L   1     -17.989  14.837   4.894  1.00  0.00     0.038 A 
HETATM    3  C3  PAP L   1     -16.766  14.209   5.085  1.00  0.00     0.065 A 
HETATM    4  C4  PAP L   1     -16.114  14.285   6.310  1.00  0.00     0.038 A 
HETATM    5  C5  PAP L   1     -16.693  15.018   7.351  1.00  0.00     0.026 A 
HETATM    6  C6  PAP L   1     -17.896  15.707   7.159  1.00  0.00     0.005 A 
HETATM    7  N1  PAP L   1     -18.526  16.337   8.239  1.00  0.00    -0.303 NA
HETATM    8  H5  PAP L   1     -18.702  15.720   9.025  1.00  0.00     0.124 HD
HETATM    9  H6  PAP L   1     -19.347  16.874   7.978  1.00  0.00     0.124 HD
HETATM   10  O1  PAP L   1     -16.241  13.505   4.043  1.00  0.00    -0.361 OA
HETATM   11  H7  PAP L   1     -16.501  12.574   4.135  1.00  0.00     0.217 HD
HETATM    1  C1  PAP L   1     -17.384  18.251   9.345  1.00  0.00     0.026 A 
HETATM    2  C2  PAP L   1     -17.091  18.973   8.185  1.00  0.00     0.038 A 
HETATM    3  C3  PAP L   1     -16.877  18.298   6.991  1.00  0.00     0.065 A 
HETATM    4  C4  PAP L   1     -16.968  16.912   6.934  1.00  0.00     0.038 A 
HETATM    5  C5  PAP L   1     -17.261  16.196   8.100  1.00  0.00     0.026 A 
HETATM    6  C6  PAP L   1     -17.421  16.853   9.324  1.00  0.00     0.005 A 
HETATM    7  N1  PAP L   1     -17.831  16.142  10.457  1.00  0.00    -0.303 NA
HETATM    8  H5  PAP L   1     -17.123  15.514  10.823  1.00  0.00     0.124 HD
HETATM    9  H6  PAP L   1     -18.732  15.687  10.353  1.00  0.00     0.124 HD
HETATM   10  O1  PAP L   1     -16.596  19.037   5.882  1.00  0.00    -0.361 OA
HETATM   11  H7  PAP L   1     -16.856  19.957   6.048  1.00  0.00     0.217 HD
HETATM    1  C1  PAP L   1     -22.551  25.232  16.794  1.00  0.00     0.026 A 
HETATM    2  C2  PAP L   1     -21.576  26.080  17.328  1.00  0.00     0.038 A 
HETATM    3  C3  PAP L   1     -20.241  25.884  17.000  1.00  0.00     0.065 A 
HETATM    4  C4  PAP L   1     -19.866  24.863  16.133  1.00  0.00     0.038 A 
HETATM    5  C5  PAP L   1     -20.848  24.019  15.604  1.00  0.00     0.026 A 
HETATM    6  C6  PAP L   1     -22.190  24.163  15.969  1.00  0.00     0.005 A 
HETATM    7  N1  PAP L   1     -23.177  23.392  15.343  1.00  0.00    -0.303 NA
HETATM    8  H5  PAP L   1     -24.075  23.858  15.274  1.00  0.00     0.124 HD
HETATM    9  H6  PAP L   1     -23.258  22.451  15.713  1.00  0.00     0.124 HD
HETATM   10  O1  PAP L   1     -19.321  26.732  17.538  1.00  0.00    -0.361 OA
HETATM   11  H7  PAP L   1     -19.404  27.596  17.104  1.00  0.00     0.217 HD
HETATM    1  C1  PAP L   1     -20.631  24.997  16.599  1.00  0.00     0.026 A 
HETATM    2  C2  PAP L   1     -20.749  24.099  15.535  1.00  0.00     0.038 A 
HETATM    3  C3  PAP L   1     -22.009  23.736  15.079  1.00  0.00     0.065 A 
HETATM    4  C4  PAP L   1     -23.154  24.270  15.660  1.00  0.00     0.038 A 
HETATM    5  C5  PAP L   1     -23.027  25.167  16.725  1.00  0.00     0.026 A 
HETATM    6  C6  PAP L   1     -21.769  25.499  17.238  1.00  0.00     0.005 A 
HETATM    7  N1  PAP L   1     -21.647  26.486  18.222  1.00  0.00    -0.303 NA
HETATM    8  H5  PAP L   1     -20.996  27.226  17.980  1.00  0.00     0.124 HD
HETATM    9  H6  PAP L   1     -21.484  26.118  19.154  1.00  0.00     0.124 HD
HETATM   10  O1  PAP L   1     -22.083  22.861  14.037  1.00  0.00    -0.361 OA
HETATM   11  H7  PAP L   1     -22.589  23.274  13.320  1.00  0.00     0.217 HD
HETATM    1  C1  PAP L   1     -18.566  13.943   4.761  1.00  0.00     0.026 A 
HETATM    2  C2  PAP L   1     -19.383  14.588   5.694  1.00  0.00     0.038 A 
HETATM    3  C3  PAP L   1     -18.807  15.314   6.726  1.00  0.00     0.065 A 
HETATM    4  C4  PAP L   1     -17.425  15.420   6.833  1.00  0.00     0.038 A 
HETATM    5  C5  PAP L   1     -16.613  14.772   5.897  1.00  0.00     0.026 A 
HETATM    6  C6  PAP L   1     -17.174  13.987   4.884  1.00  0.00     0.005 A 
HETATM    7  N1  PAP L   1     -16.361  13.441   3.884  1.00  0.00    -0.303 NA
HETATM    8  H5  PAP L   1     -16.158  14.086   3.127  1.00  0.00     0.124 HD
HETATM    9  H6  PAP L   1     -16.675  12.537   3.547  1.00  0.00     0.124 HD
HETATM   10  O1  PAP L   1     -19.637  15.930   7.614  1.00  0.00    -0.361 OA
HETATM   11  H7  PAP L   1     -19.253  16.789   7.854  1.00  0.00     0.217 HD
HETATM    1  C1  PAP L   1      -8.574  21.682   8.628  1.00  0.00     0.026 A 
HETATM    2  C2  PAP L   1      -9.408  22.710   9.077  1.00  0.00     0.038 A 
HETATM    3  C3  PAP L   1      -8.852  23.854   9.631  1.00  0.00     0.065 A 
HETATM    4  C4  PAP L   1      -7.472  23.995   9.729  1.00  0.00     0.038 A 
HETATM    5  C5  PAP L   1      -6.644  22.962   9.279  1.00  0.00     0.026 A 
HETATM    6  C6  PAP L   1      -7.187  21.777   8.772  1.00  0.00     0.005 A 
HETATM    7  N1  PAP L   1      -6.352  20.802   8.214  1.00  0.00    -0.303 NA
HETATM    8  H5  PAP L   1      -5.451  20.725   8.674  1.00  0.00     0.124 HD
HETATM    9  H6  PAP L   1      -6.267  20.863   7.205  1.00  0.00     0.124 HD
HETATM   10  O1  PAP L   1      -9.697  24.835  10.055  1.00  0.00    -0.361 OA
HETATM   11  H7  PAP L   1      -9.679  24.863  11.025  1.00  0.00     0.217 HD
HETATM    1  C1  PAP L   1     -11.108  26.841  14.399  1.00  0.00     0.026 A 
HETATM    2  C2  PAP L   1      -9.761  26.983  14.056  1.00  0.00     0.038 A 
HETATM    3  C3  PAP L   1      -9.243  26.263  12.989  1.00  0.00     0.065 A 
HETATM    4  C4  PAP L   1     -10.056  25.413  12.247  1.00  0.00     0.038 A 
HETATM    5  C5  PAP L   1     -11.403  25.275  12.596  1.00  0.00     0.026 A 
HETATM    6  C6  PAP L   1     -11.929  25.947  13.705  1.00  0.00     0.005 A 
HETATM    7  N1  PAP L   1     -13.301  25.896  13.973  1.00  0.00    -0.303 NA
HETATM    8  H5  PAP L   1     -13.571  25.125  14.575  1.00  0.00     0.124 HD
HETATM    9  H6  PAP L   1     -13.884  25.960  13.145  1.00  0.00     0.124 HD
HETATM   10  O1  PAP L   1      -7.926  26.430  12.685  1.00  0.00    -0.361 OA
HETATM   11  H7  PAP L   1      -7.741  25.978  11.846  1.00  0.00     0.217 HD
HETATM    1  C1  PAP L   1     -20.618  25.247  13.668  1.00  0.00     0.026 A 
HETATM    2  C2  PAP L   1     -19.696  26.094  14.289  1.00  0.00     0.038 A 
HETATM    3  C3  PAP L   1     -19.434  25.950  15.644  1.00  0.00     0.065 A 
HETATM    4  C4  PAP L   1     -20.068  24.960  16.387  1.00  0.00     0.038 A 
HETATM    5  C5  PAP L   1     -20.990  24.117  15.759  1.00  0.00     0.026 A 
HETATM    6  C6  PAP L   1     -21.311  24.285  14.408  1.00  0.00     0.005 A 
HETATM    7  N1  PAP L   1     -22.143  23.363  13.762  1.00  0.00    -0.303 NA
HETATM    8  H5  PAP L   1     -21.641  22.693  13.189  1.00  0.00     0.124 HD
HETATM    9  H6  PAP L   1     -22.920  23.788  13.267  1.00  0.00     0.124 HD
HETATM   10  O1  PAP L   1     -18.527  26.793  16.212  1.00  0.00    -0.361 OA
HETATM   11  H7  PAP L   1     -18.130  27.338  15.514  1.00  0.00     0.217 HD
