MODEL 1
REMARK VINA RESULT:      -3.8      0.000      0.000
REMARK  2 active torsions:
REMARK  status: ('A' for Active; 'I' for Inactive)
REMARK    1  A    between atoms: C3_3  and  O1_10 
REMARK    2  A    between atoms: C6_6  and  N1_7 
ROOT
HETATM    1  C1  PAP L   1      -7.520   6.490   8.001  1.00  0.00     0.026 A 
HETATM    2  C2  PAP L   1      -6.668   7.249   7.194  1.00  0.00     0.038 A 
HETATM    3  C3  PAP L   1      -7.187   7.946   6.112  1.00  0.00     0.065 A 
HETATM    4  C4  PAP L   1      -8.548   7.910   5.833  1.00  0.00     0.038 A 
HETATM    5  C5  PAP L   1      -9.394   7.148   6.644  1.00  0.00     0.026 A 
HETATM    6  C6  PAP L   1      -8.882   6.391   7.703  1.00  0.00     0.005 A 
ENDROOT
BRANCH   6   7
HETATM    7  N1  PAP L   1      -9.749   5.729   8.580  1.00  0.00    -0.303 NA
HETATM    8  H5  PAP L   1     -10.669   6.152   8.641  1.00  0.00     0.124 HD
HETATM    9  H6  PAP L   1      -9.347   5.546   9.494  1.00  0.00     0.124 HD
ENDBRANCH   6   7
BRANCH   3  10
HETATM   10  O1  PAP L   1      -6.325   8.676   5.351  1.00  0.00    -0.361 OA
HETATM   11  H7  PAP L   1      -6.703   8.776   4.462  1.00  0.00     0.217 HD
ENDBRANCH   3  10
TORSDOF 2
ENDMDL
MODEL 2
REMARK VINA RESULT:      -3.8      2.780      3.265
REMARK  2 active torsions:
REMARK  status: ('A' for Active; 'I' for Inactive)
REMARK    1  A    between atoms: C3_3  and  O1_10 
REMARK    2  A    between atoms: C6_6  and  N1_7 
ROOT
HETATM    1  C1  PAP L   1      -6.758   7.118   7.232  1.00  0.00     0.026 A 
HETATM    2  C2  PAP L   1      -7.621   6.406   8.068  1.00  0.00     0.038 A 
HETATM    3  C3  PAP L   1      -8.984   6.400   7.804  1.00  0.00     0.065 A 
HETATM    4  C4  PAP L   1      -9.496   7.083   6.706  1.00  0.00     0.038 A 
HETATM    5  C5  PAP L   1      -8.626   7.794   5.874  1.00  0.00     0.026 A 
HETATM    6  C6  PAP L   1      -7.258   7.861   6.157  1.00  0.00     0.005 A 
ENDROOT
BRANCH   6   7
HETATM    7  N1  PAP L   1      -6.381   8.473   5.255  1.00  0.00    -0.303 NA
HETATM    8  H5  PAP L   1      -5.848   7.817   4.694  1.00  0.00     0.124 HD
HETATM    9  H6  PAP L   1      -5.794   9.188   5.674  1.00  0.00     0.124 HD
ENDBRANCH   6   7
BRANCH   3  10
HETATM   10  O1  PAP L   1      -9.793   5.692   8.641  1.00  0.00    -0.361 OA
HETATM   11  H7  PAP L   1     -10.512   6.271   8.940  1.00  0.00     0.217 HD
ENDBRANCH   3  10
TORSDOF 2
ENDMDL
MODEL 3
REMARK VINA RESULT:      -3.6      8.828      9.614
REMARK  2 active torsions:
REMARK  status: ('A' for Active; 'I' for Inactive)
REMARK    1  A    between atoms: C3_3  and  O1_10 
REMARK    2  A    between atoms: C6_6  and  N1_7 
ROOT
HETATM    1  C1  PAP L   1      -6.949   7.292  -0.987  1.00  0.00     0.026 A 
HETATM    2  C2  PAP L   1      -7.761   8.004  -1.873  1.00  0.00     0.038 A 
HETATM    3  C3  PAP L   1      -7.293   8.302  -3.146  1.00  0.00     0.065 A 
HETATM    4  C4  PAP L   1      -6.030   7.885  -3.552  1.00  0.00     0.038 A 
HETATM    5  C5  PAP L   1      -5.223   7.173  -2.659  1.00  0.00     0.026 A 
HETATM    6  C6  PAP L   1      -5.653   6.914  -1.354  1.00  0.00     0.005 A 
ENDROOT
BRANCH   6   7
HETATM    7  N1  PAP L   1      -4.890   6.100  -0.509  1.00  0.00    -0.303 NA
HETATM    8  H5  PAP L   1      -4.755   6.488   0.419  1.00  0.00     0.124 HD
HETATM    9  H6  PAP L   1      -4.021   5.779  -0.923  1.00  0.00     0.124 HD
ENDBRANCH   6   7
BRANCH   3  10
HETATM   10  O1  PAP L   1      -8.115   8.996  -3.981  1.00  0.00    -0.361 OA
HETATM   11  H7  PAP L   1      -7.862   9.933  -3.958  1.00  0.00     0.217 HD
ENDBRANCH   3  10
TORSDOF 2
ENDMDL
MODEL 4
REMARK VINA RESULT:      -3.6      8.925      9.729
REMARK  2 active torsions:
REMARK  status: ('A' for Active; 'I' for Inactive)
REMARK    1  A    between atoms: C3_3  and  O1_10 
REMARK    2  A    between atoms: C6_6  and  N1_7 
ROOT
HETATM    1  C1  PAP L   1      -7.780   7.872  -1.739  1.00  0.00     0.026 A 
HETATM    2  C2  PAP L   1      -6.820   7.234  -0.949  1.00  0.00     0.038 A 
HETATM    3  C3  PAP L   1      -5.575   6.939  -1.486  1.00  0.00     0.065 A 
HETATM    4  C4  PAP L   1      -5.267   7.286  -2.797  1.00  0.00     0.038 A 
HETATM    5  C5  PAP L   1      -6.234   7.924  -3.581  1.00  0.00     0.026 A 
HETATM    6  C6  PAP L   1      -7.514   8.177  -3.077  1.00  0.00     0.005 A 
ENDROOT
BRANCH   6   7
HETATM    7  N1  PAP L   1      -8.432   8.920  -3.828  1.00  0.00    -0.303 NA
HETATM    8  H5  PAP L   1      -8.014   9.415  -4.609  1.00  0.00     0.124 HD
HETATM    9  H6  PAP L   1      -9.031   9.518  -3.268  1.00  0.00     0.124 HD
ENDBRANCH   6   7
BRANCH   3  10
HETATM   10  O1  PAP L   1      -4.665   6.318  -0.684  1.00  0.00    -0.361 OA
HETATM   11  H7  PAP L   1      -4.823   6.592   0.234  1.00  0.00     0.217 HD
ENDBRANCH   3  10
TORSDOF 2
ENDMDL
MODEL 5
REMARK VINA RESULT:      -3.5      8.572      9.359
REMARK  2 active torsions:
REMARK  status: ('A' for Active; 'I' for Inactive)
REMARK    1  A    between atoms: C3_3  and  O1_10 
REMARK    2  A    between atoms: C6_6  and  N1_7 
ROOT
HETATM    1  C1  PAP L   1      -5.999   7.526  -1.504  1.00  0.00     0.026 A 
HETATM    2  C2  PAP L   1      -6.967   7.318  -0.518  1.00  0.00     0.038 A 
HETATM    3  C3  PAP L   1      -8.313   7.385  -0.851  1.00  0.00     0.065 A 
HETATM    4  C4  PAP L   1      -8.707   7.640  -2.160  1.00  0.00     0.038 A 
HETATM    5  C5  PAP L   1      -7.733   7.848  -3.141  1.00  0.00     0.026 A 
HETATM    6  C6  PAP L   1      -6.373   7.844  -2.813  1.00  0.00     0.005 A 
ENDROOT
BRANCH   6   7
HETATM    7  N1  PAP L   1      -5.405   7.934  -3.820  1.00  0.00    -0.303 NA
HETATM    8  H5  PAP L   1      -5.549   7.281  -4.584  1.00  0.00     0.124 HD
HETATM    9  H6  PAP L   1      -4.451   7.918  -3.475  1.00  0.00     0.124 HD
ENDBRANCH   6   7
BRANCH   3  10
HETATM   10  O1  PAP L   1      -9.226   7.174   0.137  1.00  0.00    -0.361 OA
HETATM   11  H7  PAP L   1      -9.293   7.979   0.675  1.00  0.00     0.217 HD
ENDBRANCH   3  10
TORSDOF 2
ENDMDL
MODEL 6
REMARK VINA RESULT:      -3.5     15.176     15.598
REMARK  2 active torsions:
REMARK  status: ('A' for Active; 'I' for Inactive)
REMARK    1  A    between atoms: C3_3  and  O1_10 
REMARK    2  A    between atoms: C6_6  and  N1_7 
ROOT
HETATM    1  C1  PAP L   1      -2.392  -7.079   2.399  1.00  0.00     0.026 A 
HETATM    2  C2  PAP L   1      -1.845  -7.164   3.683  1.00  0.00     0.038 A 
HETATM    3  C3  PAP L   1      -0.997  -6.164   4.136  1.00  0.00     0.065 A 
HETATM    4  C4  PAP L   1      -0.698  -5.069   3.332  1.00  0.00     0.038 A 
HETATM    5  C5  PAP L   1      -1.248  -4.991   2.049  1.00  0.00     0.026 A 
HETATM    6  C6  PAP L   1      -2.058  -6.018   1.552  1.00  0.00     0.005 A 
ENDROOT
BRANCH   6   7
HETATM    7  N1  PAP L   1      -2.698  -5.875   0.316  1.00  0.00    -0.303 NA
HETATM    8  H5  PAP L   1      -2.461  -6.600  -0.353  1.00  0.00     0.124 HD
HETATM    9  H6  PAP L   1      -2.621  -4.944  -0.080  1.00  0.00     0.124 HD
ENDBRANCH   6   7
BRANCH   3  10
HETATM   10  O1  PAP L   1      -0.486  -6.282   5.394  1.00  0.00    -0.361 OA
HETATM   11  H7  PAP L   1      -1.065  -6.865   5.910  1.00  0.00     0.217 HD
ENDBRANCH   3  10
TORSDOF 2
ENDMDL
MODEL 7
REMARK VINA RESULT:      -3.5      8.214      9.056
REMARK  2 active torsions:
REMARK  status: ('A' for Active; 'I' for Inactive)
REMARK    1  A    between atoms: C3_3  and  O1_10 
REMARK    2  A    between atoms: C6_6  and  N1_7 
ROOT
HETATM    1  C1  PAP L   1      -8.781   7.645  -2.082  1.00  0.00     0.026 A 
HETATM    2  C2  PAP L   1      -7.939   7.847  -3.179  1.00  0.00     0.038 A 
HETATM    3  C3  PAP L   1      -6.563   7.854  -2.996  1.00  0.00     0.065 A 
HETATM    4  C4  PAP L   1      -6.014   7.646  -1.736  1.00  0.00     0.038 A 
HETATM    5  C5  PAP L   1      -6.864   7.445  -0.643  1.00  0.00     0.026 A 
HETATM    6  C6  PAP L   1      -8.253   7.494  -0.797  1.00  0.00     0.005 A 
ENDROOT
BRANCH   6   7
HETATM    7  N1  PAP L   1      -9.092   7.174   0.277  1.00  0.00    -0.303 NA
HETATM    8  H5  PAP L   1      -9.551   7.979   0.690  1.00  0.00     0.124 HD
HETATM    9  H6  PAP L   1      -8.657   6.578   0.974  1.00  0.00     0.124 HD
ENDBRANCH   6   7
BRANCH   3  10
HETATM   10  O1  PAP L   1      -5.775   8.051  -4.090  1.00  0.00    -0.361 OA
HETATM   11  H7  PAP L   1      -5.145   7.316  -4.156  1.00  0.00     0.217 HD
ENDBRANCH   3  10
TORSDOF 2
ENDMDL
MODEL 8
REMARK VINA RESULT:      -3.5      8.521      9.458
REMARK  2 active torsions:
REMARK  status: ('A' for Active; 'I' for Inactive)
REMARK    1  A    between atoms: C3_3  and  O1_10 
REMARK    2  A    between atoms: C6_6  and  N1_7 
ROOT
HETATM    1  C1  PAP L   1      -7.758   7.851  -3.077  1.00  0.00     0.026 A 
HETATM    2  C2  PAP L   1      -8.715   7.648  -2.079  1.00  0.00     0.038 A 
HETATM    3  C3  PAP L   1      -8.307   7.395  -0.777  1.00  0.00     0.065 A 
HETATM    4  C4  PAP L   1      -6.956   7.356  -0.452  1.00  0.00     0.038 A 
HETATM    5  C5  PAP L   1      -6.004   7.559  -1.456  1.00  0.00     0.026 A 
HETATM    6  C6  PAP L   1      -6.394   7.758  -2.785  1.00  0.00     0.005 A 
ENDROOT
BRANCH   6   7
HETATM    7  N1  PAP L   1      -5.440   8.078  -3.758  1.00  0.00    -0.303 NA
HETATM    8  H5  PAP L   1      -5.831   8.530  -4.578  1.00  0.00     0.124 HD
HETATM    9  H6  PAP L   1      -4.825   7.308  -3.999  1.00  0.00     0.124 HD
ENDBRANCH   6   7
BRANCH   3  10
HETATM   10  O1  PAP L   1      -9.271   7.205   0.168  1.00  0.00    -0.361 OA
HETATM   11  H7  PAP L   1      -9.422   6.251   0.269  1.00  0.00     0.217 HD
ENDBRANCH   3  10
TORSDOF 2
ENDMDL
MODEL 9
REMARK VINA RESULT:      -3.4     15.112     15.504
REMARK  2 active torsions:
REMARK  status: ('A' for Active; 'I' for Inactive)
REMARK    1  A    between atoms: C3_3  and  O1_10 
REMARK    2  A    between atoms: C6_6  and  N1_7 
ROOT
HETATM    1  C1  PAP L   1      -1.751  -7.225   3.586  1.00  0.00     0.026 A 
HETATM    2  C2  PAP L   1      -2.310  -7.065   2.316  1.00  0.00     0.038 A 
HETATM    3  C3  PAP L   1      -2.058  -5.906   1.595  1.00  0.00     0.065 A 
HETATM    4  C4  PAP L   1      -1.242  -4.910   2.118  1.00  0.00     0.038 A 
HETATM    5  C5  PAP L   1      -0.687  -5.077   3.391  1.00  0.00     0.026 A 
HETATM    6  C6  PAP L   1      -0.976  -6.211   4.156  1.00  0.00     0.005 A 
ENDROOT
BRANCH   6   7
HETATM    7  N1  PAP L   1      -0.322  -6.424   5.375  1.00  0.00    -0.303 NA
HETATM    8  H5  PAP L   1       0.558  -6.920   5.284  1.00  0.00     0.124 HD
HETATM    9  H6  PAP L   1      -0.916  -6.821   6.096  1.00  0.00     0.124 HD
ENDBRANCH   6   7
BRANCH   3  10
HETATM   10  O1  PAP L   1      -2.620  -5.788   0.359  1.00  0.00    -0.361 OA
HETATM   11  H7  PAP L   1      -2.412  -4.908   0.006  1.00  0.00     0.217 HD
ENDBRANCH   3  10
TORSDOF 2
ENDMDL
MODEL 10
REMARK VINA RESULT:      -3.3      1.039      2.053
REMARK  2 active torsions:
REMARK  status: ('A' for Active; 'I' for Inactive)
REMARK    1  A    between atoms: C3_3  and  O1_10 
REMARK    2  A    between atoms: C6_6  and  N1_7 
ROOT
HETATM    1  C1  PAP L   1      -8.305   7.863   6.047  1.00  0.00     0.026 A 
HETATM    2  C2  PAP L   1      -7.061   8.255   5.544  1.00  0.00     0.038 A 
HETATM    3  C3  PAP L   1      -5.907   7.957   6.254  1.00  0.00     0.065 A 
HETATM    4  C4  PAP L   1      -5.974   7.257   7.454  1.00  0.00     0.038 A 
HETATM    5  C5  PAP L   1      -7.222   6.869   7.952  1.00  0.00     0.026 A 
HETATM    6  C6  PAP L   1      -8.400   7.212   7.281  1.00  0.00     0.005 A 
ENDROOT
BRANCH   6   7
HETATM    7  N1  PAP L   1      -9.632   6.717   7.723  1.00  0.00    -0.303 NA
HETATM    8  H5  PAP L   1     -10.367   7.416   7.749  1.00  0.00     0.124 HD
HETATM    9  H6  PAP L   1      -9.575   6.185   8.586  1.00  0.00     0.124 HD
ENDBRANCH   6   7
BRANCH   3  10
HETATM   10  O1  PAP L   1      -4.714   8.354   5.729  1.00  0.00    -0.361 OA
HETATM   11  H7  PAP L   1      -4.002   7.867   6.174  1.00  0.00     0.217 HD
ENDBRANCH   3  10
TORSDOF 2
ENDMDL
MODEL 11
REMARK VINA RESULT:      -3.2      7.170      7.873
REMARK  2 active torsions:
REMARK  status: ('A' for Active; 'I' for Inactive)
REMARK    1  A    between atoms: C3_3  and  O1_10 
REMARK    2  A    between atoms: C6_6  and  N1_7 
ROOT
HETATM    1  C1  PAP L   1      -6.334   6.511   0.901  1.00  0.00     0.026 A 
HETATM    2  C2  PAP L   1      -7.096   7.612   0.500  1.00  0.00     0.038 A 
HETATM    3  C3  PAP L   1      -6.956   8.114  -0.786  1.00  0.00     0.065 A 
HETATM    4  C4  PAP L   1      -6.076   7.522  -1.685  1.00  0.00     0.038 A 
HETATM    5  C5  PAP L   1      -5.315   6.422  -1.277  1.00  0.00     0.026 A 
HETATM    6  C6  PAP L   1      -5.399   5.938   0.033  1.00  0.00     0.005 A 
ENDROOT
BRANCH   6   7
HETATM    7  N1  PAP L   1      -4.726   4.766   0.395  1.00  0.00    -0.303 NA
HETATM    8  H5  PAP L   1      -5.080   3.934  -0.064  1.00  0.00     0.124 HD
HETATM    9  H6  PAP L   1      -4.629   4.642   1.398  1.00  0.00     0.124 HD
ENDBRANCH   6   7
BRANCH   3  10
HETATM   10  O1  PAP L   1      -7.718   9.186  -1.139  1.00  0.00    -0.361 OA
HETATM   11  H7  PAP L   1      -8.624   9.040  -0.823  1.00  0.00     0.217 HD
ENDBRANCH   3  10
TORSDOF 2
ENDMDL
MODEL 12
REMARK VINA RESULT:      -3.2     22.931     23.562
REMARK  2 active torsions:
REMARK  status: ('A' for Active; 'I' for Inactive)
REMARK    1  A    between atoms: C3_3  and  O1_10 
REMARK    2  A    between atoms: C6_6  and  N1_7 
ROOT
HETATM    1  C1  PAP L   1       8.599  -1.150  -5.602  1.00  0.00     0.026 A 
HETATM    2  C2  PAP L   1       8.191  -2.249  -4.840  1.00  0.00     0.038 A 
HETATM    3  C3  PAP L   1       8.313  -3.529  -5.361  1.00  0.00     0.065 A 
HETATM    4  C4  PAP L   1       8.853  -3.731  -6.627  1.00  0.00     0.038 A 
HETATM    5  C5  PAP L   1       9.258  -2.627  -7.383  1.00  0.00     0.026 A 
HETATM    6  C6  PAP L   1       9.088  -1.325  -6.899  1.00  0.00     0.005 A 
ENDROOT
BRANCH   6   7
HETATM    7  N1  PAP L   1       9.605  -0.237  -7.611  1.00  0.00    -0.303 NA
HETATM    8  H5  PAP L   1       9.645  -0.387  -8.614  1.00  0.00     0.124 HD
HETATM    9  H6  PAP L   1      10.480   0.119  -7.239  1.00  0.00     0.124 HD
ENDBRANCH   6   7
BRANCH   3  10
HETATM   10  O1  PAP L   1       7.906  -4.574  -4.587  1.00  0.00    -0.361 OA
HETATM   11  H7  PAP L   1       8.021  -5.396  -5.091  1.00  0.00     0.217 HD
ENDBRANCH   3  10
TORSDOF 2
ENDMDL
MODEL 13
REMARK VINA RESULT:      -3.2      9.502     10.198
REMARK  2 active torsions:
REMARK  status: ('A' for Active; 'I' for Inactive)
REMARK    1  A    between atoms: C3_3  and  O1_10 
REMARK    2  A    between atoms: C6_6  and  N1_7 
ROOT
HETATM    1  C1  PAP L   1      -6.261   7.987  -3.635  1.00  0.00     0.026 A 
HETATM    2  C2  PAP L   1      -5.406   7.456  -2.665  1.00  0.00     0.038 A 
HETATM    3  C3  PAP L   1      -5.076   8.215  -1.551  1.00  0.00     0.065 A 
HETATM    4  C4  PAP L   1      -5.600   9.492  -1.382  1.00  0.00     0.038 A 
HETATM    5  C5  PAP L   1      -6.454  10.016  -2.357  1.00  0.00     0.026 A 
HETATM    6  C6  PAP L   1      -6.752   9.290  -3.515  1.00  0.00     0.005 A 
ENDROOT
BRANCH   6   7
HETATM    7  N1  PAP L   1      -7.699   9.773  -4.425  1.00  0.00    -0.303 NA
HETATM    8  H5  PAP L   1      -8.232   9.042  -4.885  1.00  0.00     0.124 HD
HETATM    9  H6  PAP L   1      -7.329  10.453  -5.081  1.00  0.00     0.124 HD
ENDBRANCH   6   7
BRANCH   3  10
HETATM   10  O1  PAP L   1      -4.241   7.662  -0.627  1.00  0.00    -0.361 OA
HETATM   11  H7  PAP L   1      -4.726   7.559   0.207  1.00  0.00     0.217 HD
ENDBRANCH   3  10
TORSDOF 2
ENDMDL
MODEL 14
REMARK VINA RESULT:      -3.1     15.727     15.977
REMARK  2 active torsions:
REMARK  status: ('A' for Active; 'I' for Inactive)
REMARK    1  A    between atoms: C3_3  and  O1_10 
REMARK    2  A    between atoms: C6_6  and  N1_7 
ROOT
HETATM    1  C1  PAP L   1      -2.815  -7.249   2.427  1.00  0.00     0.026 A 
HETATM    2  C2  PAP L   1      -1.768  -6.643   3.126  1.00  0.00     0.038 A 
HETATM    3  C3  PAP L   1      -1.698  -6.772   4.506  1.00  0.00     0.065 A 
HETATM    4  C4  PAP L   1      -2.650  -7.511   5.198  1.00  0.00     0.038 A 
HETATM    5  C5  PAP L   1      -3.696  -8.114   4.492  1.00  0.00     0.026 A 
HETATM    6  C6  PAP L   1      -3.817  -7.947   3.108  1.00  0.00     0.005 A 
ENDROOT
BRANCH   6   7
HETATM    7  N1  PAP L   1      -4.795  -8.650   2.396  1.00  0.00    -0.303 NA
HETATM    8  H5  PAP L   1      -5.700  -8.191   2.384  1.00  0.00     0.124 HD
HETATM    9  H6  PAP L   1      -4.863  -9.630   2.651  1.00  0.00     0.124 HD
ENDBRANCH   6   7
BRANCH   3  10
HETATM   10  O1  PAP L   1      -0.661  -6.168   5.152  1.00  0.00    -0.361 OA
HETATM   11  H7  PAP L   1       0.170  -6.558   4.835  1.00  0.00     0.217 HD
ENDBRANCH   3  10
TORSDOF 2
ENDMDL
MODEL 15
REMARK VINA RESULT:      -3.1     15.400     15.745
REMARK  2 active torsions:
REMARK  status: ('A' for Active; 'I' for Inactive)
REMARK    1  A    between atoms: C3_3  and  O1_10 
REMARK    2  A    between atoms: C6_6  and  N1_7 
ROOT
HETATM    1  C1  PAP L   1      -2.630  -6.794   4.486  1.00  0.00     0.026 A 
HETATM    2  C2  PAP L   1      -1.963  -6.047   3.511  1.00  0.00     0.038 A 
HETATM    3  C3  PAP L   1      -2.092  -6.391   2.173  1.00  0.00     0.065 A 
HETATM    4  C4  PAP L   1      -2.891  -7.463   1.791  1.00  0.00     0.038 A 
HETATM    5  C5  PAP L   1      -3.555  -8.207   2.772  1.00  0.00     0.026 A 
HETATM    6  C6  PAP L   1      -3.391  -7.912   4.129  1.00  0.00     0.005 A 
ENDROOT
BRANCH   6   7
HETATM    7  N1  PAP L   1      -4.151  -8.584   5.093  1.00  0.00    -0.303 NA
HETATM    8  H5  PAP L   1      -3.982  -9.584   5.121  1.00  0.00     0.124 HD
HETATM    9  H6  PAP L   1      -5.140  -8.360   5.064  1.00  0.00     0.124 HD
ENDBRANCH   6   7
BRANCH   3  10
HETATM   10  O1  PAP L   1      -1.427  -5.637   1.253  1.00  0.00    -0.361 OA
HETATM   11  H7  PAP L   1      -1.977  -4.870   1.026  1.00  0.00     0.217 HD
ENDBRANCH   3  10
TORSDOF 2
ENDMDL
MODEL 16
REMARK VINA RESULT:      -3.1     16.272     17.018
REMARK  2 active torsions:
REMARK  status: ('A' for Active; 'I' for Inactive)
REMARK    1  A    between atoms: C3_3  and  O1_10 
REMARK    2  A    between atoms: C6_6  and  N1_7 
ROOT
HETATM    1  C1  PAP L   1       4.803  -1.174   0.396  1.00  0.00     0.026 A 
HETATM    2  C2  PAP L   1       4.254   0.097   0.587  1.00  0.00     0.038 A 
HETATM    3  C3  PAP L   1       5.049   1.222   0.420  1.00  0.00     0.065 A 
HETATM    4  C4  PAP L   1       6.383   1.097   0.048  1.00  0.00     0.038 A 
HETATM    5  C5  PAP L   1       6.926  -0.177  -0.140  1.00  0.00     0.026 A 
HETATM    6  C6  PAP L   1       6.157  -1.325   0.081  1.00  0.00     0.005 A 
ENDROOT
BRANCH   6   7
HETATM    7  N1  PAP L   1       6.673  -2.589  -0.225  1.00  0.00    -0.303 NA
HETATM    8  H5  PAP L   1       6.386  -3.314   0.423  1.00  0.00     0.124 HD
HETATM    9  H6  PAP L   1       7.674  -2.594  -0.392  1.00  0.00     0.124 HD
ENDBRANCH   6   7
BRANCH   3  10
HETATM   10  O1  PAP L   1       4.477   2.443   0.613  1.00  0.00    -0.361 OA
HETATM   11  H7  PAP L   1       3.954   2.668  -0.174  1.00  0.00     0.217 HD
ENDBRANCH   3  10
TORSDOF 2
ENDMDL
MODEL 17
REMARK VINA RESULT:      -3.1      8.231      9.084
REMARK  2 active torsions:
REMARK  status: ('A' for Active; 'I' for Inactive)
REMARK    1  A    between atoms: C3_3  and  O1_10 
REMARK    2  A    between atoms: C6_6  and  N1_7 
ROOT
HETATM    1  C1  PAP L   1      -4.721   9.109  -0.305  1.00  0.00     0.026 A 
HETATM    2  C2  PAP L   1      -5.027   7.967   0.439  1.00  0.00     0.038 A 
HETATM    3  C3  PAP L   1      -5.347   6.785  -0.216  1.00  0.00     0.065 A 
HETATM    4  C4  PAP L   1      -5.349   6.723  -1.605  1.00  0.00     0.038 A 
HETATM    5  C5  PAP L   1      -5.043   7.870  -2.343  1.00  0.00     0.026 A 
HETATM    6  C6  PAP L   1      -4.776   9.085  -1.702  1.00  0.00     0.005 A 
ENDROOT
BRANCH   6   7
HETATM    7  N1  PAP L   1      -4.354  10.194  -2.444  1.00  0.00    -0.303 NA
HETATM    8  H5  PAP L   1      -5.098  10.851  -2.655  1.00  0.00     0.124 HD
HETATM    9  H6  PAP L   1      -3.805   9.956  -3.263  1.00  0.00     0.124 HD
ENDBRANCH   6   7
BRANCH   3  10
HETATM   10  O1  PAP L   1      -5.637   5.693   0.545  1.00  0.00    -0.361 OA
HETATM   11  H7  PAP L   1      -5.496   5.918   1.478  1.00  0.00     0.217 HD
ENDBRANCH   3  10
TORSDOF 2
ENDMDL
MODEL 18
REMARK VINA RESULT:      -3.1      6.609      7.250
REMARK  2 active torsions:
REMARK  status: ('A' for Active; 'I' for Inactive)
REMARK    1  A    between atoms: C3_3  and  O1_10 
REMARK    2  A    between atoms: C6_6  and  N1_7 
ROOT
HETATM    1  C1  PAP L   1      -7.418   6.997   1.155  1.00  0.00     0.026 A 
HETATM    2  C2  PAP L   1      -6.263   6.841   0.384  1.00  0.00     0.038 A 
HETATM    3  C3  PAP L   1      -6.310   7.084  -0.982  1.00  0.00     0.065 A 
HETATM    4  C4  PAP L   1      -7.492   7.496  -1.588  1.00  0.00     0.038 A 
HETATM    5  C5  PAP L   1      -8.644   7.649  -0.810  1.00  0.00     0.026 A 
HETATM    6  C6  PAP L   1      -8.631   7.352   0.557  1.00  0.00     0.005 A 
ENDROOT
BRANCH   6   7
HETATM    7  N1  PAP L   1      -9.754   7.622   1.347  1.00  0.00    -0.303 NA
HETATM    8  H5  PAP L   1     -10.386   6.834   1.441  1.00  0.00     0.124 HD
HETATM    9  H6  PAP L   1     -10.239   8.477   1.093  1.00  0.00     0.124 HD
ENDBRANCH   6   7
BRANCH   3  10
HETATM   10  O1  PAP L   1      -5.163   6.923  -1.699  1.00  0.00    -0.361 OA
HETATM   11  H7  PAP L   1      -4.973   5.974  -1.772  1.00  0.00     0.217 HD
ENDBRANCH   3  10
TORSDOF 2
ENDMDL
MODEL 19
REMARK VINA RESULT:      -3.0     10.415     10.548
REMARK  2 active torsions:
REMARK  status: ('A' for Active; 'I' for Inactive)
REMARK    1  A    between atoms: C3_3  and  O1_10 
REMARK    2  A    between atoms: C6_6  and  N1_7 
ROOT
HETATM    1  C1  PAP L   1      -5.900   9.782  -2.689  1.00  0.00     0.026 A 
HETATM    2  C2  PAP L   1      -7.066  10.536  -2.846  1.00  0.00     0.038 A 
HETATM    3  C3  PAP L   1      -8.249   9.906  -3.206  1.00  0.00     0.065 A 
HETATM    4  C4  PAP L   1      -8.289   8.529  -3.397  1.00  0.00     0.038 A 
HETATM    5  C5  PAP L   1      -7.118   7.781  -3.239  1.00  0.00     0.026 A 
HETATM    6  C6  PAP L   1      -5.904   8.405  -2.934  1.00  0.00     0.005 A 
ENDROOT
BRANCH   6   7
HETATM    7  N1  PAP L   1      -4.766   7.637  -2.661  1.00  0.00    -0.303 NA
HETATM    8  H5  PAP L   1      -3.912   8.021  -3.052  1.00  0.00     0.124 HD
HETATM    9  H6  PAP L   1      -4.877   6.651  -2.870  1.00  0.00     0.124 HD
ENDBRANCH   6   7
BRANCH   3  10
HETATM   10  O1  PAP L   1      -9.365  10.675  -3.347  1.00  0.00    -0.361 OA
HETATM   11  H7  PAP L   1      -9.094  11.571  -3.605  1.00  0.00     0.217 HD
ENDBRANCH   3  10
TORSDOF 2
ENDMDL
MODEL 20
REMARK VINA RESULT:      -3.0      7.395      8.175
REMARK  2 active torsions:
REMARK  status: ('A' for Active; 'I' for Inactive)
REMARK    1  A    between atoms: C3_3  and  O1_10 
REMARK    2  A    between atoms: C6_6  and  N1_7 
ROOT
HETATM    1  C1  PAP L   1      -6.654   7.471  -1.873  1.00  0.00     0.026 A 
HETATM    2  C2  PAP L   1      -6.060   7.385  -0.611  1.00  0.00     0.038 A 
HETATM    3  C3  PAP L   1      -6.857   7.354   0.524  1.00  0.00     0.065 A 
HETATM    4  C4  PAP L   1      -8.243   7.391   0.418  1.00  0.00     0.038 A 
HETATM    5  C5  PAP L   1      -8.831   7.478  -0.848  1.00  0.00     0.026 A 
HETATM    6  C6  PAP L   1      -8.043   7.570  -2.000  1.00  0.00     0.005 A 
ENDROOT
BRANCH   6   7
HETATM    7  N1  PAP L   1      -8.639   7.536  -3.266  1.00  0.00    -0.303 NA
HETATM    8  H5  PAP L   1      -9.391   6.859  -3.345  1.00  0.00     0.124 HD
HETATM    9  H6  PAP L   1      -7.976   7.466  -4.030  1.00  0.00     0.124 HD
ENDBRANCH   6   7
BRANCH   3  10
HETATM   10  O1  PAP L   1      -6.240   7.267   1.735  1.00  0.00    -0.361 OA
HETATM   11  H7  PAP L   1      -5.752   6.430   1.776  1.00  0.00     0.217 HD
ENDBRANCH   3  10
TORSDOF 2
ENDMDL
