MODEL 1
REMARK VINA RESULT:      -6.5      0.000      0.000
REMARK  27 active torsions:
REMARK  status: ('A' for Active; 'I' for Inactive)
REMARK    1  A    between atoms: C2_2  and  S1_4 
REMARK    2  A    between atoms: S1_4  and  C3_5 
REMARK    3  A    between atoms: C3_5  and  C4_6 
REMARK    4  A    between atoms: C4_6  and  N1_7 
REMARK       I    between atoms: N1_7  and  C5_8 
REMARK    5  A    between atoms: C5_8  and  C6_10 
REMARK    6  A    between atoms: C6_10  and  C7_11 
REMARK    7  A    between atoms: C7_11  and  N2_12 
REMARK       I    between atoms: N2_12  and  C8_13 
REMARK    8  A    between atoms: C8_13  and  C9_15 
REMARK    9  A    between atoms: C9_15  and  C10_16 
REMARK   10  A    between atoms: C9_15  and  O17_54 
REMARK   11  A    between atoms: C10_16  and  C13_19 
REMARK   12  A    between atoms: C13_19  and  O4_20 
REMARK   13  A    between atoms: O4_20  and  P1_21 
REMARK   14  A    between atoms: P1_21  and  O6_23 
REMARK   15  A    between atoms: P1_21  and  O7_24 
REMARK   16  A    between atoms: O7_24  and  P2_25 
REMARK   17  A    between atoms: P2_25  and  O9_27 
REMARK   18  A    between atoms: P2_25  and  O10_28 
REMARK   19  A    between atoms: O10_28  and  C14_29 
REMARK   20  A    between atoms: C14_29  and  C15_30 
REMARK   21  A    between atoms: C16_31  and  O13_49 
REMARK   22  A    between atoms: C17_32  and  O12_48 
REMARK   23  A    between atoms: C18_33  and  N3_35 
REMARK   24  A    between atoms: C21_40  and  N7_47 
REMARK   25  A    between atoms: O13_49  and  P3_50 
REMARK   26  A    between atoms: P3_50  and  O15_52 
REMARK   27  A    between atoms: P3_50  and  O16_53 
ROOT
HETATM    1  C1  UNL     1     -14.127  13.875   6.762  1.00  0.00     0.104 C 
HETATM    2  C2  UNL     1     -14.031  12.414   6.443  1.00  0.00     0.182 C 
HETATM    3  O1  UNL     1     -13.686  11.566   7.263  1.00  0.00    -0.286 OA
ENDROOT
BRANCH   2   4
HETATM    4  S1  UNL     1     -14.414  12.009   4.775  1.00  0.00    -0.091 SA
BRANCH   4   5
HETATM    5  C3  UNL     1     -12.859  12.494   3.959  1.00  0.00     0.102 C 
BRANCH   5   6
HETATM    6  C4  UNL     1     -12.302  11.371   3.082  1.00  0.00     0.133 C 
BRANCH   6   7
HETATM    7  N1  UNL     1     -11.823  11.847   1.800  1.00  0.00    -0.360 N 
HETATM    8  C5  UNL     1     -11.046  11.062   0.980  1.00  0.00     0.219 C 
HETATM    9  O2  UNL     1     -10.646   9.953   1.314  1.00  0.00    -0.274 OA
HETATM   10  H8  UNL     1     -12.076  12.780   1.502  1.00  0.00     0.162 HD
BRANCH   8  11
HETATM   11  C6  UNL     1     -10.700  11.728  -0.334  1.00  0.00     0.122 C 
BRANCH  11  12
HETATM   12  C7  UNL     1      -9.251  12.212  -0.365  1.00  0.00     0.132 C 
BRANCH  12  13
HETATM   13  N2  UNL     1      -8.416  11.446  -1.266  1.00  0.00    -0.358 N 
HETATM   14  C8  UNL     1      -7.589  10.452  -0.775  1.00  0.00     0.247 C 
HETATM   15  O3  UNL     1      -7.441  10.262   0.425  1.00  0.00    -0.271 OA
HETATM   16  H13 UNL     1      -8.785  11.323  -2.207  1.00  0.00     0.162 HD
BRANCH  14  17
HETATM   17  C9  UNL     1      -6.895   9.602  -1.850  1.00  0.00     0.219 C 
BRANCH  17  18
HETATM   18  C10 UNL     1      -7.590   8.248  -2.147  1.00  0.00     0.009 C 
HETATM   19  C11 UNL     1      -8.813   8.016  -1.247  1.00  0.00     0.020 C 
HETATM   20  C12 UNL     1      -8.057   8.161  -3.614  1.00  0.00     0.020 C 
BRANCH  18  21
HETATM   21  C13 UNL     1      -6.523   7.151  -1.870  1.00  0.00     0.192 C 
BRANCH  21  22
HETATM   22  O4  UNL     1      -5.565   7.560  -0.914  1.00  0.00    -0.296 OA
BRANCH  22  23
HETATM   23  P1  UNL     1      -5.465   6.915   0.550  1.00  0.00     0.401 P 
HETATM   24  O5  UNL     1      -5.230   5.437   0.553  1.00  0.00    -0.631 OA
BRANCH  23  25
HETATM   25  O6  UNL     1      -6.791   7.363   1.347  1.00  0.00    -0.307 OA
HETATM   26  H23 UNL     1      -6.686   7.271   2.303  1.00  0.00     0.222 HD
ENDBRANCH  23  25
BRANCH  23  27
HETATM   27  O7  UNL     1      -4.351   7.768   1.300  1.00  0.00    -0.195 OA
BRANCH  27  28
HETATM   28  P2  UNL     1      -3.853   7.290   2.736  1.00  0.00     0.401 P 
HETATM   29  O8  UNL     1      -2.946   6.104   2.778  1.00  0.00    -0.631 OA
BRANCH  28  30
HETATM   30  O9  UNL     1      -3.221   8.616   3.363  1.00  0.00    -0.307 OA
HETATM   31  H24 UNL     1      -2.234   8.608   3.412  1.00  0.00     0.222 HD
ENDBRANCH  28  30
BRANCH  28  32
HETATM   32  O10 UNL     1      -5.196   7.172   3.591  1.00  0.00    -0.294 OA
BRANCH  32  33
HETATM   33  C14 UNL     1      -5.161   7.355   4.982  1.00  0.00     0.215 C 
BRANCH  33  34
HETATM   34  C15 UNL     1      -6.217   8.413   5.300  1.00  0.00     0.180 C 
HETATM   35  C16 UNL     1      -6.060   8.881   6.741  1.00  0.00     0.197 C 
HETATM   36  C17 UNL     1      -7.364   8.494   7.414  1.00  0.00     0.199 C 
HETATM   37  C18 UNL     1      -8.339   8.460   6.235  1.00  0.00     0.262 C 
HETATM   38  O11 UNL     1      -7.556   7.931   5.141  1.00  0.00    -0.353 OA
BRANCH  35  39
HETATM   39  O13 UNL     1      -5.860  10.290   6.728  1.00  0.00    -0.286 OA
BRANCH  39  40
HETATM   40  P3  UNL     1      -4.338  10.769   6.624  1.00  0.00     0.391 P 
HETATM   41  O14 UNL     1      -3.346   9.683   6.888  1.00  0.00    -0.632 OA
BRANCH  40  42
HETATM   42  O15 UNL     1      -4.350  12.020   7.621  1.00  0.00    -0.307 OA
HETATM   43  H36 UNL     1      -3.494  12.086   8.107  1.00  0.00     0.222 HD
ENDBRANCH  40  42
BRANCH  40  44
HETATM   44  O16 UNL     1      -4.319  11.451   5.188  1.00  0.00    -0.307 OA
HETATM   45  H37 UNL     1      -3.453  11.392   4.754  1.00  0.00     0.222 HD
ENDBRANCH  40  44
ENDBRANCH  39  40
ENDBRANCH  35  39
BRANCH  36  46
HETATM   46  O12 UNL     1      -7.657   9.399   8.482  1.00  0.00    -0.388 OA
HETATM   47  H35 UNL     1      -8.255   8.915   9.100  1.00  0.00     0.210 HD
ENDBRANCH  36  46
BRANCH  37  48
HETATM   48  N3  UNL     1      -9.466   7.580   6.470  1.00  0.00    -0.297 N 
HETATM   49  C19 UNL     1     -10.037   7.267   7.681  1.00  0.00     0.188 A 
HETATM   50  N4  UNL     1     -11.125   6.540   7.546  1.00  0.00    -0.346 N 
HETATM   51  C20 UNL     1     -11.269   6.378   6.179  1.00  0.00     0.116 A 
HETATM   52  H4  UNL     1     -11.728   6.177   8.284  1.00  0.00     0.167 HD
HETATM   53  C21 UNL     1     -12.245   5.742   5.393  1.00  0.00     0.109 A 
HETATM   54  C23 UNL     1     -10.226   6.984   5.503  1.00  0.00     0.142 A 
HETATM   55  N5  UNL     1     -12.097   5.747   4.045  1.00  0.00    -0.341 N 
HETATM   56  C22 UNL     1     -11.014   6.358   3.525  1.00  0.00     0.183 A 
HETATM   57  H5  UNL     1     -12.786   5.299   3.442  1.00  0.00     0.167 HD
HETATM   58  N6  UNL     1     -10.023   7.003   4.173  1.00  0.00    -0.336 N 
HETATM   59  H6  UNL     1      -9.227   7.448   3.717  1.00  0.00     0.168 HD
BRANCH  53  60
HETATM   60  N7  UNL     1     -13.352   5.100   5.924  1.00  0.00    -0.287 NA
HETATM   61  H33 UNL     1     -13.133   4.261   6.457  1.00  0.00     0.125 HD
HETATM   62  H34 UNL     1     -14.122   5.037   5.272  1.00  0.00     0.125 HD
ENDBRANCH  53  60
ENDBRANCH  37  48
ENDBRANCH  33  34
ENDBRANCH  32  33
ENDBRANCH  28  32
ENDBRANCH  27  28
ENDBRANCH  23  27
ENDBRANCH  22  23
ENDBRANCH  21  22
ENDBRANCH  18  21
ENDBRANCH  17  18
BRANCH  17  63
HETATM   63  O17 UNL     1      -6.796  10.340  -3.073  1.00  0.00    -0.385 OA
HETATM   64  H38 UNL     1      -5.914  10.181  -3.451  1.00  0.00     0.210 HD
ENDBRANCH  17  63
ENDBRANCH  14  17
ENDBRANCH  12  13
ENDBRANCH  11  12
ENDBRANCH   8  11
ENDBRANCH   6   7
ENDBRANCH   5   6
ENDBRANCH   4   5
ENDBRANCH   2   4
TORSDOF 27
ENDMDL
MODEL 2
REMARK VINA RESULT:      -6.3      3.936      8.183
REMARK  27 active torsions:
REMARK  status: ('A' for Active; 'I' for Inactive)
REMARK    1  A    between atoms: C2_2  and  S1_4 
REMARK    2  A    between atoms: S1_4  and  C3_5 
REMARK    3  A    between atoms: C3_5  and  C4_6 
REMARK    4  A    between atoms: C4_6  and  N1_7 
REMARK       I    between atoms: N1_7  and  C5_8 
REMARK    5  A    between atoms: C5_8  and  C6_10 
REMARK    6  A    between atoms: C6_10  and  C7_11 
REMARK    7  A    between atoms: C7_11  and  N2_12 
REMARK       I    between atoms: N2_12  and  C8_13 
REMARK    8  A    between atoms: C8_13  and  C9_15 
REMARK    9  A    between atoms: C9_15  and  C10_16 
REMARK   10  A    between atoms: C9_15  and  O17_54 
REMARK   11  A    between atoms: C10_16  and  C13_19 
REMARK   12  A    between atoms: C13_19  and  O4_20 
REMARK   13  A    between atoms: O4_20  and  P1_21 
REMARK   14  A    between atoms: P1_21  and  O6_23 
REMARK   15  A    between atoms: P1_21  and  O7_24 
REMARK   16  A    between atoms: O7_24  and  P2_25 
REMARK   17  A    between atoms: P2_25  and  O9_27 
REMARK   18  A    between atoms: P2_25  and  O10_28 
REMARK   19  A    between atoms: O10_28  and  C14_29 
REMARK   20  A    between atoms: C14_29  and  C15_30 
REMARK   21  A    between atoms: C16_31  and  O13_49 
REMARK   22  A    between atoms: C17_32  and  O12_48 
REMARK   23  A    between atoms: C18_33  and  N3_35 
REMARK   24  A    between atoms: C21_40  and  N7_47 
REMARK   25  A    between atoms: O13_49  and  P3_50 
REMARK   26  A    between atoms: P3_50  and  O15_52 
REMARK   27  A    between atoms: P3_50  and  O16_53 
ROOT
HETATM    1  C1  UNL     1      -1.205  14.077  -2.338  1.00  0.00     0.104 C 
HETATM    2  C2  UNL     1      -1.961  13.037  -3.107  1.00  0.00     0.182 C 
HETATM    3  O1  UNL     1      -1.465  11.972  -3.468  1.00  0.00    -0.286 OA
ENDROOT
BRANCH   2   4
HETATM    4  S1  UNL     1      -3.618  13.481  -3.491  1.00  0.00    -0.091 SA
BRANCH   4   5
HETATM    5  C3  UNL     1      -4.521  12.210  -2.547  1.00  0.00     0.102 C 
BRANCH   5   6
HETATM    6  C4  UNL     1      -5.973  12.079  -3.011  1.00  0.00     0.133 C 
BRANCH   6   7
HETATM    7  N1  UNL     1      -6.896  11.889  -1.911  1.00  0.00    -0.360 N 
HETATM    8  C5  UNL     1      -8.021  11.107  -2.037  1.00  0.00     0.219 C 
HETATM    9  O2  UNL     1      -8.352  10.593  -3.099  1.00  0.00    -0.274 OA
HETATM   10  H8  UNL     1      -6.700  12.340  -1.028  1.00  0.00     0.162 HD
BRANCH   8  11
HETATM   11  C6  UNL     1      -8.820  10.996  -0.757  1.00  0.00     0.122 C 
BRANCH  11  12
HETATM   12  C7  UNL     1      -9.589  12.280  -0.450  1.00  0.00     0.132 C 
BRANCH  12  13
HETATM   13  N2  UNL     1     -10.182  12.285   0.871  1.00  0.00    -0.358 N 
HETATM   14  C8  UNL     1     -11.477  11.835   1.055  1.00  0.00     0.247 C 
HETATM   15  O3  UNL     1     -12.202  11.534   0.115  1.00  0.00    -0.271 OA
HETATM   16  H13 UNL     1      -9.531  12.160   1.643  1.00  0.00     0.162 HD
BRANCH  14  17
HETATM   17  C9  UNL     1     -11.918  11.727   2.522  1.00  0.00     0.219 C 
BRANCH  17  18
HETATM   18  C10 UNL     1     -12.874  12.856   2.990  1.00  0.00     0.009 C 
HETATM   19  C11 UNL     1     -12.652  14.162   2.212  1.00  0.00     0.020 C 
HETATM   20  C12 UNL     1     -14.352  12.450   2.825  1.00  0.00     0.020 C 
BRANCH  18  21
HETATM   21  C13 UNL     1     -12.558  13.086   4.496  1.00  0.00     0.192 C 
BRANCH  21  22
HETATM   22  O4  UNL     1     -12.058  11.923   5.125  1.00  0.00    -0.296 OA
BRANCH  22  23
HETATM   23  P1  UNL     1     -12.912  11.067   6.178  1.00  0.00     0.401 P 
HETATM   24  O5  UNL     1     -13.940  10.177   5.554  1.00  0.00    -0.631 OA
BRANCH  23  25
HETATM   25  O6  UNL     1     -13.517  12.111   7.244  1.00  0.00    -0.307 OA
HETATM   26  H23 UNL     1     -13.366  11.826   8.154  1.00  0.00     0.222 HD
ENDBRANCH  23  25
BRANCH  23  27
HETATM   27  O7  UNL     1     -11.830  10.311   7.066  1.00  0.00    -0.195 OA
BRANCH  27  28
HETATM   28  P2  UNL     1     -10.997   9.119   6.416  1.00  0.00     0.401 P 
HETATM   29  O8  UNL     1     -10.819   7.887   7.243  1.00  0.00    -0.631 OA
BRANCH  28  30
HETATM   30  O9  UNL     1     -11.741   8.867   5.025  1.00  0.00    -0.307 OA
HETATM   31  H24 UNL     1     -11.604   7.962   4.652  1.00  0.00     0.222 HD
ENDBRANCH  28  30
BRANCH  28  32
HETATM   32  O10 UNL     1      -9.654   9.818   5.908  1.00  0.00    -0.294 OA
BRANCH  32  33
HETATM   33  C14 UNL     1      -9.331   9.809   4.542  1.00  0.00     0.215 C 
BRANCH  33  34
HETATM   34  C15 UNL     1      -8.524   8.534   4.303  1.00  0.00     0.180 C 
HETATM   35  C16 UNL     1      -7.276   8.543   5.175  1.00  0.00     0.197 C 
HETATM   36  C17 UNL     1      -6.120   8.532   4.192  1.00  0.00     0.199 C 
HETATM   37  C18 UNL     1      -6.751   7.880   2.959  1.00  0.00     0.262 C 
HETATM   38  O11 UNL     1      -8.105   8.386   2.941  1.00  0.00    -0.353 OA
BRANCH  35  39
HETATM   39  O13 UNL     1      -7.298   7.375   5.989  1.00  0.00    -0.286 OA
BRANCH  39  40
HETATM   40  P3  UNL     1      -6.948   7.604   7.532  1.00  0.00     0.391 P 
HETATM   41  O14 UNL     1      -5.589   7.119   7.920  1.00  0.00    -0.632 OA
BRANCH  40  42
HETATM   42  O15 UNL     1      -8.210   6.912   8.231  1.00  0.00    -0.307 OA
HETATM   43  H36 UNL     1      -8.627   7.524   8.882  1.00  0.00     0.222 HD
ENDBRANCH  40  42
BRANCH  40  44
HETATM   44  O16 UNL     1      -7.250   9.157   7.697  1.00  0.00    -0.307 OA
HETATM   45  H37 UNL     1      -6.480   9.713   7.501  1.00  0.00     0.222 HD
ENDBRANCH  40  44
ENDBRANCH  39  40
ENDBRANCH  35  39
BRANCH  36  46
HETATM   46  O12 UNL     1      -4.984   7.883   4.769  1.00  0.00    -0.388 OA
HETATM   47  H35 UNL     1      -5.068   7.992   5.746  1.00  0.00     0.210 HD
ENDBRANCH  36  46
BRANCH  37  48
HETATM   48  N3  UNL     1      -6.093   8.266   1.727  1.00  0.00    -0.297 N 
HETATM   49  C19 UNL     1      -4.834   8.803   1.590  1.00  0.00     0.188 A 
HETATM   50  N4  UNL     1      -4.479   8.925   0.330  1.00  0.00    -0.346 N 
HETATM   51  C20 UNL     1      -5.559   8.440  -0.386  1.00  0.00     0.116 A 
HETATM   52  H4  UNL     1      -3.603   9.296  -0.038  1.00  0.00     0.167 HD
HETATM   53  C21 UNL     1      -5.788   8.261  -1.761  1.00  0.00     0.109 A 
HETATM   54  C23 UNL     1      -6.581   8.064   0.466  1.00  0.00     0.142 A 
HETATM   55  N5  UNL     1      -6.982   7.759  -2.161  1.00  0.00    -0.341 N 
HETATM   56  C22 UNL     1      -7.896   7.459  -1.217  1.00  0.00     0.183 A 
HETATM   57  H5  UNL     1      -7.183   7.612  -3.150  1.00  0.00     0.167 HD
HETATM   58  N6  UNL     1      -7.787   7.578   0.122  1.00  0.00    -0.336 N 
HETATM   59  H6  UNL     1      -8.521   7.332   0.787  1.00  0.00     0.168 HD
BRANCH  53  60
HETATM   60  N7  UNL     1      -4.857   8.581  -2.737  1.00  0.00    -0.287 NA
HETATM   61  H33 UNL     1      -4.285   7.798  -3.044  1.00  0.00     0.125 HD
HETATM   62  H34 UNL     1      -4.376   9.452  -2.553  1.00  0.00     0.125 HD
ENDBRANCH  53  60
ENDBRANCH  37  48
ENDBRANCH  33  34
ENDBRANCH  32  33
ENDBRANCH  28  32
ENDBRANCH  27  28
ENDBRANCH  23  27
ENDBRANCH  22  23
ENDBRANCH  21  22
ENDBRANCH  18  21
ENDBRANCH  17  18
BRANCH  17  63
HETATM   63  O17 UNL     1     -12.556  10.467   2.753  1.00  0.00    -0.385 OA
HETATM   64  H38 UNL     1     -13.037  10.219   1.945  1.00  0.00     0.210 HD
ENDBRANCH  17  63
ENDBRANCH  14  17
ENDBRANCH  12  13
ENDBRANCH  11  12
ENDBRANCH   8  11
ENDBRANCH   6   7
ENDBRANCH   5   6
ENDBRANCH   4   5
ENDBRANCH   2   4
TORSDOF 27
ENDMDL
MODEL 3
REMARK VINA RESULT:      -5.7      3.130      7.202
REMARK  27 active torsions:
REMARK  status: ('A' for Active; 'I' for Inactive)
REMARK    1  A    between atoms: C2_2  and  S1_4 
REMARK    2  A    between atoms: S1_4  and  C3_5 
REMARK    3  A    between atoms: C3_5  and  C4_6 
REMARK    4  A    between atoms: C4_6  and  N1_7 
REMARK       I    between atoms: N1_7  and  C5_8 
REMARK    5  A    between atoms: C5_8  and  C6_10 
REMARK    6  A    between atoms: C6_10  and  C7_11 
REMARK    7  A    between atoms: C7_11  and  N2_12 
REMARK       I    between atoms: N2_12  and  C8_13 
REMARK    8  A    between atoms: C8_13  and  C9_15 
REMARK    9  A    between atoms: C9_15  and  C10_16 
REMARK   10  A    between atoms: C9_15  and  O17_54 
REMARK   11  A    between atoms: C10_16  and  C13_19 
REMARK   12  A    between atoms: C13_19  and  O4_20 
REMARK   13  A    between atoms: O4_20  and  P1_21 
REMARK   14  A    between atoms: P1_21  and  O6_23 
REMARK   15  A    between atoms: P1_21  and  O7_24 
REMARK   16  A    between atoms: O7_24  and  P2_25 
REMARK   17  A    between atoms: P2_25  and  O9_27 
REMARK   18  A    between atoms: P2_25  and  O10_28 
REMARK   19  A    between atoms: O10_28  and  C14_29 
REMARK   20  A    between atoms: C14_29  and  C15_30 
REMARK   21  A    between atoms: C16_31  and  O13_49 
REMARK   22  A    between atoms: C17_32  and  O12_48 
REMARK   23  A    between atoms: C18_33  and  N3_35 
REMARK   24  A    between atoms: C21_40  and  N7_47 
REMARK   25  A    between atoms: O13_49  and  P3_50 
REMARK   26  A    between atoms: P3_50  and  O15_52 
REMARK   27  A    between atoms: P3_50  and  O16_53 
ROOT
HETATM    1  C1  UNL     1      -7.665   7.335   7.048  1.00  0.00     0.104 C 
HETATM    2  C2  UNL     1      -8.265   8.583   7.622  1.00  0.00     0.182 C 
HETATM    3  O1  UNL     1      -7.644   9.359   8.344  1.00  0.00    -0.286 OA
ENDROOT
BRANCH   2   4
HETATM    4  S1  UNL     1      -9.956   8.830   7.209  1.00  0.00    -0.091 SA
BRANCH   4   5
HETATM    5  C3  UNL     1      -9.861   8.748   5.391  1.00  0.00     0.102 C 
BRANCH   5   6
HETATM    6  C4  UNL     1     -10.830   7.714   4.816  1.00  0.00     0.133 C 
BRANCH   6   7
HETATM    7  N1  UNL     1     -10.199   6.827   3.860  1.00  0.00    -0.360 N 
HETATM    8  C5  UNL     1      -9.900   7.236   2.581  1.00  0.00     0.219 C 
HETATM    9  O2  UNL     1     -10.218   8.338   2.149  1.00  0.00    -0.274 OA
HETATM   10  H8  UNL     1      -9.968   5.886   4.148  1.00  0.00     0.162 HD
BRANCH   8  11
HETATM   11  C6  UNL     1      -9.194   6.177   1.763  1.00  0.00     0.122 C 
BRANCH  11  12
HETATM   12  C7  UNL     1      -7.959   6.732   1.054  1.00  0.00     0.132 C 
BRANCH  12  13
HETATM   13  N2  UNL     1      -7.314   7.799   1.789  1.00  0.00    -0.358 N 
HETATM   14  C8  UNL     1      -5.979   8.086   1.573  1.00  0.00     0.247 C 
HETATM   15  O3  UNL     1      -5.270   7.390   0.857  1.00  0.00    -0.271 OA
HETATM   16  H13 UNL     1      -7.918   8.572   2.060  1.00  0.00     0.162 HD
BRANCH  14  17
HETATM   17  C9  UNL     1      -5.468   9.349   2.283  1.00  0.00     0.219 C 
BRANCH  17  18
HETATM   18  C10 UNL     1      -5.192   9.167   3.799  1.00  0.00     0.009 C 
HETATM   19  C11 UNL     1      -6.324   9.737   4.666  1.00  0.00     0.020 C 
HETATM   20  C12 UNL     1      -5.015   7.679   4.166  1.00  0.00     0.020 C 
BRANCH  18  21
HETATM   21  C13 UNL     1      -3.872   9.939   4.088  1.00  0.00     0.192 C 
BRANCH  21  22
HETATM   22  O4  UNL     1      -4.098  11.149   4.782  1.00  0.00    -0.296 OA
BRANCH  22  23
HETATM   23  P1  UNL     1      -3.733  12.585   4.169  1.00  0.00     0.401 P 
HETATM   24  O5  UNL     1      -2.592  13.270   4.852  1.00  0.00    -0.631 OA
BRANCH  23  25
HETATM   25  O6  UNL     1      -5.094  13.445   4.157  1.00  0.00    -0.307 OA
HETATM   26  H23 UNL     1      -4.926  14.390   4.269  1.00  0.00     0.222 HD
ENDBRANCH  23  25
BRANCH  23  27
HETATM   27  O7  UNL     1      -3.518  12.326   2.614  1.00  0.00    -0.195 OA
BRANCH  27  28
HETATM   28  P2  UNL     1      -3.897  13.478   1.581  1.00  0.00     0.401 P 
HETATM   29  O8  UNL     1      -3.518  14.874   1.955  1.00  0.00    -0.631 OA
BRANCH  28  30
HETATM   30  O9  UNL     1      -3.249  12.972   0.213  1.00  0.00    -0.307 OA
HETATM   31  H24 UNL     1      -2.316  13.268   0.074  1.00  0.00     0.222 HD
ENDBRANCH  28  30
BRANCH  28  32
HETATM   32  O10 UNL     1      -5.446  13.232   1.281  1.00  0.00    -0.294 OA
BRANCH  32  33
HETATM   33  C14 UNL     1      -6.290  14.321   1.010  1.00  0.00     0.215 C 
BRANCH  33  34
HETATM   34  C15 UNL     1      -7.673  13.731   0.738  1.00  0.00     0.180 C 
HETATM   35  C16 UNL     1      -8.168  12.987   1.972  1.00  0.00     0.197 C 
HETATM   36  C17 UNL     1      -8.319  11.548   1.518  1.00  0.00     0.199 C 
HETATM   37  C18 UNL     1      -8.536  11.705   0.011  1.00  0.00     0.262 C 
HETATM   38  O11 UNL     1      -7.682  12.810  -0.359  1.00  0.00    -0.353 OA
BRANCH  35  39
HETATM   39  O13 UNL     1      -9.412  13.560   2.363  1.00  0.00    -0.286 OA
BRANCH  39  40
HETATM   40  P3  UNL     1      -9.519  13.992   3.898  1.00  0.00     0.391 P 
HETATM   41  O14 UNL     1     -10.415  15.165   4.133  1.00  0.00    -0.632 OA
BRANCH  40  42
HETATM   42  O15 UNL     1      -7.972  14.154   4.272  1.00  0.00    -0.307 OA
HETATM   43  H36 UNL     1      -7.858  14.259   5.247  1.00  0.00     0.222 HD
ENDBRANCH  40  42
BRANCH  40  44
HETATM   44  O16 UNL     1      -9.915  12.614   4.586  1.00  0.00    -0.307 OA
HETATM   45  H37 UNL     1     -10.722  12.225   4.214  1.00  0.00     0.222 HD
ENDBRANCH  40  44
ENDBRANCH  39  40
ENDBRANCH  35  39
BRANCH  36  46
HETATM   46  O12 UNL     1      -9.350  10.897   2.265  1.00  0.00    -0.388 OA
HETATM   47  H35 UNL     1      -9.003  10.003   2.497  1.00  0.00     0.210 HD
ENDBRANCH  36  46
BRANCH  37  48
HETATM   48  N3  UNL     1      -8.130  10.532  -0.736  1.00  0.00    -0.297 N 
HETATM   49  C19 UNL     1      -8.943   9.541  -1.234  1.00  0.00     0.188 A 
HETATM   50  N4  UNL     1      -8.282   8.679  -1.975  1.00  0.00    -0.346 N 
HETATM   51  C20 UNL     1      -6.976   9.136  -1.961  1.00  0.00     0.116 A 
HETATM   52  H4  UNL     1      -8.649   7.857  -2.455  1.00  0.00     0.167 HD
HETATM   53  C21 UNL     1      -5.801   8.685  -2.588  1.00  0.00     0.109 A 
HETATM   54  C23 UNL     1      -6.860  10.261  -1.164  1.00  0.00     0.142 A 
HETATM   55  N5  UNL     1      -4.646   9.358  -2.362  1.00  0.00    -0.341 N 
HETATM   56  C22 UNL     1      -4.679  10.426  -1.541  1.00  0.00     0.183 A 
HETATM   57  H5  UNL     1      -3.775   9.063  -2.803  1.00  0.00     0.167 HD
HETATM   58  N6  UNL     1      -5.739  10.953  -0.895  1.00  0.00    -0.336 N 
HETATM   59  H6  UNL     1      -5.697  11.769  -0.284  1.00  0.00     0.168 HD
BRANCH  53  60
HETATM   60  N7  UNL     1      -5.759   7.579  -3.421  1.00  0.00    -0.287 NA
HETATM   61  H33 UNL     1      -5.287   6.771  -3.020  1.00  0.00     0.125 HD
HETATM   62  H34 UNL     1      -5.528   7.813  -4.377  1.00  0.00     0.125 HD
ENDBRANCH  53  60
ENDBRANCH  37  48
ENDBRANCH  33  34
ENDBRANCH  32  33
ENDBRANCH  28  32
ENDBRANCH  27  28
ENDBRANCH  23  27
ENDBRANCH  22  23
ENDBRANCH  21  22
ENDBRANCH  18  21
ENDBRANCH  17  18
BRANCH  17  63
HETATM   63  O17 UNL     1      -4.269   9.816   1.655  1.00  0.00    -0.385 OA
HETATM   64  H38 UNL     1      -3.932   9.107   1.082  1.00  0.00     0.210 HD
ENDBRANCH  17  63
ENDBRANCH  14  17
ENDBRANCH  12  13
ENDBRANCH  11  12
ENDBRANCH   8  11
ENDBRANCH   6   7
ENDBRANCH   5   6
ENDBRANCH   4   5
ENDBRANCH   2   4
TORSDOF 27
ENDMDL
MODEL 4
REMARK VINA RESULT:      -5.7      4.257      8.328
REMARK  27 active torsions:
REMARK  status: ('A' for Active; 'I' for Inactive)
REMARK    1  A    between atoms: C2_2  and  S1_4 
REMARK    2  A    between atoms: S1_4  and  C3_5 
REMARK    3  A    between atoms: C3_5  and  C4_6 
REMARK    4  A    between atoms: C4_6  and  N1_7 
REMARK       I    between atoms: N1_7  and  C5_8 
REMARK    5  A    between atoms: C5_8  and  C6_10 
REMARK    6  A    between atoms: C6_10  and  C7_11 
REMARK    7  A    between atoms: C7_11  and  N2_12 
REMARK       I    between atoms: N2_12  and  C8_13 
REMARK    8  A    between atoms: C8_13  and  C9_15 
REMARK    9  A    between atoms: C9_15  and  C10_16 
REMARK   10  A    between atoms: C9_15  and  O17_54 
REMARK   11  A    between atoms: C10_16  and  C13_19 
REMARK   12  A    between atoms: C13_19  and  O4_20 
REMARK   13  A    between atoms: O4_20  and  P1_21 
REMARK   14  A    between atoms: P1_21  and  O6_23 
REMARK   15  A    between atoms: P1_21  and  O7_24 
REMARK   16  A    between atoms: O7_24  and  P2_25 
REMARK   17  A    between atoms: P2_25  and  O9_27 
REMARK   18  A    between atoms: P2_25  and  O10_28 
REMARK   19  A    between atoms: O10_28  and  C14_29 
REMARK   20  A    between atoms: C14_29  and  C15_30 
REMARK   21  A    between atoms: C16_31  and  O13_49 
REMARK   22  A    between atoms: C17_32  and  O12_48 
REMARK   23  A    between atoms: C18_33  and  N3_35 
REMARK   24  A    between atoms: C21_40  and  N7_47 
REMARK   25  A    between atoms: O13_49  and  P3_50 
REMARK   26  A    between atoms: P3_50  and  O15_52 
REMARK   27  A    between atoms: P3_50  and  O16_53 
ROOT
HETATM    1  C1  UNL     1      -1.560  13.611  -1.468  1.00  0.00     0.104 C 
HETATM    2  C2  UNL     1      -2.751  12.815  -1.031  1.00  0.00     0.182 C 
HETATM    3  O1  UNL     1      -3.115  12.732   0.140  1.00  0.00    -0.286 OA
ENDROOT
BRANCH   2   4
HETATM    4  S1  UNL     1      -3.573  11.966  -2.333  1.00  0.00    -0.091 SA
BRANCH   4   5
HETATM    5  C3  UNL     1      -5.307  12.176  -1.813  1.00  0.00     0.102 C 
BRANCH   5   6
HETATM    6  C4  UNL     1      -6.104  10.877  -1.946  1.00  0.00     0.133 C 
BRANCH   6   7
HETATM    7  N1  UNL     1      -7.454  10.994  -1.435  1.00  0.00    -0.360 N 
HETATM    8  C5  UNL     1      -8.550  10.919  -2.263  1.00  0.00     0.219 C 
HETATM    9  O2  UNL     1      -8.453  10.831  -3.481  1.00  0.00    -0.274 OA
HETATM   10  H8  UNL     1      -7.588  11.126  -0.442  1.00  0.00     0.162 HD
BRANCH   8  11
HETATM   11  C6  UNL     1      -9.867  11.008  -1.522  1.00  0.00     0.122 C 
BRANCH  11  12
HETATM   12  C7  UNL     1     -10.052  12.368  -0.849  1.00  0.00     0.132 C 
BRANCH  12  13
HETATM   13  N2  UNL     1     -10.608  12.270   0.484  1.00  0.00    -0.358 N 
HETATM   14  C8  UNL     1     -11.978  12.272   0.670  1.00  0.00     0.247 C 
HETATM   15  O3  UNL     1     -12.760  12.473  -0.251  1.00  0.00    -0.271 OA
HETATM   16  H13 UNL     1     -10.048  11.747   1.155  1.00  0.00     0.162 HD
BRANCH  14  17
HETATM   17  C9  UNL     1     -12.434  11.985   2.108  1.00  0.00     0.219 C 
BRANCH  17  18
HETATM   18  C10 UNL     1     -13.189  13.156   2.789  1.00  0.00     0.009 C 
HETATM   19  C11 UNL     1     -12.447  14.492   2.633  1.00  0.00     0.020 C 
HETATM   20  C12 UNL     1     -14.607  13.330   2.207  1.00  0.00     0.020 C 
BRANCH  18  21
HETATM   21  C13 UNL     1     -13.283  12.784   4.297  1.00  0.00     0.192 C 
BRANCH  21  22
HETATM   22  O4  UNL     1     -12.118  12.135   4.765  1.00  0.00    -0.296 OA
BRANCH  22  23
HETATM   23  P1  UNL     1     -12.162  10.788   5.633  1.00  0.00     0.401 P 
HETATM   24  O5  UNL     1     -12.939   9.677   5.001  1.00  0.00    -0.631 OA
BRANCH  23  25
HETATM   25  O6  UNL     1     -12.688  11.196   7.099  1.00  0.00    -0.307 OA
HETATM   26  H23 UNL     1     -12.283  10.658   7.791  1.00  0.00     0.222 HD
ENDBRANCH  23  25
BRANCH  23  27
HETATM   27  O7  UNL     1     -10.638  10.445   5.936  1.00  0.00    -0.195 OA
BRANCH  27  28
HETATM   28  P2  UNL     1     -10.295   9.467   7.145  1.00  0.00     0.401 P 
HETATM   29  O8  UNL     1     -10.187  10.081   8.503  1.00  0.00    -0.631 OA
BRANCH  28  30
HETATM   30  O9  UNL     1     -11.414   8.334   7.030  1.00  0.00    -0.307 OA
HETATM   31  H24 UNL     1     -12.201   8.483   7.609  1.00  0.00     0.222 HD
ENDBRANCH  28  30
BRANCH  28  32
HETATM   32  O10 UNL     1      -9.010   8.664   6.640  1.00  0.00    -0.294 OA
BRANCH  32  33
HETATM   33  C14 UNL     1      -9.167   7.462   5.931  1.00  0.00     0.215 C 
BRANCH  33  34
HETATM   34  C15 UNL     1      -9.744   7.842   4.568  1.00  0.00     0.180 C 
HETATM   35  C16 UNL     1     -10.354   6.614   3.907  1.00  0.00     0.197 C 
HETATM   36  C17 UNL     1      -9.542   6.415   2.641  1.00  0.00     0.199 C 
HETATM   37  C18 UNL     1      -9.025   7.829   2.364  1.00  0.00     0.262 C 
HETATM   38  O11 UNL     1      -8.760   8.375   3.675  1.00  0.00    -0.353 OA
BRANCH  35  39
HETATM   39  O13 UNL     1     -11.721   6.897   3.628  1.00  0.00    -0.286 OA
BRANCH  39  40
HETATM   40  P3  UNL     1     -12.783   5.926   4.326  1.00  0.00     0.391 P 
HETATM   41  O14 UNL     1     -13.095   6.292   5.741  1.00  0.00    -0.632 OA
BRANCH  40  42
HETATM   42  O15 UNL     1     -12.104   4.502   4.061  1.00  0.00    -0.307 OA
HETATM   43  H36 UNL     1     -12.056   4.312   3.094  1.00  0.00     0.222 HD
ENDBRANCH  40  42
BRANCH  40  44
HETATM   44  O16 UNL     1     -13.977   5.958   3.276  1.00  0.00    -0.307 OA
HETATM   45  H37 UNL     1     -14.526   6.754   3.355  1.00  0.00     0.222 HD
ENDBRANCH  40  44
ENDBRANCH  39  40
ENDBRANCH  35  39
BRANCH  36  46
HETATM   46  O12 UNL     1     -10.342   5.798   1.629  1.00  0.00    -0.388 OA
HETATM   47  H35 UNL     1     -11.184   6.311   1.590  1.00  0.00     0.210 HD
ENDBRANCH  36  46
BRANCH  37  48
HETATM   48  N3  UNL     1      -7.794   7.832   1.599  1.00  0.00    -0.297 N 
HETATM   49  C19 UNL     1      -6.510   7.858   2.092  1.00  0.00     0.188 A 
HETATM   50  N4  UNL     1      -5.609   7.723   1.143  1.00  0.00    -0.346 N 
HETATM   51  C20 UNL     1      -6.345   7.599  -0.022  1.00  0.00     0.116 A 
HETATM   52  H4  UNL     1      -4.594   7.713   1.243  1.00  0.00     0.167 HD
HETATM   53  C21 UNL     1      -5.979   7.387  -1.362  1.00  0.00     0.109 A 
HETATM   54  C23 UNL     1      -7.699   7.704   0.242  1.00  0.00     0.142 A 
HETATM   55  N5  UNL     1      -6.957   7.319  -2.299  1.00  0.00    -0.341 N 
HETATM   56  C22 UNL     1      -8.236   7.463  -1.898  1.00  0.00     0.183 A 
HETATM   57  H5  UNL     1      -6.730   7.163  -3.281  1.00  0.00     0.167 HD
HETATM   58  N6  UNL     1      -8.705   7.659  -0.649  1.00  0.00    -0.336 N 
HETATM   59  H6  UNL     1      -9.692   7.761  -0.412  1.00  0.00     0.168 HD
BRANCH  53  60
HETATM   60  N7  UNL     1      -4.665   7.254  -1.782  1.00  0.00    -0.287 NA
HETATM   61  H33 UNL     1      -3.996   7.118  -1.027  1.00  0.00     0.125 HD
HETATM   62  H34 UNL     1      -4.411   7.917  -2.501  1.00  0.00     0.125 HD
ENDBRANCH  53  60
ENDBRANCH  37  48
ENDBRANCH  33  34
ENDBRANCH  32  33
ENDBRANCH  28  32
ENDBRANCH  27  28
ENDBRANCH  23  27
ENDBRANCH  22  23
ENDBRANCH  21  22
ENDBRANCH  18  21
ENDBRANCH  17  18
BRANCH  17  63
HETATM   63  O17 UNL     1     -13.273  10.825   2.137  1.00  0.00    -0.385 OA
HETATM   64  H38 UNL     1     -13.581  10.653   1.231  1.00  0.00     0.210 HD
ENDBRANCH  17  63
ENDBRANCH  14  17
ENDBRANCH  12  13
ENDBRANCH  11  12
ENDBRANCH   8  11
ENDBRANCH   6   7
ENDBRANCH   5   6
ENDBRANCH   4   5
ENDBRANCH   2   4
TORSDOF 27
ENDMDL
MODEL 5
REMARK VINA RESULT:      -5.7      4.616      8.305
REMARK  27 active torsions:
REMARK  status: ('A' for Active; 'I' for Inactive)
REMARK    1  A    between atoms: C2_2  and  S1_4 
REMARK    2  A    between atoms: S1_4  and  C3_5 
REMARK    3  A    between atoms: C3_5  and  C4_6 
REMARK    4  A    between atoms: C4_6  and  N1_7 
REMARK       I    between atoms: N1_7  and  C5_8 
REMARK    5  A    between atoms: C5_8  and  C6_10 
REMARK    6  A    between atoms: C6_10  and  C7_11 
REMARK    7  A    between atoms: C7_11  and  N2_12 
REMARK       I    between atoms: N2_12  and  C8_13 
REMARK    8  A    between atoms: C8_13  and  C9_15 
REMARK    9  A    between atoms: C9_15  and  C10_16 
REMARK   10  A    between atoms: C9_15  and  O17_54 
REMARK   11  A    between atoms: C10_16  and  C13_19 
REMARK   12  A    between atoms: C13_19  and  O4_20 
REMARK   13  A    between atoms: O4_20  and  P1_21 
REMARK   14  A    between atoms: P1_21  and  O6_23 
REMARK   15  A    between atoms: P1_21  and  O7_24 
REMARK   16  A    between atoms: O7_24  and  P2_25 
REMARK   17  A    between atoms: P2_25  and  O9_27 
REMARK   18  A    between atoms: P2_25  and  O10_28 
REMARK   19  A    between atoms: O10_28  and  C14_29 
REMARK   20  A    between atoms: C14_29  and  C15_30 
REMARK   21  A    between atoms: C16_31  and  O13_49 
REMARK   22  A    between atoms: C17_32  and  O12_48 
REMARK   23  A    between atoms: C18_33  and  N3_35 
REMARK   24  A    between atoms: C21_40  and  N7_47 
REMARK   25  A    between atoms: O13_49  and  P3_50 
REMARK   26  A    between atoms: P3_50  and  O15_52 
REMARK   27  A    between atoms: P3_50  and  O16_53 
ROOT
HETATM    1  C1  UNL     1      -1.641  13.405  -0.370  1.00  0.00     0.104 C 
HETATM    2  C2  UNL     1      -3.024  12.885  -0.125  1.00  0.00     0.182 C 
HETATM    3  O1  UNL     1      -3.377  12.380   0.938  1.00  0.00    -0.286 OA
ENDROOT
BRANCH   2   4
HETATM    4  S1  UNL     1      -4.104  13.019  -1.507  1.00  0.00    -0.091 SA
BRANCH   4   5
HETATM    5  C3  UNL     1      -5.710  12.757  -0.689  1.00  0.00     0.102 C 
BRANCH   5   6
HETATM    6  C4  UNL     1      -6.613  11.819  -1.493  1.00  0.00     0.133 C 
BRANCH   6   7
HETATM    7  N1  UNL     1      -7.773  11.381  -0.744  1.00  0.00    -0.360 N 
HETATM    8  C5  UNL     1      -8.970  11.102  -1.361  1.00  0.00     0.219 C 
HETATM    9  O2  UNL     1      -9.152  11.282  -2.560  1.00  0.00    -0.274 OA
HETATM   10  H8  UNL     1      -7.693  11.272   0.258  1.00  0.00     0.162 HD
BRANCH   8  11
HETATM   11  C6  UNL     1     -10.036  10.608  -0.407  1.00  0.00     0.122 C 
BRANCH  11  12
HETATM   12  C7  UNL     1     -10.314  11.614   0.709  1.00  0.00     0.132 C 
BRANCH  12  13
HETATM   13  N2  UNL     1     -10.296  11.017   2.028  1.00  0.00    -0.358 N 
HETATM   14  C8  UNL     1     -11.481  10.760   2.693  1.00  0.00     0.247 C 
HETATM   15  O3  UNL     1     -12.565  11.126   2.257  1.00  0.00    -0.271 OA
HETATM   16  H13 UNL     1      -9.512  10.396   2.218  1.00  0.00     0.162 HD
BRANCH  14  17
HETATM   17  C9  UNL     1     -11.328   9.967   3.999  1.00  0.00     0.219 C 
BRANCH  17  18
HETATM   18  C10 UNL     1     -11.749  10.742   5.275  1.00  0.00     0.009 C 
HETATM   19  C11 UNL     1     -11.334  12.220   5.217  1.00  0.00     0.020 C 
HETATM   20  C12 UNL     1     -13.275  10.685   5.493  1.00  0.00     0.020 C 
BRANCH  18  21
HETATM   21  C13 UNL     1     -11.024  10.042   6.459  1.00  0.00     0.192 C 
BRANCH  21  22
HETATM   22  O4  UNL     1      -9.922   9.267   6.033  1.00  0.00    -0.296 OA
BRANCH  22  23
HETATM   23  P1  UNL     1      -9.746   7.719   6.414  1.00  0.00     0.401 P 
HETATM   24  O5  UNL     1     -10.475   6.779   5.506  1.00  0.00    -0.631 OA
BRANCH  23  25
HETATM   25  O6  UNL     1     -10.154   7.572   7.964  1.00  0.00    -0.307 OA
HETATM   26  H23 UNL     1     -10.995   8.005   8.159  1.00  0.00     0.222 HD
ENDBRANCH  23  25
BRANCH  23  27
HETATM   27  O7  UNL     1      -8.173   7.489   6.485  1.00  0.00    -0.195 OA
BRANCH  27  28
HETATM   28  P2  UNL     1      -7.374   8.020   7.757  1.00  0.00     0.401 P 
HETATM   29  O8  UNL     1      -7.772   9.354   8.298  1.00  0.00    -0.631 OA
BRANCH  28  30
HETATM   30  O9  UNL     1      -7.517   6.824   8.804  1.00  0.00    -0.307 OA
HETATM   31  H24 UNL     1      -7.393   5.925   8.411  1.00  0.00     0.222 HD
ENDBRANCH  28  30
BRANCH  28  32
HETATM   32  O10 UNL     1      -5.840   7.865   7.341  1.00  0.00    -0.294 OA
BRANCH  32  33
HETATM   33  C14 UNL     1      -5.474   7.886   5.986  1.00  0.00     0.215 C 
BRANCH  33  34
HETATM   34  C15 UNL     1      -5.406   9.358   5.585  1.00  0.00     0.180 C 
HETATM   35  C16 UNL     1      -4.704   9.494   4.241  1.00  0.00     0.197 C 
HETATM   36  C17 UNL     1      -3.465  10.319   4.535  1.00  0.00     0.199 C 
HETATM   37  C18 UNL     1      -3.886  11.098   5.784  1.00  0.00     0.262 C 
HETATM   38  O11 UNL     1      -4.694  10.163   6.532  1.00  0.00    -0.353 OA
BRANCH  35  39
HETATM   39  O13 UNL     1      -5.590  10.158   3.345  1.00  0.00    -0.286 OA
BRANCH  39  40
HETATM   40  P3  UNL     1      -5.912   9.375   1.989  1.00  0.00     0.391 P 
HETATM   41  O14 UNL     1      -7.306   9.581   1.491  1.00  0.00    -0.632 OA
BRANCH  40  42
HETATM   42  O15 UNL     1      -5.481   7.888   2.392  1.00  0.00    -0.307 OA
HETATM   43  H36 UNL     1      -6.276   7.315   2.512  1.00  0.00     0.222 HD
ENDBRANCH  40  42
BRANCH  40  44
HETATM   44  O16 UNL     1      -4.718   9.857   1.056  1.00  0.00    -0.307 OA
HETATM   45  H37 UNL     1      -4.676  10.823   0.967  1.00  0.00     0.222 HD
ENDBRANCH  40  44
ENDBRANCH  39  40
ENDBRANCH  35  39
BRANCH  36  46
HETATM   46  O12 UNL     1      -3.090  11.079   3.383  1.00  0.00    -0.388 OA
HETATM   47  H35 UNL     1      -3.593  11.926   3.433  1.00  0.00     0.210 HD
ENDBRANCH  36  46
BRANCH  37  48
HETATM   48  N3  UNL     1      -2.756  11.495   6.600  1.00  0.00    -0.297 N 
HETATM   49  C19 UNL     1      -1.422  11.366   6.291  1.00  0.00     0.188 A 
HETATM   50  N4  UNL     1      -0.645  11.937   7.185  1.00  0.00    -0.346 N 
HETATM   51  C20 UNL     1      -1.519  12.468   8.118  1.00  0.00     0.116 A 
HETATM   52  H4  UNL     1       0.374  11.981   7.190  1.00  0.00     0.167 HD
HETATM   53  C21 UNL     1      -1.322  13.229   9.283  1.00  0.00     0.109 A 
HETATM   54  C23 UNL     1      -2.828  12.167   7.788  1.00  0.00     0.142 A 
HETATM   55  N5  UNL     1      -2.406  13.598  10.008  1.00  0.00    -0.341 N 
HETATM   56  C22 UNL     1      -3.624  13.212   9.577  1.00  0.00     0.183 A 
HETATM   57  H5  UNL     1      -2.303  14.154  10.857  1.00  0.00     0.167 HD
HETATM   58  N6  UNL     1      -3.935  12.494   8.479  1.00  0.00    -0.336 N 
HETATM   59  H6  UNL     1      -4.883  12.233   8.207  1.00  0.00     0.168 HD
BRANCH  53  60
HETATM   60  N7  UNL     1      -0.072  13.616   9.738  1.00  0.00    -0.287 NA
HETATM   61  H33 UNL     1       0.213  14.547   9.441  1.00  0.00     0.125 HD
HETATM   62  H34 UNL     1       0.620  12.882   9.663  1.00  0.00     0.125 HD
ENDBRANCH  53  60
ENDBRANCH  37  48
ENDBRANCH  33  34
ENDBRANCH  32  33
ENDBRANCH  28  32
ENDBRANCH  27  28
ENDBRANCH  23  27
ENDBRANCH  22  23
ENDBRANCH  21  22
ENDBRANCH  18  21
ENDBRANCH  17  18
BRANCH  17  63
HETATM   63  O17 UNL     1     -12.088   8.755   3.932  1.00  0.00    -0.385 OA
HETATM   64  H38 UNL     1     -12.830   8.898   3.322  1.00  0.00     0.210 HD
ENDBRANCH  17  63
ENDBRANCH  14  17
ENDBRANCH  12  13
ENDBRANCH  11  12
ENDBRANCH   8  11
ENDBRANCH   6   7
ENDBRANCH   5   6
ENDBRANCH   4   5
ENDBRANCH   2   4
TORSDOF 27
ENDMDL
MODEL 6
REMARK VINA RESULT:      -5.6     17.887     21.942
REMARK  27 active torsions:
REMARK  status: ('A' for Active; 'I' for Inactive)
REMARK    1  A    between atoms: C2_2  and  S1_4 
REMARK    2  A    between atoms: S1_4  and  C3_5 
REMARK    3  A    between atoms: C3_5  and  C4_6 
REMARK    4  A    between atoms: C4_6  and  N1_7 
REMARK       I    between atoms: N1_7  and  C5_8 
REMARK    5  A    between atoms: C5_8  and  C6_10 
REMARK    6  A    between atoms: C6_10  and  C7_11 
REMARK    7  A    between atoms: C7_11  and  N2_12 
REMARK       I    between atoms: N2_12  and  C8_13 
REMARK    8  A    between atoms: C8_13  and  C9_15 
REMARK    9  A    between atoms: C9_15  and  C10_16 
REMARK   10  A    between atoms: C9_15  and  O17_54 
REMARK   11  A    between atoms: C10_16  and  C13_19 
REMARK   12  A    between atoms: C13_19  and  O4_20 
REMARK   13  A    between atoms: O4_20  and  P1_21 
REMARK   14  A    between atoms: P1_21  and  O6_23 
REMARK   15  A    between atoms: P1_21  and  O7_24 
REMARK   16  A    between atoms: O7_24  and  P2_25 
REMARK   17  A    between atoms: P2_25  and  O9_27 
REMARK   18  A    between atoms: P2_25  and  O10_28 
REMARK   19  A    between atoms: O10_28  and  C14_29 
REMARK   20  A    between atoms: C14_29  and  C15_30 
REMARK   21  A    between atoms: C16_31  and  O13_49 
REMARK   22  A    between atoms: C17_32  and  O12_48 
REMARK   23  A    between atoms: C18_33  and  N3_35 
REMARK   24  A    between atoms: C21_40  and  N7_47 
REMARK   25  A    between atoms: O13_49  and  P3_50 
REMARK   26  A    between atoms: P3_50  and  O15_52 
REMARK   27  A    between atoms: P3_50  and  O16_53 
ROOT
HETATM    1  C1  UNL     1       9.078  -9.967  12.695  1.00  0.00     0.104 C 
HETATM    2  C2  UNL     1       8.110 -10.947  13.285  1.00  0.00     0.182 C 
HETATM    3  O1  UNL     1       8.448 -12.036  13.743  1.00  0.00    -0.286 OA
ENDROOT
BRANCH   2   4
HETATM    4  S1  UNL     1       6.431 -10.428  13.233  1.00  0.00    -0.091 SA
BRANCH   4   5
HETATM    5  C3  UNL     1       6.269 -10.033  11.462  1.00  0.00     0.102 C 
BRANCH   5   6
HETATM    6  C4  UNL     1       4.853 -10.299  10.946  1.00  0.00     0.133 C 
BRANCH   6   7
HETATM    7  N1  UNL     1       4.154  -9.085  10.578  1.00  0.00    -0.360 N 
HETATM    8  C5  UNL     1       3.195  -9.072   9.593  1.00  0.00     0.219 C 
HETATM    9  O2  UNL     1       2.931 -10.059   8.915  1.00  0.00    -0.274 OA
HETATM   10  H8  UNL     1       4.377  -8.228  11.067  1.00  0.00     0.162 HD
BRANCH   8  11
HETATM   11  C6  UNL     1       2.548  -7.717   9.403  1.00  0.00     0.122 C 
BRANCH  11  12
HETATM   12  C7  UNL     1       2.363  -7.375   7.925  1.00  0.00     0.132 C 
BRANCH  12  13
HETATM   13  N2  UNL     1       1.388  -8.217   7.266  1.00  0.00    -0.358 N 
HETATM   14  C8  UNL     1       0.061  -7.833   7.207  1.00  0.00     0.247 C 
HETATM   15  O3  UNL     1      -0.359  -6.847   7.800  1.00  0.00    -0.271 OA
HETATM   16  H13 UNL     1       1.744  -8.779   6.495  1.00  0.00     0.162 HD
BRANCH  14  17
HETATM   17  C9  UNL     1      -0.830  -8.724   6.329  1.00  0.00     0.219 C 
BRANCH  17  18
HETATM   18  C10 UNL     1      -1.428  -8.012   5.087  1.00  0.00     0.009 C 
HETATM   19  C11 UNL     1      -1.549  -8.956   3.882  1.00  0.00     0.020 C 
HETATM   20  C12 UNL     1      -2.828  -7.439   5.384  1.00  0.00     0.020 C 
BRANCH  18  21
HETATM   21  C13 UNL     1      -0.448  -6.853   4.747  1.00  0.00     0.192 C 
BRANCH  21  22
HETATM   22  O4  UNL     1      -0.970  -5.975   3.770  1.00  0.00    -0.296 OA
BRANCH  22  23
HETATM   23  P1  UNL     1      -0.332  -4.537   3.462  1.00  0.00     0.401 P 
HETATM   24  O5  UNL     1      -1.098  -3.390   4.043  1.00  0.00    -0.631 OA
BRANCH  23  25
HETATM   25  O6  UNL     1      -0.138  -4.447   1.866  1.00  0.00    -0.307 OA
HETATM   26  H23 UNL     1       0.487  -3.754   1.617  1.00  0.00     0.222 HD
ENDBRANCH  23  25
BRANCH  23  27
HETATM   27  O7  UNL     1       1.178  -4.644   3.952  1.00  0.00    -0.195 OA
BRANCH  27  28
HETATM   28  P2  UNL     1       2.340  -4.161   2.975  1.00  0.00     0.401 P 
HETATM   29  O8  UNL     1       2.159  -2.836   2.310  1.00  0.00    -0.631 OA
BRANCH  28  30
HETATM   30  O9  UNL     1       3.648  -4.260   3.884  1.00  0.00    -0.307 OA
HETATM   31  H24 UNL     1       3.645  -3.652   4.664  1.00  0.00     0.222 HD
ENDBRANCH  28  30
BRANCH  28  32
HETATM   32  O10 UNL     1       2.566  -5.406   1.999  1.00  0.00    -0.294 OA
BRANCH  32  33
HETATM   33  C14 UNL     1       3.869  -5.815   1.673  1.00  0.00     0.215 C 
BRANCH  33  34
HETATM   34  C15 UNL     1       3.904  -7.328   1.878  1.00  0.00     0.180 C 
HETATM   35  C16 UNL     1       2.508  -7.837   2.211  1.00  0.00     0.197 C 
HETATM   36  C17 UNL     1       2.635  -8.425   3.604  1.00  0.00     0.199 C 
HETATM   37  C18 UNL     1       4.120  -8.790   3.666  1.00  0.00     0.262 C 
HETATM   38  O11 UNL     1       4.779  -7.728   2.940  1.00  0.00    -0.353 OA
BRANCH  35  39
HETATM   39  O13 UNL     1       2.153  -8.819   1.244  1.00  0.00    -0.286 OA
BRANCH  39  40
HETATM   40  P3  UNL     1       0.879  -8.470   0.343  1.00  0.00     0.391 P 
HETATM   41  O14 UNL     1      -0.086  -9.602   0.201  1.00  0.00    -0.632 OA
BRANCH  40  42
HETATM   42  O15 UNL     1       1.590  -7.932  -0.985  1.00  0.00    -0.307 OA
HETATM   43  H36 UNL     1       2.328  -8.530  -1.253  1.00  0.00     0.222 HD
ENDBRANCH  40  42
BRANCH  40  44
HETATM   44  O16 UNL     1       0.356  -7.139   1.038  1.00  0.00    -0.307 OA
HETATM   45  H37 UNL     1       0.933  -6.376   0.872  1.00  0.00     0.222 HD
ENDBRANCH  40  44
ENDBRANCH  39  40
ENDBRANCH  35  39
BRANCH  36  46
HETATM   46  O12 UNL     1       1.691  -9.484   3.782  1.00  0.00    -0.388 OA
HETATM   47  H35 UNL     1       1.451  -9.798   2.878  1.00  0.00     0.210 HD
ENDBRANCH  36  46
BRANCH  37  48
HETATM   48  N3  UNL     1       4.631  -8.814   5.021  1.00  0.00    -0.297 N 
HETATM   49  C19 UNL     1       4.891  -9.924   5.792  1.00  0.00     0.188 A 
HETATM   50  N4  UNL     1       5.468  -9.615   6.933  1.00  0.00    -0.346 N 
HETATM   51  C20 UNL     1       5.593  -8.237   6.898  1.00  0.00     0.116 A 
HETATM   52  H4  UNL     1       5.759 -10.248   7.677  1.00  0.00     0.167 HD
HETATM   53  C21 UNL     1       6.160  -7.309   7.789  1.00  0.00     0.109 A 
HETATM   54  C23 UNL     1       5.043  -7.725   5.737  1.00  0.00     0.142 A 
HETATM   55  N5  UNL     1       6.117  -5.992   7.469  1.00  0.00    -0.341 N 
HETATM   56  C22 UNL     1       5.526  -5.636   6.311  1.00  0.00     0.183 A 
HETATM   57  H5  UNL     1       6.521  -5.290   8.088  1.00  0.00     0.167 HD
HETATM   58  N6  UNL     1       4.960  -6.431   5.380  1.00  0.00    -0.336 N 
HETATM   59  H6  UNL     1       4.527  -6.096   4.520  1.00  0.00     0.168 HD
BRANCH  53  60
HETATM   60  N7  UNL     1       6.756  -7.669   8.987  1.00  0.00    -0.287 NA
HETATM   61  H33 UNL     1       6.200  -7.454   9.812  1.00  0.00     0.125 HD
HETATM   62  H34 UNL     1       7.739  -7.433   9.026  1.00  0.00     0.125 HD
ENDBRANCH  53  60
ENDBRANCH  37  48
ENDBRANCH  33  34
ENDBRANCH  32  33
ENDBRANCH  28  32
ENDBRANCH  27  28
ENDBRANCH  23  27
ENDBRANCH  22  23
ENDBRANCH  21  22
ENDBRANCH  18  21
ENDBRANCH  17  18
BRANCH  17  63
HETATM   63  O17 UNL     1      -0.096  -9.871   5.886  1.00  0.00    -0.385 OA
HETATM   64  H38 UNL     1      -0.055 -10.505   6.621  1.00  0.00     0.210 HD
ENDBRANCH  17  63
ENDBRANCH  14  17
ENDBRANCH  12  13
ENDBRANCH  11  12
ENDBRANCH   8  11
ENDBRANCH   6   7
ENDBRANCH   5   6
ENDBRANCH   4   5
ENDBRANCH   2   4
TORSDOF 27
ENDMDL
MODEL 7
REMARK VINA RESULT:      -5.6      5.052      8.708
REMARK  27 active torsions:
REMARK  status: ('A' for Active; 'I' for Inactive)
REMARK    1  A    between atoms: C2_2  and  S1_4 
REMARK    2  A    between atoms: S1_4  and  C3_5 
REMARK    3  A    between atoms: C3_5  and  C4_6 
REMARK    4  A    between atoms: C4_6  and  N1_7 
REMARK       I    between atoms: N1_7  and  C5_8 
REMARK    5  A    between atoms: C5_8  and  C6_10 
REMARK    6  A    between atoms: C6_10  and  C7_11 
REMARK    7  A    between atoms: C7_11  and  N2_12 
REMARK       I    between atoms: N2_12  and  C8_13 
REMARK    8  A    between atoms: C8_13  and  C9_15 
REMARK    9  A    between atoms: C9_15  and  C10_16 
REMARK   10  A    between atoms: C9_15  and  O17_54 
REMARK   11  A    between atoms: C10_16  and  C13_19 
REMARK   12  A    between atoms: C13_19  and  O4_20 
REMARK   13  A    between atoms: O4_20  and  P1_21 
REMARK   14  A    between atoms: P1_21  and  O6_23 
REMARK   15  A    between atoms: P1_21  and  O7_24 
REMARK   16  A    between atoms: O7_24  and  P2_25 
REMARK   17  A    between atoms: P2_25  and  O9_27 
REMARK   18  A    between atoms: P2_25  and  O10_28 
REMARK   19  A    between atoms: O10_28  and  C14_29 
REMARK   20  A    between atoms: C14_29  and  C15_30 
REMARK   21  A    between atoms: C16_31  and  O13_49 
REMARK   22  A    between atoms: C17_32  and  O12_48 
REMARK   23  A    between atoms: C18_33  and  N3_35 
REMARK   24  A    between atoms: C21_40  and  N7_47 
REMARK   25  A    between atoms: O13_49  and  P3_50 
REMARK   26  A    between atoms: P3_50  and  O15_52 
REMARK   27  A    between atoms: P3_50  and  O16_53 
ROOT
HETATM    1  C1  UNL     1      -2.642  12.974  -1.150  1.00  0.00     0.104 C 
HETATM    2  C2  UNL     1      -3.640  12.030  -0.553  1.00  0.00     0.182 C 
HETATM    3  O1  UNL     1      -3.958  12.046   0.634  1.00  0.00    -0.286 OA
ENDROOT
BRANCH   2   4
HETATM    4  S1  UNL     1      -4.299  10.858  -1.687  1.00  0.00    -0.091 SA
BRANCH   4   5
HETATM    5  C3  UNL     1      -6.060  10.916  -1.226  1.00  0.00     0.102 C 
BRANCH   5   6
HETATM    6  C4  UNL     1      -6.751   9.568  -1.444  1.00  0.00     0.133 C 
BRANCH   6   7
HETATM    7  N1  UNL     1      -7.796   9.312  -0.475  1.00  0.00    -0.360 N 
HETATM    8  C5  UNL     1      -7.989   8.062   0.068  1.00  0.00     0.219 C 
HETATM    9  O2  UNL     1      -7.350   7.081  -0.292  1.00  0.00    -0.274 OA
HETATM   10  H8  UNL     1      -8.391  10.077  -0.187  1.00  0.00     0.162 HD
BRANCH   8  11
HETATM   11  C6  UNL     1      -9.095   8.022   1.100  1.00  0.00     0.122 C 
BRANCH  11  12
HETATM   12  C7  UNL     1      -9.450   9.418   1.612  1.00  0.00     0.132 C 
BRANCH  12  13
HETATM   13  N2  UNL     1     -10.176   9.396   2.864  1.00  0.00    -0.358 N 
HETATM   14  C8  UNL     1     -11.375  10.074   2.986  1.00  0.00     0.247 C 
HETATM   15  O3  UNL     1     -11.805  10.802   2.101  1.00  0.00    -0.271 OA
HETATM   16  H13 UNL     1     -10.057   8.555   3.424  1.00  0.00     0.162 HD
BRANCH  14  17
HETATM   17  C9  UNL     1     -12.125   9.823   4.303  1.00  0.00     0.219 C 
BRANCH  17  18
HETATM   18  C10 UNL     1     -11.856  10.879   5.407  1.00  0.00     0.009 C 
HETATM   19  C11 UNL     1     -11.047  12.074   4.880  1.00  0.00     0.020 C 
HETATM   20  C12 UNL     1     -13.171  11.422   6.002  1.00  0.00     0.020 C 
BRANCH  18  21
HETATM   21  C13 UNL     1     -11.044  10.145   6.512  1.00  0.00     0.192 C 
BRANCH  21  22
HETATM   22  O4  UNL     1      -9.841   9.592   6.018  1.00  0.00    -0.296 OA
BRANCH  22  23
HETATM   23  P1  UNL     1      -9.442   8.052   6.222  1.00  0.00     0.401 P 
HETATM   24  O5  UNL     1     -10.006   7.131   5.187  1.00  0.00    -0.631 OA
BRANCH  23  25
HETATM   25  O6  UNL     1      -9.849   7.662   7.730  1.00  0.00    -0.307 OA
HETATM   26  H23 UNL     1     -10.683   7.176   7.765  1.00  0.00     0.222 HD
ENDBRANCH  23  25
BRANCH  23  27
HETATM   27  O7  UNL     1      -7.854   8.049   6.320  1.00  0.00    -0.195 OA
BRANCH  27  28
HETATM   28  P2  UNL     1      -7.168   8.387   7.718  1.00  0.00     0.401 P 
HETATM   29  O8  UNL     1      -7.670   9.591   8.445  1.00  0.00    -0.631 OA
BRANCH  28  30
HETATM   30  O9  UNL     1      -7.315   7.024   8.537  1.00  0.00    -0.307 OA
HETATM   31  H24 UNL     1      -7.746   7.128   9.420  1.00  0.00     0.222 HD
ENDBRANCH  28  30
BRANCH  28  32
HETATM   32  O10 UNL     1      -5.604   8.368   7.395  1.00  0.00    -0.294 OA
BRANCH  32  33
HETATM   33  C14 UNL     1      -5.153   8.622   6.090  1.00  0.00     0.215 C 
BRANCH  33  34
HETATM   34  C15 UNL     1      -4.694  10.079   6.074  1.00  0.00     0.180 C 
HETATM   35  C16 UNL     1      -4.766  10.626   4.655  1.00  0.00     0.197 C 
HETATM   36  C17 UNL     1      -3.333  10.981   4.306  1.00  0.00     0.199 C 
HETATM   37  C18 UNL     1      -2.716  11.226   5.685  1.00  0.00     0.262 C 
HETATM   38  O11 UNL     1      -3.349  10.246   6.537  1.00  0.00    -0.353 OA
BRANCH  35  39
HETATM   39  O13 UNL     1      -5.614  11.770   4.665  1.00  0.00    -0.286 OA
BRANCH  39  40
HETATM   40  P3  UNL     1      -6.881  11.698   3.692  1.00  0.00     0.391 P 
HETATM   41  O14 UNL     1      -7.645  12.979   3.603  1.00  0.00    -0.632 OA
BRANCH  40  42
HETATM   42  O15 UNL     1      -7.641  10.421   4.285  1.00  0.00    -0.307 OA
HETATM   43  H36 UNL     1      -7.217   9.586   3.972  1.00  0.00     0.222 HD
ENDBRANCH  40  42
BRANCH  40  44
HETATM   44  O16 UNL     1      -6.221  11.139   2.358  1.00  0.00    -0.307 OA
HETATM   45  H37 UNL     1      -5.538  10.470   2.526  1.00  0.00     0.222 HD
ENDBRANCH  40  44
ENDBRANCH  39  40
ENDBRANCH  35  39
BRANCH  36  46
HETATM   46  O12 UNL     1      -3.303  12.063   3.371  1.00  0.00    -0.388 OA
HETATM   47  H35 UNL     1      -4.116  11.976   2.819  1.00  0.00     0.210 HD
ENDBRANCH  36  46
BRANCH  37  48
HETATM   48  N3  UNL     1      -1.284  11.002   5.701  1.00  0.00    -0.297 N 
HETATM   49  C19 UNL     1      -0.460  10.814   4.617  1.00  0.00     0.188 A 
HETATM   50  N4  UNL     1       0.810  10.765   4.957  1.00  0.00    -0.346 N 
HETATM   51  C20 UNL     1       0.809  10.935   6.331  1.00  0.00     0.116 A 
HETATM   52  H4  UNL     1       1.615  10.631   4.346  1.00  0.00     0.167 HD
HETATM   53  C21 UNL     1       1.841  11.021   7.281  1.00  0.00     0.109 A 
HETATM   54  C23 UNL     1      -0.484  11.044   6.809  1.00  0.00     0.142 A 
HETATM   55  N5  UNL     1       1.511  11.183   8.585  1.00  0.00    -0.341 N 
HETATM   56  C22 UNL     1       0.204  11.250   8.909  1.00  0.00     0.183 A 
HETATM   57  H5  UNL     1       2.232  11.253   9.303  1.00  0.00     0.167 HD
HETATM   58  N6  UNL     1      -0.866  11.190   8.090  1.00  0.00    -0.336 N 
HETATM   59  H6  UNL     1      -1.836  11.246   8.401  1.00  0.00     0.168 HD
BRANCH  53  60
HETATM   60  N7  UNL     1       3.186  10.938   6.955  1.00  0.00    -0.287 NA
HETATM   61  H33 UNL     1       3.815  11.021   7.750  1.00  0.00     0.125 HD
HETATM   62  H34 UNL     1       3.425  11.468   6.128  1.00  0.00     0.125 HD
ENDBRANCH  53  60
ENDBRANCH  37  48
ENDBRANCH  33  34
ENDBRANCH  32  33
ENDBRANCH  28  32
ENDBRANCH  27  28
ENDBRANCH  23  27
ENDBRANCH  22  23
ENDBRANCH  21  22
ENDBRANCH  18  21
ENDBRANCH  17  18
BRANCH  17  63
HETATM   63  O17 UNL     1     -13.535   9.765   4.063  1.00  0.00    -0.385 OA
HETATM   64  H38 UNL     1     -13.722   8.955   3.559  1.00  0.00     0.210 HD
ENDBRANCH  17  63
ENDBRANCH  14  17
ENDBRANCH  12  13
ENDBRANCH  11  12
ENDBRANCH   8  11
ENDBRANCH   6   7
ENDBRANCH   5   6
ENDBRANCH   4   5
ENDBRANCH   2   4
TORSDOF 27
ENDMDL
MODEL 8
REMARK VINA RESULT:      -5.3     17.385     21.041
REMARK  27 active torsions:
REMARK  status: ('A' for Active; 'I' for Inactive)
REMARK    1  A    between atoms: C2_2  and  S1_4 
REMARK    2  A    between atoms: S1_4  and  C3_5 
REMARK    3  A    between atoms: C3_5  and  C4_6 
REMARK    4  A    between atoms: C4_6  and  N1_7 
REMARK       I    between atoms: N1_7  and  C5_8 
REMARK    5  A    between atoms: C5_8  and  C6_10 
REMARK    6  A    between atoms: C6_10  and  C7_11 
REMARK    7  A    between atoms: C7_11  and  N2_12 
REMARK       I    between atoms: N2_12  and  C8_13 
REMARK    8  A    between atoms: C8_13  and  C9_15 
REMARK    9  A    between atoms: C9_15  and  C10_16 
REMARK   10  A    between atoms: C9_15  and  O17_54 
REMARK   11  A    between atoms: C10_16  and  C13_19 
REMARK   12  A    between atoms: C13_19  and  O4_20 
REMARK   13  A    between atoms: O4_20  and  P1_21 
REMARK   14  A    between atoms: P1_21  and  O6_23 
REMARK   15  A    between atoms: P1_21  and  O7_24 
REMARK   16  A    between atoms: O7_24  and  P2_25 
REMARK   17  A    between atoms: P2_25  and  O9_27 
REMARK   18  A    between atoms: P2_25  and  O10_28 
REMARK   19  A    between atoms: O10_28  and  C14_29 
REMARK   20  A    between atoms: C14_29  and  C15_30 
REMARK   21  A    between atoms: C16_31  and  O13_49 
REMARK   22  A    between atoms: C17_32  and  O12_48 
REMARK   23  A    between atoms: C18_33  and  N3_35 
REMARK   24  A    between atoms: C21_40  and  N7_47 
REMARK   25  A    between atoms: O13_49  and  P3_50 
REMARK   26  A    between atoms: P3_50  and  O15_52 
REMARK   27  A    between atoms: P3_50  and  O16_53 
ROOT
HETATM    1  C1  UNL     1      11.581   2.855   8.126  1.00  0.00     0.104 C 
HETATM    2  C2  UNL     1      10.296   2.653   7.382  1.00  0.00     0.182 C 
HETATM    3  O1  UNL     1       9.469   3.546   7.209  1.00  0.00    -0.286 OA
ENDROOT
BRANCH   2   4
HETATM    4  S1  UNL     1      10.043   1.012   6.803  1.00  0.00    -0.091 SA
BRANCH   4   5
HETATM    5  C3  UNL     1       8.977   0.362   8.130  1.00  0.00     0.102 C 
BRANCH   5   6
HETATM    6  C4  UNL     1       8.202  -0.879   7.682  1.00  0.00     0.133 C 
BRANCH   6   7
HETATM    7  N1  UNL     1       6.880  -0.955   8.269  1.00  0.00    -0.360 N 
HETATM    8  C5  UNL     1       6.584  -1.847   9.273  1.00  0.00     0.219 C 
HETATM    9  O2  UNL     1       7.388  -2.680   9.674  1.00  0.00    -0.274 OA
HETATM   10  H8  UNL     1       6.162  -0.328   7.932  1.00  0.00     0.162 HD
BRANCH   8  11
HETATM   11  C6  UNL     1       5.164  -1.725   9.783  1.00  0.00     0.122 C 
BRANCH  11  12
HETATM   12  C7  UNL     1       5.102  -1.751  11.310  1.00  0.00     0.132 C 
BRANCH  12  13
HETATM   13  N2  UNL     1       6.162  -0.987  11.934  1.00  0.00    -0.358 N 
HETATM   14  C8  UNL     1       6.185  -0.820  13.307  1.00  0.00     0.247 C 
HETATM   15  O3  UNL     1       5.269  -1.200  14.025  1.00  0.00    -0.271 OA
HETATM   16  H13 UNL     1       7.058  -1.006  11.453  1.00  0.00     0.162 HD
BRANCH  14  17
HETATM   17  C9  UNL     1       7.452  -0.144  13.852  1.00  0.00     0.219 C 
BRANCH  17  18
HETATM   18  C10 UNL     1       8.461  -1.115  14.521  1.00  0.00     0.009 C 
HETATM   19  C11 UNL     1       8.071  -1.448  15.968  1.00  0.00     0.020 C 
HETATM   20  C12 UNL     1       8.571  -2.441  13.741  1.00  0.00     0.020 C 
BRANCH  18  21
HETATM   21  C13 UNL     1       9.833  -0.381  14.505  1.00  0.00     0.192 C 
BRANCH  21  22
HETATM   22  O4  UNL     1       9.821   0.799  15.282  1.00  0.00    -0.296 OA
BRANCH  22  23
HETATM   23  P1  UNL     1      11.120   1.715  15.494  1.00  0.00     0.401 P 
HETATM   24  O5  UNL     1      11.968   1.313  16.659  1.00  0.00    -0.631 OA
BRANCH  23  25
HETATM   25  O6  UNL     1      10.609   3.240  15.558  1.00  0.00    -0.307 OA
HETATM   26  H23 UNL     1      10.960   3.708  16.326  1.00  0.00     0.222 HD
ENDBRANCH  23  25
BRANCH  23  27
HETATM   27  O7  UNL     1      11.868   1.698  14.090  1.00  0.00    -0.195 OA
BRANCH  27  28
HETATM   28  P2  UNL     1      12.659   3.000  13.624  1.00  0.00     0.401 P 
HETATM   29  O8  UNL     1      13.377   3.772  14.682  1.00  0.00    -0.631 OA
BRANCH  28  30
HETATM   30  O9  UNL     1      13.607   2.456  12.460  1.00  0.00    -0.307 OA
HETATM   31  H24 UNL     1      13.359   1.560  12.123  1.00  0.00     0.222 HD
ENDBRANCH  28  30
BRANCH  28  32
HETATM   32  O10 UNL     1      11.586   3.818  12.770  1.00  0.00    -0.294 OA
BRANCH  32  33
HETATM   33  C14 UNL     1      10.896   3.190  11.722  1.00  0.00     0.215 C 
BRANCH  33  34
HETATM   34  C15 UNL     1       9.851   4.194  11.237  1.00  0.00     0.180 C 
HETATM   35  C16 UNL     1       9.217   4.895  12.431  1.00  0.00     0.197 C 
HETATM   36  C17 UNL     1       7.750   4.514  12.366  1.00  0.00     0.199 C 
HETATM   37  C18 UNL     1       7.560   4.212  10.877  1.00  0.00     0.262 C 
HETATM   38  O11 UNL     1       8.799   3.584  10.480  1.00  0.00    -0.353 OA
BRANCH  35  39
HETATM   39  O13 UNL     1       9.414   6.296  12.275  1.00  0.00    -0.286 OA
BRANCH  39  40
HETATM   40  P3  UNL     1       9.948   7.065  13.572  1.00  0.00     0.391 P 
HETATM   41  O14 UNL     1      11.142   7.926  13.313  1.00  0.00    -0.632 OA
BRANCH  40  42
HETATM   42  O15 UNL     1      10.121   5.846  14.593  1.00  0.00    -0.307 OA
HETATM   43  H36 UNL     1      10.225   6.177  15.516  1.00  0.00     0.222 HD
ENDBRANCH  40  42
BRANCH  40  44
HETATM   44  O16 UNL     1       8.622   7.780  14.082  1.00  0.00    -0.307 OA
HETATM   45  H37 UNL     1       8.799   8.608  14.555  1.00  0.00     0.222 HD
ENDBRANCH  40  44
ENDBRANCH  39  40
ENDBRANCH  35  39
BRANCH  36  46
HETATM   46  O12 UNL     1       6.943   5.548  12.935  1.00  0.00    -0.388 OA
HETATM   47  H35 UNL     1       7.568   6.206  13.324  1.00  0.00     0.210 HD
ENDBRANCH  36  46
BRANCH  37  48
HETATM   48  N3  UNL     1       6.470   3.290  10.631  1.00  0.00    -0.297 N 
HETATM   49  C19 UNL     1       5.592   2.774  11.556  1.00  0.00     0.188 A 
HETATM   50  N4  UNL     1       4.637   2.065  10.996  1.00  0.00    -0.346 N 
HETATM   51  C20 UNL     1       4.906   2.128   9.640  1.00  0.00     0.116 A 
HETATM   52  H4  UNL     1       3.869   1.577  11.457  1.00  0.00     0.167 HD
HETATM   53  C21 UNL     1       4.240   1.617   8.512  1.00  0.00     0.109 A 
HETATM   54  C23 UNL     1       6.060   2.851   9.403  1.00  0.00     0.142 A 
HETATM   55  N5  UNL     1       4.771   1.845   7.286  1.00  0.00    -0.341 N 
HETATM   56  C22 UNL     1       5.919   2.548   7.209  1.00  0.00     0.183 A 
HETATM   57  H5  UNL     1       4.315   1.493   6.444  1.00  0.00     0.167 HD
HETATM   58  N6  UNL     1       6.637   3.092   8.212  1.00  0.00    -0.336 N 
HETATM   59  H6  UNL     1       7.503   3.616   8.086  1.00  0.00     0.168 HD
BRANCH  53  60
HETATM   60  N7  UNL     1       3.068   0.881   8.587  1.00  0.00    -0.287 NA
HETATM   61  H33 UNL     1       2.896   0.459   9.497  1.00  0.00     0.125 HD
HETATM   62  H34 UNL     1       2.918   0.294   7.777  1.00  0.00     0.125 HD
ENDBRANCH  53  60
ENDBRANCH  37  48
ENDBRANCH  33  34
ENDBRANCH  32  33
ENDBRANCH  28  32
ENDBRANCH  27  28
ENDBRANCH  23  27
ENDBRANCH  22  23
ENDBRANCH  21  22
ENDBRANCH  18  21
ENDBRANCH  17  18
BRANCH  17  63
HETATM   63  O17 UNL     1       8.125   0.560  12.804  1.00  0.00    -0.385 OA
HETATM   64  H38 UNL     1       7.463   1.073  12.310  1.00  0.00     0.210 HD
ENDBRANCH  17  63
ENDBRANCH  14  17
ENDBRANCH  12  13
ENDBRANCH  11  12
ENDBRANCH   8  11
ENDBRANCH   6   7
ENDBRANCH   5   6
ENDBRANCH   4   5
ENDBRANCH   2   4
TORSDOF 27
ENDMDL
MODEL 9
REMARK VINA RESULT:      -5.2      7.014      9.688
REMARK  27 active torsions:
REMARK  status: ('A' for Active; 'I' for Inactive)
REMARK    1  A    between atoms: C2_2  and  S1_4 
REMARK    2  A    between atoms: S1_4  and  C3_5 
REMARK    3  A    between atoms: C3_5  and  C4_6 
REMARK    4  A    between atoms: C4_6  and  N1_7 
REMARK       I    between atoms: N1_7  and  C5_8 
REMARK    5  A    between atoms: C5_8  and  C6_10 
REMARK    6  A    between atoms: C6_10  and  C7_11 
REMARK    7  A    between atoms: C7_11  and  N2_12 
REMARK       I    between atoms: N2_12  and  C8_13 
REMARK    8  A    between atoms: C8_13  and  C9_15 
REMARK    9  A    between atoms: C9_15  and  C10_16 
REMARK   10  A    between atoms: C9_15  and  O17_54 
REMARK   11  A    between atoms: C10_16  and  C13_19 
REMARK   12  A    between atoms: C13_19  and  O4_20 
REMARK   13  A    between atoms: O4_20  and  P1_21 
REMARK   14  A    between atoms: P1_21  and  O6_23 
REMARK   15  A    between atoms: P1_21  and  O7_24 
REMARK   16  A    between atoms: O7_24  and  P2_25 
REMARK   17  A    between atoms: P2_25  and  O9_27 
REMARK   18  A    between atoms: P2_25  and  O10_28 
REMARK   19  A    between atoms: O10_28  and  C14_29 
REMARK   20  A    between atoms: C14_29  and  C15_30 
REMARK   21  A    between atoms: C16_31  and  O13_49 
REMARK   22  A    between atoms: C17_32  and  O12_48 
REMARK   23  A    between atoms: C18_33  and  N3_35 
REMARK   24  A    between atoms: C21_40  and  N7_47 
REMARK   25  A    between atoms: O13_49  and  P3_50 
REMARK   26  A    between atoms: P3_50  and  O15_52 
REMARK   27  A    between atoms: P3_50  and  O16_53 
ROOT
HETATM    1  C1  UNL     1      -8.019   5.975   8.164  1.00  0.00     0.104 C 
HETATM    2  C2  UNL     1      -8.031   7.111   7.187  1.00  0.00     0.182 C 
HETATM    3  O1  UNL     1      -7.029   7.759   6.894  1.00  0.00    -0.286 OA
ENDROOT
BRANCH   2   4
HETATM    4  S1  UNL     1      -9.615   7.473   6.516  1.00  0.00    -0.091 SA
BRANCH   4   5
HETATM    5  C3  UNL     1      -9.164   7.804   4.782  1.00  0.00     0.102 C 
BRANCH   5   6
HETATM    6  C4  UNL     1     -10.213   7.267   3.807  1.00  0.00     0.133 C 
BRANCH   6   7
HETATM    7  N1  UNL     1      -9.641   6.848   2.544  1.00  0.00    -0.360 N 
HETATM    8  C5  UNL     1      -9.490   7.722   1.492  1.00  0.00     0.219 C 
HETATM    9  O2  UNL     1      -9.900   8.877   1.530  1.00  0.00    -0.274 OA
HETATM   10  H8  UNL     1      -9.340   5.889   2.440  1.00  0.00     0.162 HD
BRANCH   8  11
HETATM   11  C6  UNL     1      -8.822   7.099   0.286  1.00  0.00     0.122 C 
BRANCH  11  12
HETATM   12  C7  UNL     1      -7.316   7.359   0.269  1.00  0.00     0.132 C 
BRANCH  12  13
HETATM   13  N2  UNL     1      -6.901   8.353   1.237  1.00  0.00    -0.358 N 
HETATM   14  C8  UNL     1      -5.575   8.736   1.317  1.00  0.00     0.247 C 
HETATM   15  O3  UNL     1      -4.696   8.178   0.673  1.00  0.00    -0.271 OA
HETATM   16  H13 UNL     1      -7.603   9.051   1.476  1.00  0.00     0.162 HD
BRANCH  14  17
HETATM   17  C9  UNL     1      -5.302   9.920   2.256  1.00  0.00     0.219 C 
BRANCH  17  18
HETATM   18  C10 UNL     1      -5.056   9.524   3.736  1.00  0.00     0.009 C 
HETATM   19  C11 UNL     1      -6.120  10.110   4.676  1.00  0.00     0.020 C 
HETATM   20  C12 UNL     1      -5.054   7.992   3.918  1.00  0.00     0.020 C 
BRANCH  18  21
HETATM   21  C13 UNL     1      -3.659  10.098   4.105  1.00  0.00     0.192 C 
BRANCH  21  22
HETATM   22  O4  UNL     1      -3.507  10.293   5.497  1.00  0.00    -0.296 OA
BRANCH  22  23
HETATM   23  P1  UNL     1      -2.427  11.299   6.122  1.00  0.00     0.401 P 
HETATM   24  O5  UNL     1      -2.972  12.653   6.452  1.00  0.00    -0.631 OA
BRANCH  23  25
HETATM   25  O6  UNL     1      -1.178  11.331   5.108  1.00  0.00    -0.307 OA
HETATM   26  H23 UNL     1      -1.197  12.108   4.534  1.00  0.00     0.222 HD
ENDBRANCH  23  25
BRANCH  23  27
HETATM   27  O7  UNL     1      -1.802  10.515   7.358  1.00  0.00    -0.195 OA
BRANCH  27  28
HETATM   28  P2  UNL     1      -0.244  10.662   7.654  1.00  0.00     0.401 P 
HETATM   29  O8  UNL     1       0.386  11.977   7.327  1.00  0.00    -0.631 OA
BRANCH  28  30
HETATM   30  O9  UNL     1      -0.122  10.246   9.191  1.00  0.00    -0.307 OA
HETATM   31  H24 UNL     1       0.794  10.006   9.473  1.00  0.00     0.222 HD
ENDBRANCH  28  30
BRANCH  28  32
HETATM   32  O10 UNL     1       0.405   9.384   6.952  1.00  0.00    -0.294 OA
BRANCH  32  33
HETATM   33  C14 UNL     1       1.792   9.327   6.739  1.00  0.00     0.215 C 
BRANCH  33  34
HETATM   34  C15 UNL     1       2.294   8.115   7.522  1.00  0.00     0.180 C 
HETATM   35  C16 UNL     1       3.728   8.353   7.976  1.00  0.00     0.197 C 
HETATM   36  C17 UNL     1       4.535   7.269   7.288  1.00  0.00     0.199 C 
HETATM   37  C18 UNL     1       3.484   6.178   7.063  1.00  0.00     0.262 C 
HETATM   38  O11 UNL     1       2.275   6.907   6.753  1.00  0.00    -0.353 OA
BRANCH  35  39
HETATM   39  O13 UNL     1       3.767   8.232   9.394  1.00  0.00    -0.286 OA
BRANCH  39  40
HETATM   40  P3  UNL     1       4.167   9.561  10.189  1.00  0.00     0.391 P 
HETATM   41  O14 UNL     1       5.487  10.131   9.782  1.00  0.00    -0.632 OA
BRANCH  40  42
HETATM   42  O15 UNL     1       4.008   9.065  11.701  1.00  0.00    -0.307 OA
HETATM   43  H36 UNL     1       3.210   8.494  11.799  1.00  0.00     0.222 HD
ENDBRANCH  40  42
BRANCH  40  44
HETATM   44  O16 UNL     1       2.876  10.462   9.966  1.00  0.00    -0.307 OA
HETATM   45  H37 UNL     1       2.136   9.970   9.575  1.00  0.00     0.222 HD
ENDBRANCH  40  44
ENDBRANCH  39  40
ENDBRANCH  35  39
BRANCH  36  46
HETATM   46  O12 UNL     1       5.679   6.926   8.075  1.00  0.00    -0.388 OA
HETATM   47  H35 UNL     1       6.183   6.256   7.555  1.00  0.00     0.210 HD
ENDBRANCH  36  46
BRANCH  37  48
HETATM   48  N3  UNL     1       3.808   5.316   5.944  1.00  0.00    -0.297 N 
HETATM   49  C19 UNL     1       4.290   4.029   5.999  1.00  0.00     0.188 A 
HETATM   50  N4  UNL     1       4.361   3.472   4.810  1.00  0.00    -0.346 N 
HETATM   51  C20 UNL     1       3.899   4.444   3.941  1.00  0.00     0.116 A 
HETATM   52  H4  UNL     1       4.685   2.533   4.579  1.00  0.00     0.167 HD
HETATM   53  C21 UNL     1       3.691   4.459   2.551  1.00  0.00     0.109 A 
HETATM   54  C23 UNL     1       3.590   5.605   4.626  1.00  0.00     0.142 A 
HETATM   55  N5  UNL     1       3.226   5.595   1.976  1.00  0.00    -0.341 N 
HETATM   56  C22 UNL     1       2.991   6.660   2.768  1.00  0.00     0.183 A 
HETATM   57  H5  UNL     1       3.059   5.642   0.971  1.00  0.00     0.167 HD
HETATM   58  N6  UNL     1       3.143   6.761   4.104  1.00  0.00    -0.336 N 
HETATM   59  H6  UNL     1       2.946   7.602   4.647  1.00  0.00     0.168 HD
BRANCH  53  60
HETATM   60  N7  UNL     1       3.945   3.371   1.731  1.00  0.00    -0.287 NA
HETATM   61  H33 UNL     1       3.457   2.520   2.000  1.00  0.00     0.125 HD
HETATM   62  H34 UNL     1       4.923   3.279   1.490  1.00  0.00     0.125 HD
ENDBRANCH  53  60
ENDBRANCH  37  48
ENDBRANCH  33  34
ENDBRANCH  32  33
ENDBRANCH  28  32
ENDBRANCH  27  28
ENDBRANCH  23  27
ENDBRANCH  22  23
ENDBRANCH  21  22
ENDBRANCH  18  21
ENDBRANCH  17  18
BRANCH  17  63
HETATM   63  O17 UNL     1      -4.172  10.667   1.792  1.00  0.00    -0.385 OA
HETATM   64  H38 UNL     1      -3.576  10.056   1.328  1.00  0.00     0.210 HD
ENDBRANCH  17  63
ENDBRANCH  14  17
ENDBRANCH  12  13
ENDBRANCH  11  12
ENDBRANCH   8  11
ENDBRANCH   6   7
ENDBRANCH   5   6
ENDBRANCH   4   5
ENDBRANCH   2   4
TORSDOF 27
ENDMDL
MODEL 10
REMARK VINA RESULT:      -5.2     16.572     19.295
REMARK  27 active torsions:
REMARK  status: ('A' for Active; 'I' for Inactive)
REMARK    1  A    between atoms: C2_2  and  S1_4 
REMARK    2  A    between atoms: S1_4  and  C3_5 
REMARK    3  A    between atoms: C3_5  and  C4_6 
REMARK    4  A    between atoms: C4_6  and  N1_7 
REMARK       I    between atoms: N1_7  and  C5_8 
REMARK    5  A    between atoms: C5_8  and  C6_10 
REMARK    6  A    between atoms: C6_10  and  C7_11 
REMARK    7  A    between atoms: C7_11  and  N2_12 
REMARK       I    between atoms: N2_12  and  C8_13 
REMARK    8  A    between atoms: C8_13  and  C9_15 
REMARK    9  A    between atoms: C9_15  and  C10_16 
REMARK   10  A    between atoms: C9_15  and  O17_54 
REMARK   11  A    between atoms: C10_16  and  C13_19 
REMARK   12  A    between atoms: C13_19  and  O4_20 
REMARK   13  A    between atoms: O4_20  and  P1_21 
REMARK   14  A    between atoms: P1_21  and  O6_23 
REMARK   15  A    between atoms: P1_21  and  O7_24 
REMARK   16  A    between atoms: O7_24  and  P2_25 
REMARK   17  A    between atoms: P2_25  and  O9_27 
REMARK   18  A    between atoms: P2_25  and  O10_28 
REMARK   19  A    between atoms: O10_28  and  C14_29 
REMARK   20  A    between atoms: C14_29  and  C15_30 
REMARK   21  A    between atoms: C16_31  and  O13_49 
REMARK   22  A    between atoms: C17_32  and  O12_48 
REMARK   23  A    between atoms: C18_33  and  N3_35 
REMARK   24  A    between atoms: C21_40  and  N7_47 
REMARK   25  A    between atoms: O13_49  and  P3_50 
REMARK   26  A    between atoms: P3_50  and  O15_52 
REMARK   27  A    between atoms: P3_50  and  O16_53 
ROOT
HETATM    1  C1  UNL     1       5.997   4.237   1.763  1.00  0.00     0.104 C 
HETATM    2  C2  UNL     1       7.425   4.019   1.366  1.00  0.00     0.182 C 
HETATM    3  O1  UNL     1       7.875   4.332   0.266  1.00  0.00    -0.286 OA
ENDROOT
BRANCH   2   4
HETATM    4  S1  UNL     1       8.408   3.236   2.596  1.00  0.00    -0.091 SA
BRANCH   4   5
HETATM    5  C3  UNL     1       9.069   1.834   1.637  1.00  0.00     0.102 C 
BRANCH   5   6
HETATM    6  C4  UNL     1       8.290   0.544   1.902  1.00  0.00     0.133 C 
BRANCH   6   7
HETATM    7  N1  UNL     1       6.859   0.717   1.764  1.00  0.00    -0.360 N 
HETATM    8  C5  UNL     1       6.224   0.560   0.554  1.00  0.00     0.219 C 
HETATM    9  O2  UNL     1       6.832   0.347  -0.488  1.00  0.00    -0.274 OA
HETATM   10  H8  UNL     1       6.316   0.952   2.584  1.00  0.00     0.162 HD
BRANCH   8  11
HETATM   11  C6  UNL     1       4.722   0.730   0.639  1.00  0.00     0.122 C 
BRANCH  11  12
HETATM   12  C7  UNL     1       3.981  -0.553   0.264  1.00  0.00     0.132 C 
BRANCH  12  13
HETATM   13  N2  UNL     1       4.777  -1.746   0.459  1.00  0.00    -0.358 N 
HETATM   14  C8  UNL     1       4.320  -2.762   1.279  1.00  0.00     0.247 C 
HETATM   15  O3  UNL     1       3.305  -2.648   1.954  1.00  0.00    -0.271 OA
HETATM   16  H13 UNL     1       5.368  -2.012  -0.326  1.00  0.00     0.162 HD
BRANCH  14  17
HETATM   17  C9  UNL     1       5.173  -4.039   1.258  1.00  0.00     0.219 C 
BRANCH  17  18
HETATM   18  C10 UNL     1       6.550  -3.904   1.959  1.00  0.00     0.009 C 
HETATM   19  C11 UNL     1       7.122  -5.266   2.379  1.00  0.00     0.020 C 
HETATM   20  C12 UNL     1       7.585  -3.217   1.045  1.00  0.00     0.020 C 
BRANCH  18  21
HETATM   21  C13 UNL     1       6.303  -3.030   3.222  1.00  0.00     0.192 C 
BRANCH  21  22
HETATM   22  O4  UNL     1       5.702  -3.759   4.273  1.00  0.00    -0.296 OA
BRANCH  22  23
HETATM   23  P1  UNL     1       6.000  -3.463   5.820  1.00  0.00     0.401 P 
HETATM   24  O5  UNL     1       6.334  -2.035   6.116  1.00  0.00    -0.631 OA
BRANCH  23  25
HETATM   25  O6  UNL     1       7.137  -4.505   6.283  1.00  0.00    -0.307 OA
HETATM   26  H23 UNL     1       6.763  -5.356   6.543  1.00  0.00     0.222 HD
ENDBRANCH  23  25
BRANCH  23  27
HETATM   27  O7  UNL     1       4.731  -4.024   6.598  1.00  0.00    -0.195 OA
BRANCH  27  28
HETATM   28  P2  UNL     1       4.710  -5.557   7.032  1.00  0.00     0.401 P 
HETATM   29  O8  UNL     1       5.171  -6.554   6.020  1.00  0.00    -0.631 OA
BRANCH  28  30
HETATM   30  O9  UNL     1       5.556  -5.566   8.387  1.00  0.00    -0.307 OA
HETATM   31  H24 UNL     1       5.483  -4.732   8.913  1.00  0.00     0.222 HD
ENDBRANCH  28  30
BRANCH  28  32
HETATM   32  O10 UNL     1       3.236  -5.776   7.605  1.00  0.00    -0.294 OA
BRANCH  32  33
HETATM   33  C14 UNL     1       3.044  -6.033   8.972  1.00  0.00     0.215 C 
BRANCH  33  34
HETATM   34  C15 UNL     1       2.006  -7.150   9.054  1.00  0.00     0.180 C 
HETATM   35  C16 UNL     1       2.623  -8.463   8.593  1.00  0.00     0.197 C 
HETATM   36  C17 UNL     1       1.816  -8.860   7.372  1.00  0.00     0.199 C 
HETATM   37  C18 UNL     1       0.482  -8.154   7.623  1.00  0.00     0.262 C 
HETATM   38  O11 UNL     1       0.852  -6.902   8.242  1.00  0.00    -0.353 OA
BRANCH  35  39
HETATM   39  O13 UNL     1       2.495  -9.407   9.651  1.00  0.00    -0.286 OA
BRANCH  39  40
HETATM   40  P3  UNL     1       3.747  -9.509  10.640  1.00  0.00     0.391 P 
HETATM   41  O14 UNL     1       5.042  -9.098  10.017  1.00  0.00    -0.632 OA
BRANCH  40  42
HETATM   42  O15 UNL     1       3.612 -11.023  11.139  1.00  0.00    -0.307 OA
HETATM   43  H36 UNL     1       4.293 -11.593  10.710  1.00  0.00     0.222 HD
ENDBRANCH  40  42
BRANCH  40  44
HETATM   44  O16 UNL     1       3.231  -8.669  11.889  1.00  0.00    -0.307 OA
HETATM   45  H37 UNL     1       3.038  -7.745  11.667  1.00  0.00     0.222 HD
ENDBRANCH  40  44
ENDBRANCH  39  40
ENDBRANCH  35  39
BRANCH  36  46
HETATM   46  O12 UNL     1       1.790 -10.283   7.235  1.00  0.00    -0.388 OA
HETATM   47  H35 UNL     1       1.195 -10.478   6.472  1.00  0.00     0.210 HD
ENDBRANCH  36  46
BRANCH  37  48
HETATM   48  N3  UNL     1      -0.239  -7.872   6.398  1.00  0.00    -0.297 N 
HETATM   49  C19 UNL     1      -1.548  -8.183   6.114  1.00  0.00     0.188 A 
HETATM   50  N4  UNL     1      -1.942  -7.680   4.964  1.00  0.00    -0.346 N 
HETATM   51  C20 UNL     1      -0.834  -7.005   4.481  1.00  0.00     0.116 A 
HETATM   52  H4  UNL     1      -2.859  -7.767   4.526  1.00  0.00     0.167 HD
HETATM   53  C21 UNL     1      -0.619  -6.229   3.329  1.00  0.00     0.109 A 
HETATM   54  C23 UNL     1       0.239  -7.149   5.341  1.00  0.00     0.142 A 
HETATM   55  N5  UNL     1       0.611  -5.696   3.127  1.00  0.00    -0.341 N 
HETATM   56  C22 UNL     1       1.571  -5.940   4.040  1.00  0.00     0.183 A 
HETATM   57  H5  UNL     1       0.804  -5.124   2.304  1.00  0.00     0.167 HD
HETATM   58  N6  UNL     1       1.480  -6.657   5.180  1.00  0.00    -0.336 N 
HETATM   59  H6  UNL     1       2.250  -6.805   5.833  1.00  0.00     0.168 HD
BRANCH  53  60
HETATM   60  N7  UNL     1      -1.598  -5.987   2.379  1.00  0.00    -0.287 NA
HETATM   61  H33 UNL     1      -1.455  -6.472   1.497  1.00  0.00     0.125 HD
HETATM   62  H34 UNL     1      -1.863  -5.012   2.325  1.00  0.00     0.125 HD
ENDBRANCH  53  60
ENDBRANCH  37  48
ENDBRANCH  33  34
ENDBRANCH  32  33
ENDBRANCH  28  32
ENDBRANCH  27  28
ENDBRANCH  23  27
ENDBRANCH  22  23
ENDBRANCH  21  22
ENDBRANCH  18  21
ENDBRANCH  17  18
BRANCH  17  63
HETATM   63  O17 UNL     1       4.457  -5.120   1.867  1.00  0.00    -0.385 OA
HETATM   64  H38 UNL     1       3.546  -5.105   1.531  1.00  0.00     0.210 HD
ENDBRANCH  17  63
ENDBRANCH  14  17
ENDBRANCH  12  13
ENDBRANCH  11  12
ENDBRANCH   8  11
ENDBRANCH   6   7
ENDBRANCH   5   6
ENDBRANCH   4   5
ENDBRANCH   2   4
TORSDOF 27
ENDMDL
MODEL 11
REMARK VINA RESULT:      -5.2     17.803     21.779
REMARK  27 active torsions:
REMARK  status: ('A' for Active; 'I' for Inactive)
REMARK    1  A    between atoms: C2_2  and  S1_4 
REMARK    2  A    between atoms: S1_4  and  C3_5 
REMARK    3  A    between atoms: C3_5  and  C4_6 
REMARK    4  A    between atoms: C4_6  and  N1_7 
REMARK       I    between atoms: N1_7  and  C5_8 
REMARK    5  A    between atoms: C5_8  and  C6_10 
REMARK    6  A    between atoms: C6_10  and  C7_11 
REMARK    7  A    between atoms: C7_11  and  N2_12 
REMARK       I    between atoms: N2_12  and  C8_13 
REMARK    8  A    between atoms: C8_13  and  C9_15 
REMARK    9  A    between atoms: C9_15  and  C10_16 
REMARK   10  A    between atoms: C9_15  and  O17_54 
REMARK   11  A    between atoms: C10_16  and  C13_19 
REMARK   12  A    between atoms: C13_19  and  O4_20 
REMARK   13  A    between atoms: O4_20  and  P1_21 
REMARK   14  A    between atoms: P1_21  and  O6_23 
REMARK   15  A    between atoms: P1_21  and  O7_24 
REMARK   16  A    between atoms: O7_24  and  P2_25 
REMARK   17  A    between atoms: P2_25  and  O9_27 
REMARK   18  A    between atoms: P2_25  and  O10_28 
REMARK   19  A    between atoms: O10_28  and  C14_29 
REMARK   20  A    between atoms: C14_29  and  C15_30 
REMARK   21  A    between atoms: C16_31  and  O13_49 
REMARK   22  A    between atoms: C17_32  and  O12_48 
REMARK   23  A    between atoms: C18_33  and  N3_35 
REMARK   24  A    between atoms: C21_40  and  N7_47 
REMARK   25  A    between atoms: O13_49  and  P3_50 
REMARK   26  A    between atoms: P3_50  and  O15_52 
REMARK   27  A    between atoms: P3_50  and  O16_53 
ROOT
HETATM    1  C1  UNL     1      11.768 -12.734  10.336  1.00  0.00     0.104 C 
HETATM    2  C2  UNL     1      10.430 -12.062  10.305  1.00  0.00     0.182 C 
HETATM    3  O1  UNL     1      10.169 -11.112   9.571  1.00  0.00    -0.286 OA
ENDROOT
BRANCH   2   4
HETATM    4  S1  UNL     1       9.260 -12.721  11.441  1.00  0.00    -0.091 SA
BRANCH   4   5
HETATM    5  C3  UNL     1       7.729 -11.965  10.805  1.00  0.00     0.102 C 
BRANCH   5   6
HETATM    6  C4  UNL     1       6.811 -11.500  11.936  1.00  0.00     0.133 C 
BRANCH   6   7
HETATM    7  N1  UNL     1       6.072 -10.300  11.600  1.00  0.00    -0.360 N 
HETATM    8  C5  UNL     1       4.703 -10.306  11.466  1.00  0.00     0.219 C 
HETATM    9  O2  UNL     1       4.037 -11.332  11.542  1.00  0.00    -0.274 OA
HETATM   10  H8  UNL     1       6.582  -9.437  11.468  1.00  0.00     0.162 HD
BRANCH   8  11
HETATM   11  C6  UNL     1       4.125  -8.940  11.168  1.00  0.00     0.122 C 
BRANCH  11  12
HETATM   12  C7  UNL     1       3.811  -8.765   9.682  1.00  0.00     0.132 C 
BRANCH  12  13
HETATM   13  N2  UNL     1       3.957  -7.398   9.228  1.00  0.00    -0.358 N 
HETATM   14  C8  UNL     1       4.310  -7.133   7.918  1.00  0.00     0.247 C 
HETATM   15  O3  UNL     1       4.624  -8.021   7.135  1.00  0.00    -0.271 OA
HETATM   16  H13 UNL     1       3.368  -6.715   9.699  1.00  0.00     0.162 HD
BRANCH  14  17
HETATM   17  C9  UNL     1       4.257  -5.650   7.523  1.00  0.00     0.219 C 
BRANCH  17  18
HETATM   18  C10 UNL     1       5.640  -5.013   7.228  1.00  0.00     0.009 C 
HETATM   19  C11 UNL     1       5.806  -3.648   7.912  1.00  0.00     0.020 C 
HETATM   20  C12 UNL     1       6.793  -5.923   7.698  1.00  0.00     0.020 C 
BRANCH  18  21
HETATM   21  C13 UNL     1       5.707  -4.836   5.684  1.00  0.00     0.192 C 
BRANCH  21  22
HETATM   22  O4  UNL     1       5.559  -3.487   5.290  1.00  0.00    -0.296 OA
BRANCH  22  23
HETATM   23  P1  UNL     1       4.399  -2.990   4.301  1.00  0.00     0.401 P 
HETATM   24  O5  UNL     1       4.781  -1.823   3.446  1.00  0.00    -0.631 OA
BRANCH  23  25
HETATM   25  O6  UNL     1       3.094  -2.732   5.208  1.00  0.00    -0.307 OA
HETATM   26  H23 UNL     1       2.736  -3.553   5.569  1.00  0.00     0.222 HD
ENDBRANCH  23  25
BRANCH  23  27
HETATM   27  O7  UNL     1       3.962  -4.290   3.495  1.00  0.00    -0.195 OA
BRANCH  27  28
HETATM   28  P2  UNL     1       2.460  -4.407   2.978  1.00  0.00     0.401 P 
HETATM   29  O8  UNL     1       1.804  -3.148   2.514  1.00  0.00    -0.631 OA
BRANCH  28  30
HETATM   30  O9  UNL     1       2.544  -5.547   1.863  1.00  0.00    -0.307 OA
HETATM   31  H24 UNL     1       2.039  -6.368   2.086  1.00  0.00     0.222 HD
ENDBRANCH  28  30
BRANCH  28  32
HETATM   32  O10 UNL     1       1.709  -5.195   4.147  1.00  0.00    -0.294 OA
BRANCH  32  33
HETATM   33  C14 UNL     1       1.177  -6.471   3.906  1.00  0.00     0.215 C 
BRANCH  33  34
HETATM   34  C15 UNL     1      -0.185  -6.503   4.596  1.00  0.00     0.180 C 
HETATM   35  C16 UNL     1      -0.266  -7.711   5.520  1.00  0.00     0.197 C 
HETATM   36  C17 UNL     1      -1.398  -8.550   4.958  1.00  0.00     0.199 C 
HETATM   37  C18 UNL     1      -2.245  -7.503   4.230  1.00  0.00     0.262 C 
HETATM   38  O11 UNL     1      -1.277  -6.586   3.674  1.00  0.00    -0.353 OA
BRANCH  35  39
HETATM   39  O13 UNL     1      -0.547  -7.243   6.835  1.00  0.00    -0.286 OA
BRANCH  39  40
HETATM   40  P3  UNL     1       0.438  -7.769   7.979  1.00  0.00     0.391 P 
HETATM   41  O14 UNL     1       0.931  -6.692   8.891  1.00  0.00    -0.632 OA
BRANCH  40  42
HETATM   42  O15 UNL     1       1.524  -8.551   7.102  1.00  0.00    -0.307 OA
HETATM   43  H36 UNL     1       1.377  -8.390   6.140  1.00  0.00     0.222 HD
ENDBRANCH  40  42
BRANCH  40  44
HETATM   44  O16 UNL     1      -0.422  -8.942   8.621  1.00  0.00    -0.307 OA
HETATM   45  H37 UNL     1      -1.367  -8.874   8.411  1.00  0.00     0.222 HD
ENDBRANCH  40  44
ENDBRANCH  39  40
ENDBRANCH  35  39
BRANCH  36  46
HETATM   46  O12 UNL     1      -2.030  -9.295   6.002  1.00  0.00    -0.388 OA
HETATM   47  H35 UNL     1      -2.862  -9.661   5.619  1.00  0.00     0.210 HD
ENDBRANCH  36  46
BRANCH  37  48
HETATM   48  N3  UNL     1      -3.024  -8.071   3.149  1.00  0.00    -0.297 N 
HETATM   49  C19 UNL     1      -4.373  -8.343   3.149  1.00  0.00     0.188 A 
HETATM   50  N4  UNL     1      -4.802  -8.738   1.971  1.00  0.00    -0.346 N 
HETATM   51  C20 UNL     1      -3.678  -8.716   1.164  1.00  0.00     0.116 A 
HETATM   52  H4  UNL     1      -5.752  -9.001   1.709  1.00  0.00     0.167 HD
HETATM   53  C21 UNL     1      -3.479  -8.985  -0.201  1.00  0.00     0.109 A 
HETATM   54  C23 UNL     1      -2.562  -8.343   1.891  1.00  0.00     0.142 A 
HETATM   55  N5  UNL     1      -2.226  -8.883  -0.707  1.00  0.00    -0.341 N 
HETATM   56  C22 UNL     1      -1.228  -8.532   0.128  1.00  0.00     0.183 A 
HETATM   57  H5  UNL     1      -2.043  -9.068  -1.693  1.00  0.00     0.167 HD
HETATM   58  N6  UNL     1      -1.298  -8.242   1.443  1.00  0.00    -0.336 N 
HETATM   59  H6  UNL     1      -0.499  -7.981   2.022  1.00  0.00     0.168 HD
BRANCH  53  60
HETATM   60  N7  UNL     1      -4.499  -9.362  -1.060  1.00  0.00    -0.287 NA
HETATM   61  H33 UNL     1      -4.188  -9.881  -1.878  1.00  0.00     0.125 HD
HETATM   62  H34 UNL     1      -5.174  -8.626  -1.217  1.00  0.00     0.125 HD
ENDBRANCH  53  60
ENDBRANCH  37  48
ENDBRANCH  33  34
ENDBRANCH  32  33
ENDBRANCH  28  32
ENDBRANCH  27  28
ENDBRANCH  23  27
ENDBRANCH  22  23
ENDBRANCH  21  22
ENDBRANCH  18  21
ENDBRANCH  17  18
BRANCH  17  63
HETATM   63  O17 UNL     1       3.421  -5.475   6.374  1.00  0.00    -0.385 OA
HETATM   64  H38 UNL     1       3.992  -5.440   5.588  1.00  0.00     0.210 HD
ENDBRANCH  17  63
ENDBRANCH  14  17
ENDBRANCH  12  13
ENDBRANCH  11  12
ENDBRANCH   8  11
ENDBRANCH   6   7
ENDBRANCH   5   6
ENDBRANCH   4   5
ENDBRANCH   2   4
TORSDOF 27
ENDMDL
MODEL 12
REMARK VINA RESULT:      -5.2     18.325     22.063
REMARK  27 active torsions:
REMARK  status: ('A' for Active; 'I' for Inactive)
REMARK    1  A    between atoms: C2_2  and  S1_4 
REMARK    2  A    between atoms: S1_4  and  C3_5 
REMARK    3  A    between atoms: C3_5  and  C4_6 
REMARK    4  A    between atoms: C4_6  and  N1_7 
REMARK       I    between atoms: N1_7  and  C5_8 
REMARK    5  A    between atoms: C5_8  and  C6_10 
REMARK    6  A    between atoms: C6_10  and  C7_11 
REMARK    7  A    between atoms: C7_11  and  N2_12 
REMARK       I    between atoms: N2_12  and  C8_13 
REMARK    8  A    between atoms: C8_13  and  C9_15 
REMARK    9  A    between atoms: C9_15  and  C10_16 
REMARK   10  A    between atoms: C9_15  and  O17_54 
REMARK   11  A    between atoms: C10_16  and  C13_19 
REMARK   12  A    between atoms: C13_19  and  O4_20 
REMARK   13  A    between atoms: O4_20  and  P1_21 
REMARK   14  A    between atoms: P1_21  and  O6_23 
REMARK   15  A    between atoms: P1_21  and  O7_24 
REMARK   16  A    between atoms: O7_24  and  P2_25 
REMARK   17  A    between atoms: P2_25  and  O9_27 
REMARK   18  A    between atoms: P2_25  and  O10_28 
REMARK   19  A    between atoms: O10_28  and  C14_29 
REMARK   20  A    between atoms: C14_29  and  C15_30 
REMARK   21  A    between atoms: C16_31  and  O13_49 
REMARK   22  A    between atoms: C17_32  and  O12_48 
REMARK   23  A    between atoms: C18_33  and  N3_35 
REMARK   24  A    between atoms: C21_40  and  N7_47 
REMARK   25  A    between atoms: O13_49  and  P3_50 
REMARK   26  A    between atoms: P3_50  and  O15_52 
REMARK   27  A    between atoms: P3_50  and  O16_53 
ROOT
HETATM    1  C1  UNL     1      12.193  -2.074  10.532  1.00  0.00     0.104 C 
HETATM    2  C2  UNL     1      11.691  -0.865  11.261  1.00  0.00     0.182 C 
HETATM    3  O1  UNL     1      10.504  -0.672  11.510  1.00  0.00    -0.286 OA
ENDROOT
BRANCH   2   4
HETATM    4  S1  UNL     1      12.944   0.287  11.701  1.00  0.00    -0.091 SA
BRANCH   4   5
HETATM    5  C3  UNL     1      11.969   1.826  11.742  1.00  0.00     0.102 C 
BRANCH   5   6
HETATM    6  C4  UNL     1      11.841   2.382  13.162  1.00  0.00     0.133 C 
BRANCH   6   7
HETATM    7  N1  UNL     1      11.374   1.392  14.110  1.00  0.00    -0.360 N 
HETATM    8  C5  UNL     1      10.149   1.500  14.726  1.00  0.00     0.219 C 
HETATM    9  O2  UNL     1       9.417   2.471  14.573  1.00  0.00    -0.274 OA
HETATM   10  H8  UNL     1      11.967   0.599  14.317  1.00  0.00     0.162 HD
BRANCH   8  11
HETATM   11  C6  UNL     1       9.831   0.334  15.637  1.00  0.00     0.122 C 
BRANCH  11  12
HETATM   12  C7  UNL     1      10.382  -0.983  15.091  1.00  0.00     0.132 C 
BRANCH  12  13
HETATM   13  N2  UNL     1       9.582  -1.531  14.015  1.00  0.00    -0.358 N 
HETATM   14  C8  UNL     1       8.454  -2.279  14.297  1.00  0.00     0.247 C 
HETATM   15  O3  UNL     1       8.157  -2.605  15.439  1.00  0.00    -0.271 OA
HETATM   16  H13 UNL     1       9.579  -0.989  13.153  1.00  0.00     0.162 HD
BRANCH  14  17
HETATM   17  C9  UNL     1       7.603  -2.647  13.072  1.00  0.00     0.219 C 
BRANCH  17  18
HETATM   18  C10 UNL     1       6.507  -1.609  12.716  1.00  0.00     0.009 C 
HETATM   19  C11 UNL     1       5.094  -2.134  13.014  1.00  0.00     0.020 C 
HETATM   20  C12 UNL     1       6.699  -0.293  13.498  1.00  0.00     0.020 C 
BRANCH  18  21
HETATM   21  C13 UNL     1       6.653  -1.339  11.191  1.00  0.00     0.192 C 
BRANCH  21  22
HETATM   22  O4  UNL     1       5.672  -2.013  10.429  1.00  0.00    -0.296 OA
BRANCH  22  23
HETATM   23  P1  UNL     1       6.016  -2.826   9.090  1.00  0.00     0.401 P 
HETATM   24  O5  UNL     1       7.402  -3.390   9.056  1.00  0.00    -0.631 OA
BRANCH  23  25
HETATM   25  O6  UNL     1       5.681  -1.851   7.854  1.00  0.00    -0.307 OA
HETATM   26  H23 UNL     1       4.733  -1.691   7.767  1.00  0.00     0.222 HD
ENDBRANCH  23  25
BRANCH  23  27
HETATM   27  O7  UNL     1       4.855  -3.906   8.956  1.00  0.00    -0.195 OA
BRANCH  27  28
HETATM   28  P2  UNL     1       4.901  -4.939   7.744  1.00  0.00     0.401 P 
HETATM   29  O8  UNL     1       5.054  -4.367   6.373  1.00  0.00    -0.631 OA
BRANCH  28  30
HETATM   30  O9  UNL     1       6.068  -5.945   8.164  1.00  0.00    -0.307 OA
HETATM   31  H24 UNL     1       6.034  -6.231   9.109  1.00  0.00     0.222 HD
ENDBRANCH  28  30
BRANCH  28  32
HETATM   32  O10 UNL     1       3.620  -5.863   7.976  1.00  0.00    -0.294 OA
BRANCH  32  33
HETATM   33  C14 UNL     1       3.184  -6.146   9.280  1.00  0.00     0.215 C 
BRANCH  33  34
HETATM   34  C15 UNL     1       2.138  -7.251   9.150  1.00  0.00     0.180 C 
HETATM   35  C16 UNL     1       2.808  -8.547   8.713  1.00  0.00     0.197 C 
HETATM   36  C17 UNL     1       2.185  -8.868   7.368  1.00  0.00     0.199 C 
HETATM   37  C18 UNL     1       0.833  -8.157   7.461  1.00  0.00     0.262 C 
HETATM   38  O11 UNL     1       1.117  -6.945   8.194  1.00  0.00    -0.353 OA
BRANCH  35  39
HETATM   39  O13 UNL     1       2.521  -9.543   9.689  1.00  0.00    -0.286 OA
BRANCH  39  40
HETATM   40  P3  UNL     1       3.673  -9.805  10.766  1.00  0.00     0.391 P 
HETATM   41  O14 UNL     1       3.807 -11.238  11.168  1.00  0.00    -0.632 OA
BRANCH  40  42
HETATM   42  O15 UNL     1       3.266  -8.752  11.900  1.00  0.00    -0.307 OA
HETATM   43  H36 UNL     1       2.441  -9.037  12.361  1.00  0.00     0.222 HD
ENDBRANCH  40  42
BRANCH  40  44
HETATM   44  O16 UNL     1       4.923  -9.117  10.065  1.00  0.00    -0.307 OA
HETATM   45  H37 UNL     1       4.666  -8.474   9.385  1.00  0.00     0.222 HD
ENDBRANCH  40  44
ENDBRANCH  39  40
ENDBRANCH  35  39
BRANCH  36  46
HETATM   46  O12 UNL     1       2.171 -10.281   7.152  1.00  0.00    -0.388 OA
HETATM   47  H35 UNL     1       2.850 -10.662   7.759  1.00  0.00     0.210 HD
ENDBRANCH  36  46
BRANCH  37  48
HETATM   48  N3  UNL     1       0.300  -7.802   6.160  1.00  0.00    -0.297 N 
HETATM   49  C19 UNL     1      -0.948  -8.096   5.665  1.00  0.00     0.188 A 
HETATM   50  N4  UNL     1      -1.171  -7.523   4.502  1.00  0.00    -0.346 N 
HETATM   51  C20 UNL     1      -0.011  -6.819   4.233  1.00  0.00     0.116 A 
HETATM   52  H4  UNL     1      -2.011  -7.584   3.927  1.00  0.00     0.167 HD
HETATM   53  C21 UNL     1       0.366  -5.973   3.175  1.00  0.00     0.109 A 
HETATM   54  C23 UNL     1       0.923  -7.014   5.233  1.00  0.00     0.142 A 
HETATM   55  N5  UNL     1       1.606  -5.426   3.192  1.00  0.00    -0.341 N 
HETATM   56  C22 UNL     1       2.421  -5.725   4.222  1.00  0.00     0.183 A 
HETATM   57  H5  UNL     1       1.914  -4.805   2.444  1.00  0.00     0.167 HD
HETATM   58  N6  UNL     1       2.169  -6.511   5.290  1.00  0.00    -0.336 N 
HETATM   59  H6  UNL     1       2.834  -6.698   6.040  1.00  0.00     0.168 HD
BRANCH  53  60
HETATM   60  N7  UNL     1      -0.463  -5.673   2.106  1.00  0.00    -0.287 NA
HETATM   61  H33 UNL     1      -0.016  -5.136   1.367  1.00  0.00     0.125 HD
HETATM   62  H34 UNL     1      -1.385  -5.374   2.393  1.00  0.00     0.125 HD
ENDBRANCH  53  60
ENDBRANCH  37  48
ENDBRANCH  33  34
ENDBRANCH  32  33
ENDBRANCH  28  32
ENDBRANCH  27  28
ENDBRANCH  23  27
ENDBRANCH  22  23
ENDBRANCH  21  22
ENDBRANCH  18  21
ENDBRANCH  17  18
BRANCH  17  63
HETATM   63  O17 UNL     1       8.442  -2.833  11.927  1.00  0.00    -0.385 OA
HETATM   64  H38 UNL     1       8.332  -2.063  11.345  1.00  0.00     0.210 HD
ENDBRANCH  17  63
ENDBRANCH  14  17
ENDBRANCH  12  13
ENDBRANCH  11  12
ENDBRANCH   8  11
ENDBRANCH   6   7
ENDBRANCH   5   6
ENDBRANCH   4   5
ENDBRANCH   2   4
TORSDOF 27
ENDMDL
MODEL 13
REMARK VINA RESULT:      -5.2     17.926     21.488
REMARK  27 active torsions:
REMARK  status: ('A' for Active; 'I' for Inactive)
REMARK    1  A    between atoms: C2_2  and  S1_4 
REMARK    2  A    between atoms: S1_4  and  C3_5 
REMARK    3  A    between atoms: C3_5  and  C4_6 
REMARK    4  A    between atoms: C4_6  and  N1_7 
REMARK       I    between atoms: N1_7  and  C5_8 
REMARK    5  A    between atoms: C5_8  and  C6_10 
REMARK    6  A    between atoms: C6_10  and  C7_11 
REMARK    7  A    between atoms: C7_11  and  N2_12 
REMARK       I    between atoms: N2_12  and  C8_13 
REMARK    8  A    between atoms: C8_13  and  C9_15 
REMARK    9  A    between atoms: C9_15  and  C10_16 
REMARK   10  A    between atoms: C9_15  and  O17_54 
REMARK   11  A    between atoms: C10_16  and  C13_19 
REMARK   12  A    between atoms: C13_19  and  O4_20 
REMARK   13  A    between atoms: O4_20  and  P1_21 
REMARK   14  A    between atoms: P1_21  and  O6_23 
REMARK   15  A    between atoms: P1_21  and  O7_24 
REMARK   16  A    between atoms: O7_24  and  P2_25 
REMARK   17  A    between atoms: P2_25  and  O9_27 
REMARK   18  A    between atoms: P2_25  and  O10_28 
REMARK   19  A    between atoms: O10_28  and  C14_29 
REMARK   20  A    between atoms: C14_29  and  C15_30 
REMARK   21  A    between atoms: C16_31  and  O13_49 
REMARK   22  A    between atoms: C17_32  and  O12_48 
REMARK   23  A    between atoms: C18_33  and  N3_35 
REMARK   24  A    between atoms: C21_40  and  N7_47 
REMARK   25  A    between atoms: O13_49  and  P3_50 
REMARK   26  A    between atoms: P3_50  and  O15_52 
REMARK   27  A    between atoms: P3_50  and  O16_53 
ROOT
HETATM    1  C1  UNL     1       8.344 -10.586   2.028  1.00  0.00     0.104 C 
HETATM    2  C2  UNL     1       7.576 -11.863   2.190  1.00  0.00     0.182 C 
HETATM    3  O1  UNL     1       7.924 -12.768   2.943  1.00  0.00    -0.286 OA
ENDROOT
BRANCH   2   4
HETATM    4  S1  UNL     1       6.144 -11.981   1.176  1.00  0.00    -0.091 SA
BRANCH   4   5
HETATM    5  C3  UNL     1       5.050 -12.941   2.271  1.00  0.00     0.102 C 
BRANCH   5   6
HETATM    6  C4  UNL     1       3.952 -12.071   2.886  1.00  0.00     0.133 C 
BRANCH   6   7
HETATM    7  N1  UNL     1       2.917 -11.722   1.935  1.00  0.00    -0.360 N 
HETATM    8  C5  UNL     1       1.863 -10.907   2.278  1.00  0.00     0.219 C 
HETATM    9  O2  UNL     1       1.692 -10.495   3.420  1.00  0.00    -0.274 OA
HETATM   10  H8  UNL     1       2.979 -12.085   0.993  1.00  0.00     0.162 HD
BRANCH   8  11
HETATM   11  C6  UNL     1       0.925 -10.623   1.125  1.00  0.00     0.122 C 
BRANCH  11  12
HETATM   12  C7  UNL     1      -0.364  -9.948   1.592  1.00  0.00     0.132 C 
BRANCH  12  13
HETATM   13  N2  UNL     1      -0.130  -8.718   2.319  1.00  0.00    -0.358 N 
HETATM   14  C8  UNL     1       0.150  -7.548   1.637  1.00  0.00     0.247 C 
HETATM   15  O3  UNL     1       0.326  -7.526   0.425  1.00  0.00    -0.271 OA
HETATM   16  H13 UNL     1      -0.621  -8.633   3.206  1.00  0.00     0.162 HD
BRANCH  14  17
HETATM   17  C9  UNL     1       0.201  -6.288   2.513  1.00  0.00     0.219 C 
BRANCH  17  18
HETATM   18  C10 UNL     1      -1.116  -5.467   2.537  1.00  0.00     0.009 C 
HETATM   19  C11 UNL     1      -0.855  -3.954   2.514  1.00  0.00     0.020 C 
HETATM   20  C12 UNL     1      -2.018  -5.812   1.335  1.00  0.00     0.020 C 
BRANCH  18  21
HETATM   21  C13 UNL     1      -1.836  -5.853   3.861  1.00  0.00     0.192 C 
BRANCH  21  22
HETATM   22  O4  UNL     1      -2.565  -7.058   3.746  1.00  0.00    -0.296 OA
BRANCH  22  23
HETATM   23  P1  UNL     1      -2.816  -8.045   4.984  1.00  0.00     0.401 P 
HETATM   24  O5  UNL     1      -4.254  -8.391   5.210  1.00  0.00    -0.631 OA
BRANCH  23  25
HETATM   25  O6  UNL     1      -2.100  -7.379   6.263  1.00  0.00    -0.307 OA
HETATM   26  H23 UNL     1      -1.205  -7.078   6.060  1.00  0.00     0.222 HD
ENDBRANCH  23  25
BRANCH  23  27
HETATM   27  O7  UNL     1      -1.867  -9.293   4.714  1.00  0.00    -0.195 OA
BRANCH  27  28
HETATM   28  P2  UNL     1      -1.013  -9.887   5.921  1.00  0.00     0.401 P 
HETATM   29  O8  UNL     1      -1.745 -10.172   7.192  1.00  0.00    -0.631 OA
BRANCH  28  30
HETATM   30  O9  UNL     1      -0.306 -11.165   5.276  1.00  0.00    -0.307 OA
HETATM   31  H24 UNL     1      -0.748 -12.023   5.492  1.00  0.00     0.222 HD
ENDBRANCH  28  30
BRANCH  28  32
HETATM   32  O10 UNL     1       0.231  -8.893   6.040  1.00  0.00    -0.294 OA
BRANCH  32  33
HETATM   33  C14 UNL     1       0.815  -8.646   7.292  1.00  0.00     0.215 C 
BRANCH  33  34
HETATM   34  C15 UNL     1       2.324  -8.597   7.058  1.00  0.00     0.180 C 
HETATM   35  C16 UNL     1       2.975  -7.676   8.081  1.00  0.00     0.197 C 
HETATM   36  C17 UNL     1       3.594  -6.563   7.258  1.00  0.00     0.199 C 
HETATM   37  C18 UNL     1       3.815  -7.245   5.906  1.00  0.00     0.262 C 
HETATM   38  O11 UNL     1       2.671  -8.115   5.755  1.00  0.00    -0.353 OA
BRANCH  35  39
HETATM   39  O13 UNL     1       3.955  -8.428   8.790  1.00  0.00    -0.286 OA
BRANCH  39  40
HETATM   40  P3  UNL     1       3.643  -8.681  10.338  1.00  0.00     0.391 P 
HETATM   41  O14 UNL     1       4.851  -9.028  11.147  1.00  0.00    -0.632 OA
BRANCH  40  42
HETATM   42  O15 UNL     1       2.481  -9.775  10.234  1.00  0.00    -0.307 OA
HETATM   43  H36 UNL     1       2.001  -9.856  11.092  1.00  0.00     0.222 HD
ENDBRANCH  40  42
BRANCH  40  44
HETATM   44  O16 UNL     1       2.857  -7.353  10.721  1.00  0.00    -0.307 OA
HETATM   45  H37 UNL     1       3.305  -6.548  10.416  1.00  0.00     0.222 HD
ENDBRANCH  40  44
ENDBRANCH  39  40
ENDBRANCH  35  39
BRANCH  36  46
HETATM   46  O12 UNL     1       4.744  -6.035   7.923  1.00  0.00    -0.388 OA
HETATM   47  H35 UNL     1       5.401  -5.825   7.217  1.00  0.00     0.210 HD
ENDBRANCH  36  46
BRANCH  37  48
HETATM   48  N3  UNL     1       3.834  -6.304   4.804  1.00  0.00    -0.297 N 
HETATM   49  C19 UNL     1       4.013  -4.943   4.877  1.00  0.00     0.188 A 
HETATM   50  N4  UNL     1       4.106  -4.388   3.688  1.00  0.00    -0.346 N 
HETATM   51  C20 UNL     1       3.986  -5.442   2.801  1.00  0.00     0.116 A 
HETATM   52  H4  UNL     1       4.237  -3.400   3.469  1.00  0.00     0.167 HD
HETATM   53  C21 UNL     1       4.043  -5.519   1.398  1.00  0.00     0.109 A 
HETATM   54  C23 UNL     1       3.778  -6.630   3.478  1.00  0.00     0.142 A 
HETATM   55  N5  UNL     1       3.875  -6.726   0.806  1.00  0.00    -0.341 N 
HETATM   56  C22 UNL     1       3.655  -7.798   1.594  1.00  0.00     0.183 A 
HETATM   57  H5  UNL     1       3.913  -6.821  -0.208  1.00  0.00     0.167 HD
HETATM   58  N6  UNL     1       3.589  -7.848   2.940  1.00  0.00    -0.336 N 
HETATM   59  H6  UNL     1       3.419  -8.697   3.480  1.00  0.00     0.168 HD
BRANCH  53  60
HETATM   60  N7  UNL     1       4.254  -4.418   0.583  1.00  0.00    -0.287 NA
HETATM   61  H33 UNL     1       4.093  -3.522   1.039  1.00  0.00     0.125 HD
HETATM   62  H34 UNL     1       3.867  -4.533  -0.344  1.00  0.00     0.125 HD
ENDBRANCH  53  60
ENDBRANCH  37  48
ENDBRANCH  33  34
ENDBRANCH  32  33
ENDBRANCH  28  32
ENDBRANCH  27  28
ENDBRANCH  23  27
ENDBRANCH  22  23
ENDBRANCH  21  22
ENDBRANCH  18  21
ENDBRANCH  17  18
BRANCH  17  63
HETATM   63  O17 UNL     1       0.542  -6.637   3.859  1.00  0.00    -0.385 OA
HETATM   64  H38 UNL     1      -0.161  -7.209   4.210  1.00  0.00     0.210 HD
ENDBRANCH  17  63
ENDBRANCH  14  17
ENDBRANCH  12  13
ENDBRANCH  11  12
ENDBRANCH   8  11
ENDBRANCH   6   7
ENDBRANCH   5   6
ENDBRANCH   4   5
ENDBRANCH   2   4
TORSDOF 27
ENDMDL
MODEL 14
REMARK VINA RESULT:      -5.2     17.583     21.370
REMARK  27 active torsions:
REMARK  status: ('A' for Active; 'I' for Inactive)
REMARK    1  A    between atoms: C2_2  and  S1_4 
REMARK    2  A    between atoms: S1_4  and  C3_5 
REMARK    3  A    between atoms: C3_5  and  C4_6 
REMARK    4  A    between atoms: C4_6  and  N1_7 
REMARK       I    between atoms: N1_7  and  C5_8 
REMARK    5  A    between atoms: C5_8  and  C6_10 
REMARK    6  A    between atoms: C6_10  and  C7_11 
REMARK    7  A    between atoms: C7_11  and  N2_12 
REMARK       I    between atoms: N2_12  and  C8_13 
REMARK    8  A    between atoms: C8_13  and  C9_15 
REMARK    9  A    between atoms: C9_15  and  C10_16 
REMARK   10  A    between atoms: C9_15  and  O17_54 
REMARK   11  A    between atoms: C10_16  and  C13_19 
REMARK   12  A    between atoms: C13_19  and  O4_20 
REMARK   13  A    between atoms: O4_20  and  P1_21 
REMARK   14  A    between atoms: P1_21  and  O6_23 
REMARK   15  A    between atoms: P1_21  and  O7_24 
REMARK   16  A    between atoms: O7_24  and  P2_25 
REMARK   17  A    between atoms: P2_25  and  O9_27 
REMARK   18  A    between atoms: P2_25  and  O10_28 
REMARK   19  A    between atoms: O10_28  and  C14_29 
REMARK   20  A    between atoms: C14_29  and  C15_30 
REMARK   21  A    between atoms: C16_31  and  O13_49 
REMARK   22  A    between atoms: C17_32  and  O12_48 
REMARK   23  A    between atoms: C18_33  and  N3_35 
REMARK   24  A    between atoms: C21_40  and  N7_47 
REMARK   25  A    between atoms: O13_49  and  P3_50 
REMARK   26  A    between atoms: P3_50  and  O15_52 
REMARK   27  A    between atoms: P3_50  and  O16_53 
ROOT
HETATM    1  C1  UNL     1       9.669 -10.966   1.489  1.00  0.00     0.104 C 
HETATM    2  C2  UNL     1       8.885 -11.528   2.636  1.00  0.00     0.182 C 
HETATM    3  O1  UNL     1       9.404 -12.083   3.601  1.00  0.00    -0.286 OA
ENDROOT
BRANCH   2   4
HETATM    4  S1  UNL     1       7.142 -11.363   2.470  1.00  0.00    -0.091 SA
BRANCH   4   5
HETATM    5  C3  UNL     1       6.648 -11.376   4.224  1.00  0.00     0.102 C 
BRANCH   5   6
HETATM    6  C4  UNL     1       5.460 -10.448   4.488  1.00  0.00     0.133 C 
BRANCH   6   7
HETATM    7  N1  UNL     1       4.521 -10.413   3.386  1.00  0.00    -0.360 N 
HETATM    8  C5  UNL     1       3.223  -9.992   3.555  1.00  0.00     0.219 C 
HETATM    9  O2  UNL     1       2.761  -9.700   4.651  1.00  0.00    -0.274 OA
HETATM   10  H8  UNL     1       4.836 -10.701   2.470  1.00  0.00     0.162 HD
BRANCH   8  11
HETATM   11  C6  UNL     1       2.425  -9.980   2.268  1.00  0.00     0.122 C 
BRANCH  11  12
HETATM   12  C7  UNL     1       0.969  -9.579   2.503  1.00  0.00     0.132 C 
BRANCH  12  13
HETATM   13  N2  UNL     1       0.830  -8.254   3.069  1.00  0.00    -0.358 N 
HETATM   14  C8  UNL     1       0.951  -7.136   2.264  1.00  0.00     0.247 C 
HETATM   15  O3  UNL     1       1.292  -7.212   1.090  1.00  0.00    -0.271 OA
HETATM   16  H13 UNL     1       0.209  -8.184   3.873  1.00  0.00     0.162 HD
BRANCH  14  17
HETATM   17  C9  UNL     1       0.606  -5.806   2.952  1.00  0.00     0.219 C 
BRANCH  17  18
HETATM   18  C10 UNL     1      -0.835  -5.299   2.685  1.00  0.00     0.009 C 
HETATM   19  C11 UNL     1      -0.895  -3.771   2.550  1.00  0.00     0.020 C 
HETATM   20  C12 UNL     1      -1.421  -5.913   1.397  1.00  0.00     0.020 C 
BRANCH  18  21
HETATM   21  C13 UNL     1      -1.680  -5.748   3.911  1.00  0.00     0.192 C 
BRANCH  21  22
HETATM   22  O4  UNL     1      -2.125  -7.085   3.798  1.00  0.00    -0.296 OA
BRANCH  22  23
HETATM   23  P1  UNL     1      -2.547  -7.973   5.065  1.00  0.00     0.401 P 
HETATM   24  O5  UNL     1      -3.986  -8.383   5.072  1.00  0.00    -0.631 OA
BRANCH  23  25
HETATM   25  O6  UNL     1      -2.099  -7.154   6.376  1.00  0.00    -0.307 OA
HETATM   26  H23 UNL     1      -2.539  -7.478   7.173  1.00  0.00     0.222 HD
ENDBRANCH  23  25
BRANCH  23  27
HETATM   27  O7  UNL     1      -1.511  -9.180   5.084  1.00  0.00    -0.195 OA
BRANCH  27  28
HETATM   28  P2  UNL     1      -0.571  -9.367   6.356  1.00  0.00     0.401 P 
HETATM   29  O8  UNL     1      -1.245  -9.597   7.669  1.00  0.00    -0.631 OA
BRANCH  28  30
HETATM   30  O9  UNL     1       0.414 -10.544   5.914  1.00  0.00    -0.307 OA
HETATM   31  H24 UNL     1       1.048 -10.292   5.199  1.00  0.00     0.222 HD
ENDBRANCH  28  30
BRANCH  28  32
HETATM   32  O10 UNL     1       0.420  -8.116   6.291  1.00  0.00    -0.294 OA
BRANCH  32  33
HETATM   33  C14 UNL     1       1.078  -7.680   7.452  1.00  0.00     0.215 C 
BRANCH  33  34
HETATM   34  C15 UNL     1       2.571  -7.699   7.129  1.00  0.00     0.180 C 
HETATM   35  C16 UNL     1       3.374  -7.853   8.414  1.00  0.00     0.197 C 
HETATM   36  C17 UNL     1       4.201  -6.585   8.504  1.00  0.00     0.199 C 
HETATM   37  C18 UNL     1       4.303  -6.161   7.037  1.00  0.00     0.262 C 
HETATM   38  O11 UNL     1       3.017  -6.505   6.476  1.00  0.00    -0.353 OA
BRANCH  35  39
HETATM   39  O13 UNL     1       4.186  -9.016   8.290  1.00  0.00    -0.286 OA
BRANCH  39  40
HETATM   40  P3  UNL     1       3.572 -10.355   8.912  1.00  0.00     0.391 P 
HETATM   41  O14 UNL     1       4.598 -11.284   9.474  1.00  0.00    -0.632 OA
BRANCH  40  42
HETATM   42  O15 UNL     1       2.692 -10.879   7.683  1.00  0.00    -0.307 OA
HETATM   43  H36 UNL     1       2.309 -11.766   7.882  1.00  0.00     0.222 HD
ENDBRANCH  40  42
BRANCH  40  44
HETATM   44  O16 UNL     1       2.484  -9.767   9.912  1.00  0.00    -0.307 OA
HETATM   45  H37 UNL     1       1.854 -10.438  10.219  1.00  0.00     0.222 HD
ENDBRANCH  40  44
ENDBRANCH  39  40
ENDBRANCH  35  39
BRANCH  36  46
HETATM   46  O12 UNL     1       5.424  -6.838   9.201  1.00  0.00    -0.388 OA
HETATM   47  H35 UNL     1       5.171  -7.223  10.074  1.00  0.00     0.210 HD
ENDBRANCH  36  46
BRANCH  37  48
HETATM   48  N3  UNL     1       4.512  -4.735   6.883  1.00  0.00    -0.297 N 
HETATM   49  C19 UNL     1       5.173  -3.894   7.747  1.00  0.00     0.188 A 
HETATM   50  N4  UNL     1       5.301  -2.679   7.260  1.00  0.00    -0.346 N 
HETATM   51  C20 UNL     1       4.697  -2.736   6.016  1.00  0.00     0.116 A 
HETATM   52  H4  UNL     1       5.747  -1.874   7.700  1.00  0.00     0.167 HD
HETATM   53  C21 UNL     1       4.538  -1.790   4.989  1.00  0.00     0.109 A 
HETATM   54  C23 UNL     1       4.169  -3.994   5.787  1.00  0.00     0.142 A 
HETATM   55  N5  UNL     1       3.873  -2.156   3.866  1.00  0.00    -0.341 N 
HETATM   56  C22 UNL     1       3.392  -3.412   3.791  1.00  0.00     0.183 A 
HETATM   57  H5  UNL     1       3.742  -1.497   3.098  1.00  0.00     0.167 HD
HETATM   58  N6  UNL     1       3.489  -4.403   4.701  1.00  0.00    -0.336 N 
HETATM   59  H6  UNL     1       3.099  -5.338   4.582  1.00  0.00     0.168 HD
BRANCH  53  60
HETATM   60  N7  UNL     1       5.019  -0.492   5.068  1.00  0.00    -0.287 NA
HETATM   61  H33 UNL     1       5.431  -0.145   4.204  1.00  0.00     0.125 HD
HETATM   62  H34 UNL     1       5.530  -0.311   5.921  1.00  0.00     0.125 HD
ENDBRANCH  53  60
ENDBRANCH  37  48
ENDBRANCH  33  34
ENDBRANCH  32  33
ENDBRANCH  28  32
ENDBRANCH  27  28
ENDBRANCH  23  27
ENDBRANCH  22  23
ENDBRANCH  21  22
ENDBRANCH  18  21
ENDBRANCH  17  18
BRANCH  17  63
HETATM   63  O17 UNL     1       0.793  -5.921   4.367  1.00  0.00    -0.385 OA
HETATM   64  H38 UNL     1       0.683  -6.855   4.611  1.00  0.00     0.210 HD
ENDBRANCH  17  63
ENDBRANCH  14  17
ENDBRANCH  12  13
ENDBRANCH  11  12
ENDBRANCH   8  11
ENDBRANCH   6   7
ENDBRANCH   5   6
ENDBRANCH   4   5
ENDBRANCH   2   4
TORSDOF 27
ENDMDL
MODEL 15
REMARK VINA RESULT:      -5.1     17.312     20.907
REMARK  27 active torsions:
REMARK  status: ('A' for Active; 'I' for Inactive)
REMARK    1  A    between atoms: C2_2  and  S1_4 
REMARK    2  A    between atoms: S1_4  and  C3_5 
REMARK    3  A    between atoms: C3_5  and  C4_6 
REMARK    4  A    between atoms: C4_6  and  N1_7 
REMARK       I    between atoms: N1_7  and  C5_8 
REMARK    5  A    between atoms: C5_8  and  C6_10 
REMARK    6  A    between atoms: C6_10  and  C7_11 
REMARK    7  A    between atoms: C7_11  and  N2_12 
REMARK       I    between atoms: N2_12  and  C8_13 
REMARK    8  A    between atoms: C8_13  and  C9_15 
REMARK    9  A    between atoms: C9_15  and  C10_16 
REMARK   10  A    between atoms: C9_15  and  O17_54 
REMARK   11  A    between atoms: C10_16  and  C13_19 
REMARK   12  A    between atoms: C13_19  and  O4_20 
REMARK   13  A    between atoms: O4_20  and  P1_21 
REMARK   14  A    between atoms: P1_21  and  O6_23 
REMARK   15  A    between atoms: P1_21  and  O7_24 
REMARK   16  A    between atoms: O7_24  and  P2_25 
REMARK   17  A    between atoms: P2_25  and  O9_27 
REMARK   18  A    between atoms: P2_25  and  O10_28 
REMARK   19  A    between atoms: O10_28  and  C14_29 
REMARK   20  A    between atoms: C14_29  and  C15_30 
REMARK   21  A    between atoms: C16_31  and  O13_49 
REMARK   22  A    between atoms: C17_32  and  O12_48 
REMARK   23  A    between atoms: C18_33  and  N3_35 
REMARK   24  A    between atoms: C21_40  and  N7_47 
REMARK   25  A    between atoms: O13_49  and  P3_50 
REMARK   26  A    between atoms: P3_50  and  O15_52 
REMARK   27  A    between atoms: P3_50  and  O16_53 
ROOT
HETATM    1  C1  UNL     1       9.923   1.903  14.891  1.00  0.00     0.104 C 
HETATM    2  C2  UNL     1       8.613   1.181  14.803  1.00  0.00     0.182 C 
HETATM    3  O1  UNL     1       8.103   0.591  15.753  1.00  0.00    -0.286 OA
ENDROOT
BRANCH   2   4
HETATM    4  S1  UNL     1       7.874   1.212  13.208  1.00  0.00    -0.091 SA
BRANCH   4   5
HETATM    5  C3  UNL     1       7.089  -0.432  13.183  1.00  0.00     0.102 C 
BRANCH   5   6
HETATM    6  C4  UNL     1       5.697  -0.390  12.550  1.00  0.00     0.133 C 
BRANCH   6   7
HETATM    7  N1  UNL     1       5.742  -0.303  11.105  1.00  0.00    -0.360 N 
HETATM    8  C5  UNL     1       5.347   0.832  10.435  1.00  0.00     0.219 C 
HETATM    9  O2  UNL     1       4.861   1.801  11.008  1.00  0.00    -0.274 OA
HETATM   10  H8  UNL     1       6.081  -1.098  10.580  1.00  0.00     0.162 HD
BRANCH   8  11
HETATM   11  C6  UNL     1       5.526   0.735   8.936  1.00  0.00     0.122 C 
BRANCH  11  12
HETATM   12  C7  UNL     1       4.718  -0.416   8.338  1.00  0.00     0.132 C 
BRANCH  12  13
HETATM   13  N2  UNL     1       5.542  -1.400   7.668  1.00  0.00    -0.358 N 
HETATM   14  C8  UNL     1       5.777  -2.629   8.257  1.00  0.00     0.247 C 
HETATM   15  O3  UNL     1       5.407  -2.888   9.396  1.00  0.00    -0.271 OA
HETATM   16  H13 UNL     1       5.525  -1.367   6.651  1.00  0.00     0.162 HD
BRANCH  14  17
HETATM   17  C9  UNL     1       6.515  -3.640   7.367  1.00  0.00     0.219 C 
BRANCH  17  18
HETATM   18  C10 UNL     1       5.589  -4.634   6.618  1.00  0.00     0.009 C 
HETATM   19  C11 UNL     1       4.346  -3.942   6.039  1.00  0.00     0.020 C 
HETATM   20  C12 UNL     1       6.328  -5.332   5.459  1.00  0.00     0.020 C 
BRANCH  18  21
HETATM   21  C13 UNL     1       5.154  -5.690   7.674  1.00  0.00     0.192 C 
BRANCH  21  22
HETATM   22  O4  UNL     1       3.761  -5.675   7.909  1.00  0.00    -0.296 OA
BRANCH  22  23
HETATM   23  P1  UNL     1       3.041  -6.667   8.943  1.00  0.00     0.401 P 
HETATM   24  O5  UNL     1       1.875  -6.063   9.660  1.00  0.00    -0.631 OA
BRANCH  23  25
HETATM   25  O6  UNL     1       4.187  -7.228   9.924  1.00  0.00    -0.307 OA
HETATM   26  H23 UNL     1       4.308  -8.182   9.831  1.00  0.00     0.222 HD
ENDBRANCH  23  25
BRANCH  23  27
HETATM   27  O7  UNL     1       2.698  -7.967   8.093  1.00  0.00    -0.195 OA
BRANCH  27  28
HETATM   28  P2  UNL     1       3.169  -9.389   8.637  1.00  0.00     0.401 P 
HETATM   29  O8  UNL     1       4.641  -9.634   8.701  1.00  0.00    -0.631 OA
BRANCH  28  30
HETATM   30  O9  UNL     1       2.427  -9.508  10.045  1.00  0.00    -0.307 OA
HETATM   31  H24 UNL     1       1.483  -9.796   9.981  1.00  0.00     0.222 HD
ENDBRANCH  28  30
BRANCH  28  32
HETATM   32  O10 UNL     1       2.326 -10.432   7.771  1.00  0.00    -0.294 OA
BRANCH  32  33
HETATM   33  C14 UNL     1       2.984 -11.331   6.916  1.00  0.00     0.215 C 
BRANCH  33  34
HETATM   34  C15 UNL     1       2.419 -11.082   5.519  1.00  0.00     0.180 C 
HETATM   35  C16 UNL     1       3.373 -10.196   4.728  1.00  0.00     0.197 C 
HETATM   36  C17 UNL     1       2.573  -8.942   4.429  1.00  0.00     0.199 C 
HETATM   37  C18 UNL     1       1.133  -9.458   4.477  1.00  0.00     0.262 C 
HETATM   38  O11 UNL     1       1.140 -10.438   5.539  1.00  0.00    -0.353 OA
BRANCH  35  39
HETATM   39  O13 UNL     1       3.742 -10.892   3.542  1.00  0.00    -0.286 OA
BRANCH  39  40
HETATM   40  P3  UNL     1       5.311 -11.120   3.337  1.00  0.00     0.391 P 
HETATM   41  O14 UNL     1       6.033 -11.501   4.589  1.00  0.00    -0.632 OA
BRANCH  40  42
HETATM   42  O15 UNL     1       5.723  -9.744   2.633  1.00  0.00    -0.307 OA
HETATM   43  H36 UNL     1       6.377  -9.253   3.184  1.00  0.00     0.222 HD
ENDBRANCH  40  42
BRANCH  40  44
HETATM   44  O16 UNL     1       5.324 -12.160   2.135  1.00  0.00    -0.307 OA
HETATM   45  H37 UNL     1       5.663 -11.778   1.310  1.00  0.00     0.222 HD
ENDBRANCH  40  44
ENDBRANCH  39  40
ENDBRANCH  35  39
BRANCH  36  46
HETATM   46  O12 UNL     1       3.018  -8.350   3.206  1.00  0.00    -0.388 OA
HETATM   47  H35 UNL     1       2.651  -8.906   2.478  1.00  0.00     0.210 HD
ENDBRANCH  36  46
BRANCH  37  48
HETATM   48  N3  UNL     1       0.179  -8.419   4.809  1.00  0.00    -0.297 N 
HETATM   49  C19 UNL     1       0.443  -7.085   5.016  1.00  0.00     0.188 A 
HETATM   50  N4  UNL     1      -0.655  -6.379   5.175  1.00  0.00    -0.346 N 
HETATM   51  C20 UNL     1      -1.682  -7.299   5.059  1.00  0.00     0.116 A 
HETATM   52  H4  UNL     1      -0.733  -5.376   5.344  1.00  0.00     0.167 HD
HETATM   53  C21 UNL     1      -3.082  -7.174   5.090  1.00  0.00     0.109 A 
HETATM   54  C23 UNL     1      -1.177  -8.573   4.872  1.00  0.00     0.142 A 
HETATM   55  N5  UNL     1      -3.836  -8.292   4.955  1.00  0.00    -0.341 N 
HETATM   56  C22 UNL     1      -3.205  -9.473   4.803  1.00  0.00     0.183 A 
HETATM   57  H5  UNL     1      -4.855  -8.241   4.969  1.00  0.00     0.167 HD
HETATM   58  N6  UNL     1      -1.879  -9.714   4.749  1.00  0.00    -0.336 N 
HETATM   59  H6  UNL     1      -1.463 -10.638   4.631  1.00  0.00     0.168 HD
BRANCH  53  60
HETATM   60  N7  UNL     1      -3.735  -5.964   5.262  1.00  0.00    -0.287 NA
HETATM   61  H33 UNL     1      -3.323  -5.189   4.748  1.00  0.00     0.125 HD
HETATM   62  H34 UNL     1      -3.993  -5.788   6.223  1.00  0.00     0.125 HD
ENDBRANCH  53  60
ENDBRANCH  37  48
ENDBRANCH  33  34
ENDBRANCH  32  33
ENDBRANCH  28  32
ENDBRANCH  27  28
ENDBRANCH  23  27
ENDBRANCH  22  23
ENDBRANCH  21  22
ENDBRANCH  18  21
ENDBRANCH  17  18
BRANCH  17  63
HETATM   63  O17 UNL     1       7.318  -2.952   6.401  1.00  0.00    -0.385 OA
HETATM   64  H38 UNL     1       7.785  -2.231   6.856  1.00  0.00     0.210 HD
ENDBRANCH  17  63
ENDBRANCH  14  17
ENDBRANCH  12  13
ENDBRANCH  11  12
ENDBRANCH   8  11
ENDBRANCH   6   7
ENDBRANCH   5   6
ENDBRANCH   4   5
ENDBRANCH   2   4
TORSDOF 27
ENDMDL
MODEL 16
REMARK VINA RESULT:      -5.0     18.099     22.113
REMARK  27 active torsions:
REMARK  status: ('A' for Active; 'I' for Inactive)
REMARK    1  A    between atoms: C2_2  and  S1_4 
REMARK    2  A    between atoms: S1_4  and  C3_5 
REMARK    3  A    between atoms: C3_5  and  C4_6 
REMARK    4  A    between atoms: C4_6  and  N1_7 
REMARK       I    between atoms: N1_7  and  C5_8 
REMARK    5  A    between atoms: C5_8  and  C6_10 
REMARK    6  A    between atoms: C6_10  and  C7_11 
REMARK    7  A    between atoms: C7_11  and  N2_12 
REMARK       I    between atoms: N2_12  and  C8_13 
REMARK    8  A    between atoms: C8_13  and  C9_15 
REMARK    9  A    between atoms: C9_15  and  C10_16 
REMARK   10  A    between atoms: C9_15  and  O17_54 
REMARK   11  A    between atoms: C10_16  and  C13_19 
REMARK   12  A    between atoms: C13_19  and  O4_20 
REMARK   13  A    between atoms: O4_20  and  P1_21 
REMARK   14  A    between atoms: P1_21  and  O6_23 
REMARK   15  A    between atoms: P1_21  and  O7_24 
REMARK   16  A    between atoms: O7_24  and  P2_25 
REMARK   17  A    between atoms: P2_25  and  O9_27 
REMARK   18  A    between atoms: P2_25  and  O10_28 
REMARK   19  A    between atoms: O10_28  and  C14_29 
REMARK   20  A    between atoms: C14_29  and  C15_30 
REMARK   21  A    between atoms: C16_31  and  O13_49 
REMARK   22  A    between atoms: C17_32  and  O12_48 
REMARK   23  A    between atoms: C18_33  and  N3_35 
REMARK   24  A    between atoms: C21_40  and  N7_47 
REMARK   25  A    between atoms: O13_49  and  P3_50 
REMARK   26  A    between atoms: P3_50  and  O15_52 
REMARK   27  A    between atoms: P3_50  and  O16_53 
ROOT
HETATM    1  C1  UNL     1      12.669  -5.252   6.100  1.00  0.00     0.104 C 
HETATM    2  C2  UNL     1      11.763  -5.003   4.933  1.00  0.00     0.182 C 
HETATM    3  O1  UNL     1      12.005  -4.180   4.054  1.00  0.00    -0.286 OA
ENDROOT
BRANCH   2   4
HETATM    4  S1  UNL     1      10.290  -5.964   4.942  1.00  0.00    -0.091 SA
BRANCH   4   5
HETATM    5  C3  UNL     1      10.341  -6.618   6.642  1.00  0.00     0.102 C 
BRANCH   5   6
HETATM    6  C4  UNL     1       9.149  -6.138   7.473  1.00  0.00     0.133 C 
BRANCH   6   7
HETATM    7  N1  UNL     1       7.893  -6.234   6.758  1.00  0.00    -0.360 N 
HETATM    8  C5  UNL     1       6.757  -5.598   7.201  1.00  0.00     0.219 C 
HETATM    9  O2  UNL     1       6.716  -4.983   8.260  1.00  0.00    -0.274 OA
HETATM   10  H8  UNL     1       7.859  -6.779   5.906  1.00  0.00     0.162 HD
BRANCH   8  11
HETATM   11  C6  UNL     1       5.570  -5.781   6.280  1.00  0.00     0.122 C 
BRANCH  11  12
HETATM   12  C7  UNL     1       5.479  -7.209   5.743  1.00  0.00     0.132 C 
BRANCH  12  13
HETATM   13  N2  UNL     1       5.131  -8.177   6.762  1.00  0.00    -0.358 N 
HETATM   14  C8  UNL     1       6.039  -9.149   7.139  1.00  0.00     0.247 C 
HETATM   15  O3  UNL     1       7.106  -9.304   6.558  1.00  0.00    -0.271 OA
HETATM   16  H13 UNL     1       4.476  -7.851   7.470  1.00  0.00     0.162 HD
BRANCH  14  17
HETATM   17  C9  UNL     1       5.612  -9.995   8.347  1.00  0.00     0.219 C 
BRANCH  17  18
HETATM   18  C10 UNL     1       6.050  -9.422   9.721  1.00  0.00     0.009 C 
HETATM   19  C11 UNL     1       6.363 -10.531  10.736  1.00  0.00     0.020 C 
HETATM   20  C12 UNL     1       7.302  -8.532   9.588  1.00  0.00     0.020 C 
BRANCH  18  21
HETATM   21  C13 UNL     1       4.852  -8.570  10.230  1.00  0.00     0.192 C 
BRANCH  21  22
HETATM   22  O4  UNL     1       4.771  -7.316   9.584  1.00  0.00    -0.296 OA
BRANCH  22  23
HETATM   23  P1  UNL     1       3.460  -6.394   9.634  1.00  0.00     0.401 P 
HETATM   24  O5  UNL     1       3.730  -4.962   9.972  1.00  0.00    -0.631 OA
BRANCH  23  25
HETATM   25  O6  UNL     1       2.424  -7.113  10.634  1.00  0.00    -0.307 OA
HETATM   26  H23 UNL     1       1.903  -6.473  11.136  1.00  0.00     0.222 HD
ENDBRANCH  23  25
BRANCH  23  27
HETATM   27  O7  UNL     1       2.744  -6.623   8.231  1.00  0.00    -0.195 OA
BRANCH  27  28
HETATM   28  P2  UNL     1       1.515  -7.633   8.149  1.00  0.00     0.401 P 
HETATM   29  O8  UNL     1       1.725  -9.001   8.711  1.00  0.00    -0.631 OA
BRANCH  28  30
HETATM   30  O9  UNL     1       0.326  -6.821   8.840  1.00  0.00    -0.307 OA
HETATM   31  H24 UNL     1      -0.534  -7.307   8.862  1.00  0.00     0.222 HD
ENDBRANCH  28  30
BRANCH  28  32
HETATM   32  O10 UNL     1       1.064  -7.569   6.619  1.00  0.00    -0.294 OA
BRANCH  32  33
HETATM   33  C14 UNL     1      -0.284  -7.754   6.276  1.00  0.00     0.215 C 
BRANCH  33  34
HETATM   34  C15 UNL     1      -0.563  -6.802   5.114  1.00  0.00     0.180 C 
HETATM   35  C16 UNL     1      -0.914  -7.601   3.866  1.00  0.00     0.197 C 
HETATM   36  C17 UNL     1       0.177  -7.256   2.869  1.00  0.00     0.199 C 
HETATM   37  C18 UNL     1       0.635  -5.879   3.356  1.00  0.00     0.262 C 
HETATM   38  O11 UNL     1       0.555  -5.965   4.796  1.00  0.00    -0.353 OA
BRANCH  35  39
HETATM   39  O13 UNL     1      -2.200  -7.181   3.420  1.00  0.00    -0.286 OA
BRANCH  39  40
HETATM   40  P3  UNL     1      -3.384  -8.231   3.646  1.00  0.00     0.391 P 
HETATM   41  O14 UNL     1      -4.277  -8.396   2.459  1.00  0.00    -0.632 OA
BRANCH  40  42
HETATM   42  O15 UNL     1      -4.036  -7.662   4.991  1.00  0.00    -0.307 OA
HETATM   43  H36 UNL     1      -3.350  -7.550   5.691  1.00  0.00     0.222 HD
ENDBRANCH  40  42
BRANCH  40  44
HETATM   44  O16 UNL     1      -2.581  -9.509   4.146  1.00  0.00    -0.307 OA
HETATM   45  H37 UNL     1      -3.137 -10.136   4.634  1.00  0.00     0.222 HD
ENDBRANCH  40  44
ENDBRANCH  39  40
ENDBRANCH  35  39
BRANCH  36  46
HETATM   46  O12 UNL     1      -0.325  -7.347   1.533  1.00  0.00    -0.388 OA
HETATM   47  H35 UNL     1      -1.174  -6.843   1.520  1.00  0.00     0.210 HD
ENDBRANCH  36  46
BRANCH  37  48
HETATM   48  N3  UNL     1       2.004  -5.585   2.982  1.00  0.00    -0.297 N 
HETATM   49  C19 UNL     1       2.739  -6.177   1.982  1.00  0.00     0.188 A 
HETATM   50  N4  UNL     1       3.907  -5.599   1.811  1.00  0.00    -0.346 N 
HETATM   51  C20 UNL     1       3.930  -4.577   2.744  1.00  0.00     0.116 A 
HETATM   52  H4  UNL     1       4.635  -5.847   1.141  1.00  0.00     0.167 HD
HETATM   53  C21 UNL     1       4.872  -3.577   3.039  1.00  0.00     0.109 A 
HETATM   54  C23 UNL     1       2.773  -4.582   3.503  1.00  0.00     0.142 A 
HETATM   55  N5  UNL     1       4.603  -2.707   4.043  1.00  0.00    -0.341 N 
HETATM   56  C22 UNL     1       3.443  -2.847   4.714  1.00  0.00     0.183 A 
HETATM   57  H5  UNL     1       5.261  -1.966   4.284  1.00  0.00     0.167 HD
HETATM   58  N6  UNL     1       2.465  -3.754   4.517  1.00  0.00    -0.336 N 
HETATM   59  H6  UNL     1       1.605  -3.807   5.064  1.00  0.00     0.168 HD
BRANCH  53  60
HETATM   60  N7  UNL     1       6.074  -3.438   2.362  1.00  0.00    -0.287 NA
HETATM   61  H33 UNL     1       6.014  -3.619   1.363  1.00  0.00     0.125 HD
HETATM   62  H34 UNL     1       6.854  -3.851   2.854  1.00  0.00     0.125 HD
ENDBRANCH  53  60
ENDBRANCH  37  48
ENDBRANCH  33  34
ENDBRANCH  32  33
ENDBRANCH  28  32
ENDBRANCH  27  28
ENDBRANCH  23  27
ENDBRANCH  22  23
ENDBRANCH  21  22
ENDBRANCH  18  21
ENDBRANCH  17  18
BRANCH  17  63
HETATM   63  O17 UNL     1       4.190 -10.159   8.356  1.00  0.00    -0.385 OA
HETATM   64  H38 UNL     1       3.975 -10.894   8.955  1.00  0.00     0.210 HD
ENDBRANCH  17  63
ENDBRANCH  14  17
ENDBRANCH  12  13
ENDBRANCH  11  12
ENDBRANCH   8  11
ENDBRANCH   6   7
ENDBRANCH   5   6
ENDBRANCH   4   5
ENDBRANCH   2   4
TORSDOF 27
ENDMDL
MODEL 17
REMARK VINA RESULT:      -5.0     14.260     18.259
REMARK  27 active torsions:
REMARK  status: ('A' for Active; 'I' for Inactive)
REMARK    1  A    between atoms: C2_2  and  S1_4 
REMARK    2  A    between atoms: S1_4  and  C3_5 
REMARK    3  A    between atoms: C3_5  and  C4_6 
REMARK    4  A    between atoms: C4_6  and  N1_7 
REMARK       I    between atoms: N1_7  and  C5_8 
REMARK    5  A    between atoms: C5_8  and  C6_10 
REMARK    6  A    between atoms: C6_10  and  C7_11 
REMARK    7  A    between atoms: C7_11  and  N2_12 
REMARK       I    between atoms: N2_12  and  C8_13 
REMARK    8  A    between atoms: C8_13  and  C9_15 
REMARK    9  A    between atoms: C9_15  and  C10_16 
REMARK   10  A    between atoms: C9_15  and  O17_54 
REMARK   11  A    between atoms: C10_16  and  C13_19 
REMARK   12  A    between atoms: C13_19  and  O4_20 
REMARK   13  A    between atoms: O4_20  and  P1_21 
REMARK   14  A    between atoms: P1_21  and  O6_23 
REMARK   15  A    between atoms: P1_21  and  O7_24 
REMARK   16  A    between atoms: O7_24  and  P2_25 
REMARK   17  A    between atoms: P2_25  and  O9_27 
REMARK   18  A    between atoms: P2_25  and  O10_28 
REMARK   19  A    between atoms: O10_28  and  C14_29 
REMARK   20  A    between atoms: C14_29  and  C15_30 
REMARK   21  A    between atoms: C16_31  and  O13_49 
REMARK   22  A    between atoms: C17_32  and  O12_48 
REMARK   23  A    between atoms: C18_33  and  N3_35 
REMARK   24  A    between atoms: C21_40  and  N7_47 
REMARK   25  A    between atoms: O13_49  and  P3_50 
REMARK   26  A    between atoms: P3_50  and  O15_52 
REMARK   27  A    between atoms: P3_50  and  O16_53 
ROOT
HETATM    1  C1  UNL     1       9.719   6.129   1.715  1.00  0.00     0.104 C 
HETATM    2  C2  UNL     1       8.227   6.016   1.633  1.00  0.00     0.182 C 
HETATM    3  O1  UNL     1       7.645   5.415   0.733  1.00  0.00    -0.286 OA
ENDROOT
BRANCH   2   4
HETATM    4  S1  UNL     1       7.365   6.854   2.916  1.00  0.00    -0.091 SA
BRANCH   4   5
HETATM    5  C3  UNL     1       5.645   6.478   2.449  1.00  0.00     0.102 C 
BRANCH   5   6
HETATM    6  C4  UNL     1       5.033   5.402   3.349  1.00  0.00     0.133 C 
BRANCH   6   7
HETATM    7  N1  UNL     1       4.007   5.925   4.228  1.00  0.00    -0.360 N 
HETATM    8  C5  UNL     1       4.296   6.355   5.502  1.00  0.00     0.219 C 
HETATM    9  O2  UNL     1       5.412   6.250   5.997  1.00  0.00    -0.274 OA
HETATM   10  H8  UNL     1       3.056   5.979   3.888  1.00  0.00     0.162 HD
BRANCH   8  11
HETATM   11  C6  UNL     1       3.095   6.915   6.232  1.00  0.00     0.122 C 
BRANCH  11  12
HETATM   12  C7  UNL     1       3.181   6.677   7.739  1.00  0.00     0.132 C 
BRANCH  12  13
HETATM   13  N2  UNL     1       3.803   7.773   8.452  1.00  0.00    -0.358 N 
HETATM   14  C8  UNL     1       4.963   7.563   9.175  1.00  0.00     0.247 C 
HETATM   15  O3  UNL     1       5.437   6.446   9.339  1.00  0.00    -0.271 OA
HETATM   16  H13 UNL     1       3.670   8.694   8.042  1.00  0.00     0.162 HD
BRANCH  14  17
HETATM   17  C9  UNL     1       5.613   8.838   9.733  1.00  0.00     0.219 C 
BRANCH  17  18
HETATM   18  C10 UNL     1       5.378   9.069  11.250  1.00  0.00     0.009 C 
HETATM   19  C11 UNL     1       4.883  10.491  11.548  1.00  0.00     0.020 C 
HETATM   20  C12 UNL     1       4.345   8.076  11.819  1.00  0.00     0.020 C 
BRANCH  18  21
HETATM   21  C13 UNL     1       6.757   8.841  11.934  1.00  0.00     0.192 C 
BRANCH  21  22
HETATM   22  O4  UNL     1       6.836   7.586  12.580  1.00  0.00    -0.296 OA
BRANCH  22  23
HETATM   23  P1  UNL     1       7.990   6.518  12.269  1.00  0.00     0.401 P 
HETATM   24  O5  UNL     1       9.294   6.812  12.941  1.00  0.00    -0.631 OA
BRANCH  23  25
HETATM   25  O6  UNL     1       8.097   6.403  10.667  1.00  0.00    -0.307 OA
HETATM   26  H23 UNL     1       7.828   5.531  10.348  1.00  0.00     0.222 HD
ENDBRANCH  23  25
BRANCH  23  27
HETATM   27  O7  UNL     1       7.355   5.107  12.638  1.00  0.00    -0.195 OA
BRANCH  27  28
HETATM   28  P2  UNL     1       8.283   3.812  12.607  1.00  0.00     0.401 P 
HETATM   29  O8  UNL     1       9.180   3.652  11.423  1.00  0.00    -0.631 OA
BRANCH  28  30
HETATM   30  O9  UNL     1       9.053   3.880  14.004  1.00  0.00    -0.307 OA
HETATM   31  H24 UNL     1       8.809   3.159  14.634  1.00  0.00     0.222 HD
ENDBRANCH  28  30
BRANCH  28  32
HETATM   32  O10 UNL     1       7.273   2.607  12.886  1.00  0.00    -0.294 OA
BRANCH  32  33
HETATM   33  C14 UNL     1       7.761   1.374  13.346  1.00  0.00     0.215 C 
BRANCH  33  34
HETATM   34  C15 UNL     1       6.728   0.326  12.937  1.00  0.00     0.180 C 
HETATM   35  C16 UNL     1       7.432  -0.891  12.351  1.00  0.00     0.197 C 
HETATM   36  C17 UNL     1       6.936  -0.970  10.920  1.00  0.00     0.199 C 
HETATM   37  C18 UNL     1       5.583  -0.259  11.007  1.00  0.00     0.262 C 
HETATM   38  O11 UNL     1       5.801   0.808  11.957  1.00  0.00    -0.353 OA
BRANCH  35  39
HETATM   39  O13 UNL     1       7.051  -2.031  13.115  1.00  0.00    -0.286 OA
BRANCH  39  40
HETATM   40  P3  UNL     1       8.255  -2.852  13.773  1.00  0.00     0.391 P 
HETATM   41  O14 UNL     1       7.831  -3.752  14.889  1.00  0.00    -0.632 OA
BRANCH  40  42
HETATM   42  O15 UNL     1       9.271  -1.667  14.122  1.00  0.00    -0.307 OA
HETATM   43  H36 UNL     1       9.186  -1.403  15.069  1.00  0.00     0.222 HD
ENDBRANCH  40  42
BRANCH  40  44
HETATM   44  O16 UNL     1       8.913  -3.527  12.493  1.00  0.00    -0.307 OA
HETATM   45  H37 UNL     1       8.407  -4.287  12.165  1.00  0.00     0.222 HD
ENDBRANCH  40  44
ENDBRANCH  39  40
ENDBRANCH  35  39
BRANCH  36  46
HETATM   46  O12 UNL     1       6.937  -2.327  10.469  1.00  0.00    -0.388 OA
HETATM   47  H35 UNL     1       6.941  -2.292   9.482  1.00  0.00     0.210 HD
ENDBRANCH  36  46
BRANCH  37  48
HETATM   48  N3  UNL     1       5.175   0.319   9.742  1.00  0.00    -0.297 N 
HETATM   49  C19 UNL     1       4.202  -0.148   8.890  1.00  0.00     0.188 A 
HETATM   50  N4  UNL     1       3.983   0.672   7.886  1.00  0.00    -0.346 N 
HETATM   51  C20 UNL     1       4.854   1.725   8.100  1.00  0.00     0.116 A 
HETATM   52  H4  UNL     1       3.319   0.557   7.120  1.00  0.00     0.167 HD
HETATM   53  C21 UNL     1       5.078   2.931   7.412  1.00  0.00     0.109 A 
HETATM   54  C23 UNL     1       5.626   1.501   9.225  1.00  0.00     0.142 A 
HETATM   55  N5  UNL     1       6.033   3.774   7.876  1.00  0.00    -0.341 N 
HETATM   56  C22 UNL     1       6.726   3.412   8.973  1.00  0.00     0.183 A 
HETATM   57  H5  UNL     1       6.222   4.660   7.405  1.00  0.00     0.167 HD
HETATM   58  N6  UNL     1       6.595   2.294   9.716  1.00  0.00    -0.336 N 
HETATM   59  H6  UNL     1       7.155   2.079  10.541  1.00  0.00     0.168 HD
BRANCH  53  60
HETATM   60  N7  UNL     1       4.379   3.301   6.275  1.00  0.00    -0.287 NA
HETATM   61  H33 UNL     1       4.897   3.909   5.644  1.00  0.00     0.125 HD
HETATM   62  H34 UNL     1       3.419   3.555   6.467  1.00  0.00     0.125 HD
ENDBRANCH  53  60
ENDBRANCH  37  48
ENDBRANCH  33  34
ENDBRANCH  32  33
ENDBRANCH  28  32
ENDBRANCH  27  28
ENDBRANCH  23  27
ENDBRANCH  22  23
ENDBRANCH  21  22
ENDBRANCH  18  21
ENDBRANCH  17  18
BRANCH  17  63
HETATM   63  O17 UNL     1       7.024   8.820   9.490  1.00  0.00    -0.385 OA
HETATM   64  H38 UNL     1       7.217   9.461   8.786  1.00  0.00     0.210 HD
ENDBRANCH  17  63
ENDBRANCH  14  17
ENDBRANCH  12  13
ENDBRANCH  11  12
ENDBRANCH   8  11
ENDBRANCH   6   7
ENDBRANCH   5   6
ENDBRANCH   4   5
ENDBRANCH   2   4
TORSDOF 27
ENDMDL
MODEL 18
REMARK VINA RESULT:      -5.0     16.869     21.302
REMARK  27 active torsions:
REMARK  status: ('A' for Active; 'I' for Inactive)
REMARK    1  A    between atoms: C2_2  and  S1_4 
REMARK    2  A    between atoms: S1_4  and  C3_5 
REMARK    3  A    between atoms: C3_5  and  C4_6 
REMARK    4  A    between atoms: C4_6  and  N1_7 
REMARK       I    between atoms: N1_7  and  C5_8 
REMARK    5  A    between atoms: C5_8  and  C6_10 
REMARK    6  A    between atoms: C6_10  and  C7_11 
REMARK    7  A    between atoms: C7_11  and  N2_12 
REMARK       I    between atoms: N2_12  and  C8_13 
REMARK    8  A    between atoms: C8_13  and  C9_15 
REMARK    9  A    between atoms: C9_15  and  C10_16 
REMARK   10  A    between atoms: C9_15  and  O17_54 
REMARK   11  A    between atoms: C10_16  and  C13_19 
REMARK   12  A    between atoms: C13_19  and  O4_20 
REMARK   13  A    between atoms: O4_20  and  P1_21 
REMARK   14  A    between atoms: P1_21  and  O6_23 
REMARK   15  A    between atoms: P1_21  and  O7_24 
REMARK   16  A    between atoms: O7_24  and  P2_25 
REMARK   17  A    between atoms: P2_25  and  O9_27 
REMARK   18  A    between atoms: P2_25  and  O10_28 
REMARK   19  A    between atoms: O10_28  and  C14_29 
REMARK   20  A    between atoms: C14_29  and  C15_30 
REMARK   21  A    between atoms: C16_31  and  O13_49 
REMARK   22  A    between atoms: C17_32  and  O12_48 
REMARK   23  A    between atoms: C18_33  and  N3_35 
REMARK   24  A    between atoms: C21_40  and  N7_47 
REMARK   25  A    between atoms: O13_49  and  P3_50 
REMARK   26  A    between atoms: P3_50  and  O15_52 
REMARK   27  A    between atoms: P3_50  and  O16_53 
ROOT
HETATM    1  C1  UNL     1      12.554   6.434  14.800  1.00  0.00     0.104 C 
HETATM    2  C2  UNL     1      12.662   5.225  15.679  1.00  0.00     0.182 C 
HETATM    3  O1  UNL     1      13.654   4.972  16.359  1.00  0.00    -0.286 OA
ENDROOT
BRANCH   2   4
HETATM    4  S1  UNL     1      11.259   4.166  15.631  1.00  0.00    -0.091 SA
BRANCH   4   5
HETATM    5  C3  UNL     1      12.024   2.592  16.139  1.00  0.00     0.102 C 
BRANCH   5   6
HETATM    6  C4  UNL     1      11.547   1.422  15.277  1.00  0.00     0.133 C 
BRANCH   6   7
HETATM    7  N1  UNL     1      10.857   0.406  16.045  1.00  0.00    -0.360 N 
HETATM    8  C5  UNL     1       9.488   0.281  16.014  1.00  0.00     0.219 C 
HETATM    9  O2  UNL     1       8.767   1.063  15.405  1.00  0.00    -0.274 OA
HETATM   10  H8  UNL     1      11.403  -0.229  16.611  1.00  0.00     0.162 HD
BRANCH   8  11
HETATM   11  C6  UNL     1       8.973  -0.877  16.842  1.00  0.00     0.122 C 
BRANCH  11  12
HETATM   12  C7  UNL     1       9.046  -2.200  16.080  1.00  0.00     0.132 C 
BRANCH  12  13
HETATM   13  N2  UNL     1       8.746  -2.061  14.671  1.00  0.00    -0.358 N 
HETATM   14  C8  UNL     1       7.615  -2.650  14.137  1.00  0.00     0.247 C 
HETATM   15  O3  UNL     1       6.899  -3.397  14.792  1.00  0.00    -0.271 OA
HETATM   16  H13 UNL     1       9.071  -1.199  14.237  1.00  0.00     0.162 HD
BRANCH  14  17
HETATM   17  C9  UNL     1       7.322  -2.278  12.676  1.00  0.00     0.219 C 
BRANCH  17  18
HETATM   18  C10 UNL     1       6.206  -1.216  12.494  1.00  0.00     0.009 C 
HETATM   19  C11 UNL     1       5.008  -1.472  13.420  1.00  0.00     0.020 C 
HETATM   20  C12 UNL     1       6.729   0.207  12.776  1.00  0.00     0.020 C 
BRANCH  18  21
HETATM   21  C13 UNL     1       5.752  -1.324  11.010  1.00  0.00     0.192 C 
BRANCH  21  22
HETATM   22  O4  UNL     1       5.407  -0.068  10.460  1.00  0.00    -0.296 OA
BRANCH  22  23
HETATM   23  P1  UNL     1       4.966   0.120   8.930  1.00  0.00     0.401 P 
HETATM   24  O5  UNL     1       3.667   0.842   8.752  1.00  0.00    -0.631 OA
BRANCH  23  25
HETATM   25  O6  UNL     1       4.994  -1.340   8.254  1.00  0.00    -0.307 OA
HETATM   26  H23 UNL     1       5.095  -2.041   8.911  1.00  0.00     0.222 HD
ENDBRANCH  23  25
BRANCH  23  27
HETATM   27  O7  UNL     1       6.213   0.812   8.225  1.00  0.00    -0.195 OA
BRANCH  27  28
HETATM   28  P2  UNL     1       6.501   2.353   8.508  1.00  0.00     0.401 P 
HETATM   29  O8  UNL     1       6.179   3.314   7.411  1.00  0.00    -0.631 OA
BRANCH  28  30
HETATM   30  O9  UNL     1       5.712   2.629   9.868  1.00  0.00    -0.307 OA
HETATM   31  H24 UNL     1       5.649   3.585  10.111  1.00  0.00     0.222 HD
ENDBRANCH  28  30
BRANCH  28  32
HETATM   32  O10 UNL     1       8.009   2.374   9.034  1.00  0.00    -0.294 OA
BRANCH  32  33
HETATM   33  C14 UNL     1       8.843   3.460   8.730  1.00  0.00     0.215 C 
BRANCH  33  34
HETATM   34  C15 UNL     1       9.488   3.885  10.049  1.00  0.00     0.180 C 
HETATM   35  C16 UNL     1       9.244   2.819  11.108  1.00  0.00     0.197 C 
HETATM   36  C17 UNL     1       8.427   3.519  12.178  1.00  0.00     0.199 C 
HETATM   37  C18 UNL     1       8.824   4.984  11.980  1.00  0.00     0.262 C 
HETATM   38  O11 UNL     1       8.971   5.123  10.550  1.00  0.00    -0.353 OA
BRANCH  35  39
HETATM   39  O13 UNL     1      10.510   2.386  11.597  1.00  0.00    -0.286 OA
BRANCH  39  40
HETATM   40  P3  UNL     1      10.811   0.824  11.441  1.00  0.00     0.391 P 
HETATM   41  O14 UNL     1      12.247   0.512  11.166  1.00  0.00    -0.632 OA
BRANCH  40  42
HETATM   42  O15 UNL     1       9.739   0.423  10.323  1.00  0.00    -0.307 OA
HETATM   43  H36 UNL     1       8.974   1.046  10.334  1.00  0.00     0.222 HD
ENDBRANCH  40  42
BRANCH  40  44
HETATM   44  O16 UNL     1      10.174   0.244  12.777  1.00  0.00    -0.307 OA
HETATM   45  H37 UNL     1       9.856  -0.667  12.679  1.00  0.00     0.222 HD
ENDBRANCH  40  44
ENDBRANCH  39  40
ENDBRANCH  35  39
BRANCH  36  46
HETATM   46  O12 UNL     1       8.683   2.936  13.458  1.00  0.00    -0.388 OA
HETATM   47  H35 UNL     1       8.218   3.502  14.119  1.00  0.00     0.210 HD
ENDBRANCH  36  46
BRANCH  37  48
HETATM   48  N3  UNL     1       7.801   5.904  12.436  1.00  0.00    -0.297 N 
HETATM   49  C19 UNL     1       7.726   6.521  13.663  1.00  0.00     0.188 A 
HETATM   50  N4  UNL     1       6.746   7.396  13.721  1.00  0.00    -0.346 N 
HETATM   51  C20 UNL     1       6.160   7.348  12.468  1.00  0.00     0.116 A 
HETATM   52  H4  UNL     1       6.477   7.981  14.512  1.00  0.00     0.167 HD
HETATM   53  C21 UNL     1       5.102   8.064  11.883  1.00  0.00     0.109 A 
HETATM   54  C23 UNL     1       6.780   6.399  11.675  1.00  0.00     0.142 A 
HETATM   55  N5  UNL     1       4.748   7.773  10.607  1.00  0.00    -0.341 N 
HETATM   56  C22 UNL     1       5.428   6.804   9.962  1.00  0.00     0.183 A 
HETATM   57  H5  UNL     1       3.987   8.273  10.148  1.00  0.00     0.167 HD
HETATM   58  N6  UNL     1       6.459   6.061  10.413  1.00  0.00    -0.336 N 
HETATM   59  H6  UNL     1       6.932   5.338   9.871  1.00  0.00     0.168 HD
BRANCH  53  60
HETATM   60  N7  UNL     1       4.390   9.051  12.546  1.00  0.00    -0.287 NA
HETATM   61  H33 UNL     1       3.725   9.552  11.962  1.00  0.00     0.125 HD
HETATM   62  H34 UNL     1       4.968   9.609  13.161  1.00  0.00     0.125 HD
ENDBRANCH  53  60
ENDBRANCH  37  48
ENDBRANCH  33  34
ENDBRANCH  32  33
ENDBRANCH  28  32
ENDBRANCH  27  28
ENDBRANCH  23  27
ENDBRANCH  22  23
ENDBRANCH  21  22
ENDBRANCH  18  21
ENDBRANCH  17  18
BRANCH  17  63
HETATM   63  O17 UNL     1       8.513  -1.799  12.042  1.00  0.00    -0.385 OA
HETATM   64  H38 UNL     1       9.196  -2.486  12.123  1.00  0.00     0.210 HD
ENDBRANCH  17  63
ENDBRANCH  14  17
ENDBRANCH  12  13
ENDBRANCH  11  12
ENDBRANCH   8  11
ENDBRANCH   6   7
ENDBRANCH   5   6
ENDBRANCH   4   5
ENDBRANCH   2   4
TORSDOF 27
ENDMDL
MODEL 19
REMARK VINA RESULT:      -4.9     17.658     20.527
REMARK  27 active torsions:
REMARK  status: ('A' for Active; 'I' for Inactive)
REMARK    1  A    between atoms: C2_2  and  S1_4 
REMARK    2  A    between atoms: S1_4  and  C3_5 
REMARK    3  A    between atoms: C3_5  and  C4_6 
REMARK    4  A    between atoms: C4_6  and  N1_7 
REMARK       I    between atoms: N1_7  and  C5_8 
REMARK    5  A    between atoms: C5_8  and  C6_10 
REMARK    6  A    between atoms: C6_10  and  C7_11 
REMARK    7  A    between atoms: C7_11  and  N2_12 
REMARK       I    between atoms: N2_12  and  C8_13 
REMARK    8  A    between atoms: C8_13  and  C9_15 
REMARK    9  A    between atoms: C9_15  and  C10_16 
REMARK   10  A    between atoms: C9_15  and  O17_54 
REMARK   11  A    between atoms: C10_16  and  C13_19 
REMARK   12  A    between atoms: C13_19  and  O4_20 
REMARK   13  A    between atoms: O4_20  and  P1_21 
REMARK   14  A    between atoms: P1_21  and  O6_23 
REMARK   15  A    between atoms: P1_21  and  O7_24 
REMARK   16  A    between atoms: O7_24  and  P2_25 
REMARK   17  A    between atoms: P2_25  and  O9_27 
REMARK   18  A    between atoms: P2_25  and  O10_28 
REMARK   19  A    between atoms: O10_28  and  C14_29 
REMARK   20  A    between atoms: C14_29  and  C15_30 
REMARK   21  A    between atoms: C16_31  and  O13_49 
REMARK   22  A    between atoms: C17_32  and  O12_48 
REMARK   23  A    between atoms: C18_33  and  N3_35 
REMARK   24  A    between atoms: C21_40  and  N7_47 
REMARK   25  A    between atoms: O13_49  and  P3_50 
REMARK   26  A    between atoms: P3_50  and  O15_52 
REMARK   27  A    between atoms: P3_50  and  O16_53 
ROOT
HETATM    1  C1  UNL     1      12.326  -4.277  -5.440  1.00  0.00     0.104 C 
HETATM    2  C2  UNL     1      10.961  -3.851  -4.993  1.00  0.00     0.182 C 
HETATM    3  O1  UNL     1      10.045  -4.641  -4.778  1.00  0.00    -0.286 OA
ENDROOT
BRANCH   2   4
HETATM    4  S1  UNL     1      10.759  -2.112  -4.836  1.00  0.00    -0.091 SA
BRANCH   4   5
HETATM    5  C3  UNL     1      11.607  -1.830  -3.248  1.00  0.00     0.102 C 
BRANCH   5   6
HETATM    6  C4  UNL     1      10.892  -2.525  -2.088  1.00  0.00     0.133 C 
BRANCH   6   7
HETATM    7  N1  UNL     1       9.948  -1.659  -1.413  1.00  0.00    -0.360 N 
HETATM    8  C5  UNL     1       8.589  -1.816  -1.558  1.00  0.00     0.219 C 
HETATM    9  O2  UNL     1       8.097  -2.637  -2.323  1.00  0.00    -0.274 OA
HETATM   10  H8  UNL     1      10.303  -0.925  -0.815  1.00  0.00     0.162 HD
BRANCH   8  11
HETATM   11  C6  UNL     1       7.781  -0.844  -0.725  1.00  0.00     0.122 C 
BRANCH  11  12
HETATM   12  C7  UNL     1       6.658  -1.544   0.039  1.00  0.00     0.132 C 
BRANCH  12  13
HETATM   13  N2  UNL     1       7.036  -2.852   0.532  1.00  0.00    -0.358 N 
HETATM   14  C8  UNL     1       6.161  -3.917   0.424  1.00  0.00     0.247 C 
HETATM   15  O3  UNL     1       5.011  -3.778   0.026  1.00  0.00    -0.271 OA
HETATM   16  H13 UNL     1       8.031  -3.062   0.498  1.00  0.00     0.162 HD
BRANCH  14  17
HETATM   17  C9  UNL     1       6.751  -5.278   0.821  1.00  0.00     0.219 C 
BRANCH  17  18
HETATM   18  C10 UNL     1       6.264  -5.814   2.193  1.00  0.00     0.009 C 
HETATM   19  C11 UNL     1       4.938  -6.580   2.077  1.00  0.00     0.020 C 
HETATM   20  C12 UNL     1       7.303  -6.758   2.832  1.00  0.00     0.020 C 
BRANCH  18  21
HETATM   21  C13 UNL     1       6.067  -4.562   3.095  1.00  0.00     0.192 C 
BRANCH  21  22
HETATM   22  O4  UNL     1       4.872  -4.623   3.847  1.00  0.00    -0.296 OA
BRANCH  22  23
HETATM   23  P1  UNL     1       4.117  -3.317   4.390  1.00  0.00     0.401 P 
HETATM   24  O5  UNL     1       4.326  -2.096   3.550  1.00  0.00    -0.631 OA
BRANCH  23  25
HETATM   25  O6  UNL     1       4.558  -3.131   5.927  1.00  0.00    -0.307 OA
HETATM   26  H23 UNL     1       5.518  -3.137   6.032  1.00  0.00     0.222 HD
ENDBRANCH  23  25
BRANCH  23  27
HETATM   27  O7  UNL     1       2.598  -3.758   4.555  1.00  0.00    -0.195 OA
BRANCH  27  28
HETATM   28  P2  UNL     1       1.757  -4.125   3.252  1.00  0.00     0.401 P 
HETATM   29  O8  UNL     1       0.412  -3.491   3.114  1.00  0.00    -0.631 OA
BRANCH  28  30
HETATM   30  O9  UNL     1       2.763  -3.786   2.059  1.00  0.00    -0.307 OA
HETATM   31  H24 UNL     1       3.717  -3.826   2.312  1.00  0.00     0.222 HD
ENDBRANCH  28  30
BRANCH  28  32
HETATM   32  O10 UNL     1       1.783  -5.722   3.213  1.00  0.00    -0.294 OA
BRANCH  32  33
HETATM   33  C14 UNL     1       1.141  -6.409   2.171  1.00  0.00     0.215 C 
BRANCH  33  34
HETATM   34  C15 UNL     1       0.214  -7.424   2.837  1.00  0.00     0.180 C 
HETATM   35  C16 UNL     1      -1.135  -6.778   3.127  1.00  0.00     0.197 C 
HETATM   36  C17 UNL     1      -1.268  -6.828   4.637  1.00  0.00     0.199 C 
HETATM   37  C18 UNL     1      -0.374  -8.015   5.001  1.00  0.00     0.262 C 
HETATM   38  O11 UNL     1       0.731  -7.926   4.075  1.00  0.00    -0.353 OA
BRANCH  35  39
HETATM   39  O13 UNL     1      -2.141  -7.544   2.473  1.00  0.00    -0.286 OA
BRANCH  39  40
HETATM   40  P3  UNL     1      -2.343  -7.233   0.918  1.00  0.00     0.391 P 
HETATM   41  O14 UNL     1      -1.360  -7.927   0.032  1.00  0.00    -0.632 OA
BRANCH  40  42
HETATM   42  O15 UNL     1      -2.329  -5.633   0.929  1.00  0.00    -0.307 OA
HETATM   43  H36 UNL     1      -3.145  -5.280   1.357  1.00  0.00     0.222 HD
ENDBRANCH  40  42
BRANCH  40  44
HETATM   44  O16 UNL     1      -3.882  -7.580   0.725  1.00  0.00    -0.307 OA
HETATM   45  H37 UNL     1      -4.071  -8.526   0.832  1.00  0.00     0.222 HD
ENDBRANCH  40  44
ENDBRANCH  39  40
ENDBRANCH  35  39
BRANCH  36  46
HETATM   46  O12 UNL     1      -2.647  -6.906   5.011  1.00  0.00    -0.388 OA
HETATM   47  H35 UNL     1      -2.683  -6.723   5.980  1.00  0.00     0.210 HD
ENDBRANCH  36  46
BRANCH  37  48
HETATM   48  N3  UNL     1       0.143  -7.929   6.352  1.00  0.00    -0.297 N 
HETATM   49  C19 UNL     1      -0.451  -8.396   7.501  1.00  0.00     0.188 A 
HETATM   50  N4  UNL     1       0.331  -8.277   8.552  1.00  0.00    -0.346 N 
HETATM   51  C20 UNL     1       1.492  -7.708   8.059  1.00  0.00     0.116 A 
HETATM   52  H4  UNL     1       0.127  -8.544   9.515  1.00  0.00     0.167 HD
HETATM   53  C21 UNL     1       2.716  -7.368   8.660  1.00  0.00     0.109 A 
HETATM   54  C23 UNL     1       1.375  -7.451   6.705  1.00  0.00     0.142 A 
HETATM   55  N5  UNL     1       3.681  -6.803   7.894  1.00  0.00    -0.341 N 
HETATM   56  C22 UNL     1       3.416  -6.589   6.590  1.00  0.00     0.183 A 
HETATM   57  H5  UNL     1       4.583  -6.546   8.295  1.00  0.00     0.167 HD
HETATM   58  N6  UNL     1       2.292  -6.879   5.905  1.00  0.00    -0.336 N 
HETATM   59  H6  UNL     1       2.154  -6.690   4.912  1.00  0.00     0.168 HD
BRANCH  53  60
HETATM   60  N7  UNL     1       2.988  -7.572  10.004  1.00  0.00    -0.287 NA
HETATM   61  H33 UNL     1       2.300  -7.170  10.636  1.00  0.00     0.125 HD
HETATM   62  H34 UNL     1       3.961  -7.426  10.237  1.00  0.00     0.125 HD
ENDBRANCH  53  60
ENDBRANCH  37  48
ENDBRANCH  33  34
ENDBRANCH  32  33
ENDBRANCH  28  32
ENDBRANCH  27  28
ENDBRANCH  23  27
ENDBRANCH  22  23
ENDBRANCH  21  22
ENDBRANCH  18  21
ENDBRANCH  17  18
BRANCH  17  63
HETATM   63  O17 UNL     1       6.452  -6.256  -0.181  1.00  0.00    -0.385 OA
HETATM   64  H38 UNL     1       6.322  -7.112   0.261  1.00  0.00     0.210 HD
ENDBRANCH  17  63
ENDBRANCH  14  17
ENDBRANCH  12  13
ENDBRANCH  11  12
ENDBRANCH   8  11
ENDBRANCH   6   7
ENDBRANCH   5   6
ENDBRANCH   4   5
ENDBRANCH   2   4
TORSDOF 27
ENDMDL
MODEL 20
REMARK VINA RESULT:      -4.8     13.930     17.883
REMARK  27 active torsions:
REMARK  status: ('A' for Active; 'I' for Inactive)
REMARK    1  A    between atoms: C2_2  and  S1_4 
REMARK    2  A    between atoms: S1_4  and  C3_5 
REMARK    3  A    between atoms: C3_5  and  C4_6 
REMARK    4  A    between atoms: C4_6  and  N1_7 
REMARK       I    between atoms: N1_7  and  C5_8 
REMARK    5  A    between atoms: C5_8  and  C6_10 
REMARK    6  A    between atoms: C6_10  and  C7_11 
REMARK    7  A    between atoms: C7_11  and  N2_12 
REMARK       I    between atoms: N2_12  and  C8_13 
REMARK    8  A    between atoms: C8_13  and  C9_15 
REMARK    9  A    between atoms: C9_15  and  C10_16 
REMARK   10  A    between atoms: C9_15  and  O17_54 
REMARK   11  A    between atoms: C10_16  and  C13_19 
REMARK   12  A    between atoms: C13_19  and  O4_20 
REMARK   13  A    between atoms: O4_20  and  P1_21 
REMARK   14  A    between atoms: P1_21  and  O6_23 
REMARK   15  A    between atoms: P1_21  and  O7_24 
REMARK   16  A    between atoms: O7_24  and  P2_25 
REMARK   17  A    between atoms: P2_25  and  O9_27 
REMARK   18  A    between atoms: P2_25  and  O10_28 
REMARK   19  A    between atoms: O10_28  and  C14_29 
REMARK   20  A    between atoms: C14_29  and  C15_30 
REMARK   21  A    between atoms: C16_31  and  O13_49 
REMARK   22  A    between atoms: C17_32  and  O12_48 
REMARK   23  A    between atoms: C18_33  and  N3_35 
REMARK   24  A    between atoms: C21_40  and  N7_47 
REMARK   25  A    between atoms: O13_49  and  P3_50 
REMARK   26  A    between atoms: P3_50  and  O15_52 
REMARK   27  A    between atoms: P3_50  and  O16_53 
ROOT
HETATM    1  C1  UNL     1      13.256   8.168  15.486  1.00  0.00     0.104 C 
HETATM    2  C2  UNL     1      12.003   8.963  15.279  1.00  0.00     0.182 C 
HETATM    3  O1  UNL     1      11.573   9.770  16.100  1.00  0.00    -0.286 OA
ENDROOT
BRANCH   2   4
HETATM    4  S1  UNL     1      11.165   8.618  13.772  1.00  0.00    -0.091 SA
BRANCH   4   5
HETATM    5  C3  UNL     1      10.458   6.985  14.161  1.00  0.00     0.102 C 
BRANCH   5   6
HETATM    6  C4  UNL     1      10.509   6.041  12.958  1.00  0.00     0.133 C 
BRANCH   6   7
HETATM    7  N1  UNL     1       9.239   5.945  12.268  1.00  0.00    -0.360 N 
HETATM    8  C5  UNL     1       9.060   5.102  11.196  1.00  0.00     0.219 C 
HETATM    9  O2  UNL     1       9.975   4.447  10.711  1.00  0.00    -0.274 OA
HETATM   10  H8  UNL     1       8.465   6.509  12.592  1.00  0.00     0.162 HD
BRANCH   8  11
HETATM   11  C6  UNL     1       7.646   5.112  10.656  1.00  0.00     0.122 C 
BRANCH  11  12
HETATM   12  C7  UNL     1       6.609   4.951  11.767  1.00  0.00     0.132 C 
BRANCH  12  13
HETATM   13  N2  UNL     1       5.541   5.926  11.693  1.00  0.00    -0.358 N 
HETATM   14  C8  UNL     1       5.697   7.174  12.267  1.00  0.00     0.247 C 
HETATM   15  O3  UNL     1       6.672   7.461  12.950  1.00  0.00    -0.271 OA
HETATM   16  H13 UNL     1       4.947   5.863  10.869  1.00  0.00     0.162 HD
BRANCH  14  17
HETATM   17  C9  UNL     1       4.565   8.168  11.964  1.00  0.00     0.219 C 
BRANCH  17  18
HETATM   18  C10 UNL     1       4.778   9.011  10.679  1.00  0.00     0.009 C 
HETATM   19  C11 UNL     1       4.368  10.478  10.875  1.00  0.00     0.020 C 
HETATM   20  C12 UNL     1       6.251   8.986  10.223  1.00  0.00     0.020 C 
BRANCH  18  21
HETATM   21  C13 UNL     1       3.880   8.359   9.588  1.00  0.00     0.192 C 
BRANCH  21  22
HETATM   22  O4  UNL     1       4.324   7.068   9.226  1.00  0.00    -0.296 OA
BRANCH  22  23
HETATM   23  P1  UNL     1       4.660   6.655   7.713  1.00  0.00     0.401 P 
HETATM   24  O5  UNL     1       5.429   7.689   6.953  1.00  0.00    -0.631 OA
BRANCH  23  25
HETATM   25  O6  UNL     1       3.266   6.244   7.022  1.00  0.00    -0.307 OA
HETATM   26  H23 UNL     1       2.664   5.818   7.647  1.00  0.00     0.222 HD
ENDBRANCH  23  25
BRANCH  23  27
HETATM   27  O7  UNL     1       5.379   5.240   7.824  1.00  0.00    -0.195 OA
BRANCH  27  28
HETATM   28  P2  UNL     1       5.521   4.344   6.514  1.00  0.00     0.401 P 
HETATM   29  O8  UNL     1       6.617   3.329   6.504  1.00  0.00    -0.631 OA
BRANCH  28  30
HETATM   30  O9  UNL     1       4.060   3.726   6.333  1.00  0.00    -0.307 OA
HETATM   31  H24 UNL     1       3.570   3.593   7.181  1.00  0.00     0.222 HD
ENDBRANCH  28  30
BRANCH  28  32
HETATM   32  O10 UNL     1       5.541   5.405   5.321  1.00  0.00    -0.294 OA
BRANCH  32  33
HETATM   33  C14 UNL     1       6.659   5.492   4.477  1.00  0.00     0.215 C 
BRANCH  33  34
HETATM   34  C15 UNL     1       6.130   5.341   3.051  1.00  0.00     0.180 C 
HETATM   35  C16 UNL     1       4.625   5.571   3.032  1.00  0.00     0.197 C 
HETATM   36  C17 UNL     1       4.041   4.253   2.560  1.00  0.00     0.199 C 
HETATM   37  C18 UNL     1       5.200   3.654   1.760  1.00  0.00     0.262 C 
HETATM   38  O11 UNL     1       6.380   4.044   2.496  1.00  0.00    -0.353 OA
BRANCH  35  39
HETATM   39  O13 UNL     1       4.353   6.635   2.126  1.00  0.00    -0.286 OA
BRANCH  39  40
HETATM   40  P3  UNL     1       4.223   8.086   2.786  1.00  0.00     0.391 P 
HETATM   41  O14 UNL     1       5.435   8.941   2.603  1.00  0.00    -0.632 OA
BRANCH  40  42
HETATM   42  O15 UNL     1       3.808   7.699   4.281  1.00  0.00    -0.307 OA
HETATM   43  H36 UNL     1       2.828   7.732   4.391  1.00  0.00     0.222 HD
ENDBRANCH  40  42
BRANCH  40  44
HETATM   44  O16 UNL     1       2.858   8.599   2.152  1.00  0.00    -0.307 OA
HETATM   45  H37 UNL     1       2.473   7.967   1.525  1.00  0.00     0.222 HD
ENDBRANCH  40  44
ENDBRANCH  39  40
ENDBRANCH  35  39
BRANCH  36  46
HETATM   46  O12 UNL     1       2.811   4.477   1.866  1.00  0.00    -0.388 OA
HETATM   47  H35 UNL     1       2.164   4.792   2.541  1.00  0.00     0.210 HD
ENDBRANCH  36  46
BRANCH  37  48
HETATM   48  N3  UNL     1       5.145   2.207   1.699  1.00  0.00    -0.297 N 
HETATM   49  C19 UNL     1       5.085   1.425   0.570  1.00  0.00     0.188 A 
HETATM   50  N4  UNL     1       5.175   0.142   0.847  1.00  0.00    -0.346 N 
HETATM   51  C20 UNL     1       5.305   0.091   2.224  1.00  0.00     0.116 A 
HETATM   52  H4  UNL     1       5.154  -0.640   0.194  1.00  0.00     0.167 HD
HETATM   53  C21 UNL     1       5.484  -0.973   3.125  1.00  0.00     0.109 A 
HETATM   54  C23 UNL     1       5.249   1.361   2.768  1.00  0.00     0.142 A 
HETATM   55  N5  UNL     1       5.569  -0.694   4.449  1.00  0.00    -0.341 N 
HETATM   56  C22 UNL     1       5.473   0.593   4.838  1.00  0.00     0.183 A 
HETATM   57  H5  UNL     1       5.702  -1.439   5.133  1.00  0.00     0.167 HD
HETATM   58  N6  UNL     1       5.312   1.690   4.070  1.00  0.00    -0.336 N 
HETATM   59  H6  UNL     1       5.246   2.643   4.430  1.00  0.00     0.168 HD
BRANCH  53  60
HETATM   60  N7  UNL     1       5.568  -2.299   2.732  1.00  0.00    -0.287 NA
HETATM   61  H33 UNL     1       5.254  -2.965   3.435  1.00  0.00     0.125 HD
HETATM   62  H34 UNL     1       6.432  -2.515   2.254  1.00  0.00     0.125 HD
ENDBRANCH  53  60
ENDBRANCH  37  48
ENDBRANCH  33  34
ENDBRANCH  32  33
ENDBRANCH  28  32
ENDBRANCH  27  28
ENDBRANCH  23  27
ENDBRANCH  22  23
ENDBRANCH  21  22
ENDBRANCH  18  21
ENDBRANCH  17  18
BRANCH  17  63
HETATM   63  O17 UNL     1       3.318   7.475  11.852  1.00  0.00    -0.385 OA
HETATM   64  H38 UNL     1       2.602   8.124  11.956  1.00  0.00     0.210 HD
ENDBRANCH  17  63
ENDBRANCH  14  17
ENDBRANCH  12  13
ENDBRANCH  11  12
ENDBRANCH   8  11
ENDBRANCH   6   7
ENDBRANCH   5   6
ENDBRANCH   4   5
ENDBRANCH   2   4
TORSDOF 27
ENDMDL
