MODEL 1
REMARK VINA RESULT:      -4.9      0.000      0.000
REMARK  2 active torsions:
REMARK  status: ('A' for Active; 'I' for Inactive)
REMARK    1  A    between atoms: C3_3  and  O1_8 
REMARK    2  A    between atoms: C6_6  and  N1_7 
ROOT
HETATM    1  C1  UNL     1       3.959   0.943 -10.659  1.00  0.00     0.026 A 
HETATM    2  C2  UNL     1       4.831   1.949 -10.235  1.00  0.00     0.038 A 
HETATM    3  C3  UNL     1       5.733   2.500 -11.133  1.00  0.00     0.065 A 
HETATM    4  C4  UNL     1       5.767   2.073 -12.455  1.00  0.00     0.038 A 
HETATM    5  C5  UNL     1       4.892   1.065 -12.872  1.00  0.00     0.026 A 
HETATM    6  C6  UNL     1       4.016   0.456 -11.968  1.00  0.00     0.005 A 
ENDROOT
BRANCH   6   7
HETATM    7  N1  UNL     1       3.065  -0.465 -12.420  1.00  0.00    -0.303 NA
HETATM    8  H5  UNL     1       2.526  -0.138 -13.216  1.00  0.00     0.124 HD
HETATM    9  H6  UNL     1       2.477  -0.842 -11.685  1.00  0.00     0.124 HD
ENDBRANCH   6   7
BRANCH   3  10
HETATM   10  O1  UNL     1       6.565   3.481 -10.681  1.00  0.00    -0.361 OA
HETATM   11  H7  UNL     1       6.458   4.263 -11.246  1.00  0.00     0.217 HD
ENDBRANCH   3  10
TORSDOF 2
ENDMDL
MODEL 2
REMARK VINA RESULT:      -4.8      2.778      3.263
REMARK  2 active torsions:
REMARK  status: ('A' for Active; 'I' for Inactive)
REMARK    1  A    between atoms: C3_3  and  O1_8 
REMARK    2  A    between atoms: C6_6  and  N1_7 
ROOT
HETATM    1  C1  UNL     1       4.889   1.829 -10.259  1.00  0.00     0.026 A 
HETATM    2  C2  UNL     1       3.961   0.866 -10.659  1.00  0.00     0.038 A 
HETATM    3  C3  UNL     1       3.934   0.444 -11.980  1.00  0.00     0.065 A 
HETATM    4  C4  UNL     1       4.833   0.960 -12.907  1.00  0.00     0.038 A 
HETATM    5  C5  UNL     1       5.759   1.925 -12.499  1.00  0.00     0.026 A 
HETATM    6  C6  UNL     1       5.763   2.406 -11.186  1.00  0.00     0.005 A 
ENDROOT
BRANCH   6   7
HETATM    7  N1  UNL     1       6.767   3.282 -10.759  1.00  0.00    -0.303 NA
HETATM    8  H5  UNL     1       6.484   4.257 -10.758  1.00  0.00     0.124 HD
HETATM    9  H6  UNL     1       7.659   3.139 -11.220  1.00  0.00     0.124 HD
ENDBRANCH   6   7
BRANCH   3  10
HETATM   10  O1  UNL     1       3.015  -0.500 -12.330  1.00  0.00    -0.361 OA
HETATM   11  H7  UNL     1       3.466  -1.201 -12.829  1.00  0.00     0.217 HD
ENDBRANCH   3  10
TORSDOF 2
ENDMDL
MODEL 3
REMARK VINA RESULT:      -4.5      2.508      3.095
REMARK  2 active torsions:
REMARK  status: ('A' for Active; 'I' for Inactive)
REMARK    1  A    between atoms: C3_3  and  O1_8 
REMARK    2  A    between atoms: C6_6  and  N1_7 
ROOT
HETATM    1  C1  UNL     1       6.524   3.405 -11.708  1.00  0.00     0.026 A 
HETATM    2  C2  UNL     1       6.038   2.694 -10.609  1.00  0.00     0.038 A 
HETATM    3  C3  UNL     1       5.270   1.556 -10.812  1.00  0.00     0.065 A 
HETATM    4  C4  UNL     1       4.994   1.108 -12.099  1.00  0.00     0.038 A 
HETATM    5  C5  UNL     1       5.483   1.825 -13.194  1.00  0.00     0.026 A 
HETATM    6  C6  UNL     1       6.209   3.007 -13.011  1.00  0.00     0.005 A 
ENDROOT
BRANCH   6   7
HETATM    7  N1  UNL     1       6.794   3.652 -14.107  1.00  0.00    -0.303 NA
HETATM    8  H5  UNL     1       7.800   3.765 -14.024  1.00  0.00     0.124 HD
HETATM    9  H6  UNL     1       6.329   4.513 -14.373  1.00  0.00     0.124 HD
ENDBRANCH   6   7
BRANCH   3  10
HETATM   10  O1  UNL     1       4.817   0.888  -9.714  1.00  0.00    -0.361 OA
HETATM   11  H7  UNL     1       4.466   1.535  -9.081  1.00  0.00     0.217 HD
ENDBRANCH   3  10
TORSDOF 2
ENDMDL
MODEL 4
REMARK VINA RESULT:      -4.5      1.967      2.502
REMARK  2 active torsions:
REMARK  status: ('A' for Active; 'I' for Inactive)
REMARK    1  A    between atoms: C3_3  and  O1_8 
REMARK    2  A    between atoms: C6_6  and  N1_7 
ROOT
HETATM    1  C1  UNL     1       6.079   2.761 -10.671  1.00  0.00     0.026 A 
HETATM    2  C2  UNL     1       6.544   3.427 -11.806  1.00  0.00     0.038 A 
HETATM    3  C3  UNL     1       6.229   2.940 -13.067  1.00  0.00     0.065 A 
HETATM    4  C4  UNL     1       5.441   1.804 -13.211  1.00  0.00     0.038 A 
HETATM    5  C5  UNL     1       4.980   1.141 -12.069  1.00  0.00     0.026 A 
HETATM    6  C6  UNL     1       5.335   1.583 -10.791  1.00  0.00     0.005 A 
ENDROOT
BRANCH   6   7
HETATM    7  N1  UNL     1       4.772   0.985  -9.657  1.00  0.00    -0.303 NA
HETATM    8  H5  UNL     1       4.864  -0.026  -9.641  1.00  0.00     0.124 HD
HETATM    9  H6  UNL     1       3.825   1.290  -9.460  1.00  0.00     0.124 HD
ENDBRANCH   6   7
BRANCH   3  10
HETATM   10  O1  UNL     1       6.700   3.620 -14.150  1.00  0.00    -0.361 OA
HETATM   11  H7  UNL     1       6.976   2.978 -14.823  1.00  0.00     0.217 HD
ENDBRANCH   3  10
TORSDOF 2
ENDMDL
MODEL 5
REMARK VINA RESULT:      -4.2      3.087      3.785
REMARK  2 active torsions:
REMARK  status: ('A' for Active; 'I' for Inactive)
REMARK    1  A    between atoms: C3_3  and  O1_8 
REMARK    2  A    between atoms: C6_6  and  N1_7 
ROOT
HETATM    1  C1  UNL     1       6.479   3.294 -11.412  1.00  0.00     0.026 A 
HETATM    2  C2  UNL     1       7.455   3.787 -10.544  1.00  0.00     0.038 A 
HETATM    3  C3  UNL     1       8.564   4.444 -11.059  1.00  0.00     0.065 A 
HETATM    4  C4  UNL     1       8.703   4.631 -12.429  1.00  0.00     0.038 A 
HETATM    5  C5  UNL     1       7.722   4.133 -13.292  1.00  0.00     0.026 A 
HETATM    6  C6  UNL     1       6.628   3.417 -12.797  1.00  0.00     0.005 A 
ENDROOT
BRANCH   6   7
HETATM    7  N1  UNL     1       5.594   3.028 -13.656  1.00  0.00    -0.303 NA
HETATM    8  H5  UNL     1       4.782   3.637 -13.619  1.00  0.00     0.124 HD
HETATM    9  H6  UNL     1       5.345   2.047 -13.580  1.00  0.00     0.124 HD
ENDBRANCH   6   7
BRANCH   3  10
HETATM   10  O1  UNL     1       9.493   4.913 -10.179  1.00  0.00    -0.361 OA
HETATM   11  H7  UNL     1      10.375   4.670 -10.501  1.00  0.00     0.217 HD
ENDBRANCH   3  10
TORSDOF 2
ENDMDL
MODEL 6
REMARK VINA RESULT:      -4.2      3.957      5.038
REMARK  2 active torsions:
REMARK  status: ('A' for Active; 'I' for Inactive)
REMARK    1  A    between atoms: C3_3  and  O1_8 
REMARK    2  A    between atoms: C6_6  and  N1_7 
ROOT
HETATM    1  C1  UNL     1       8.553   4.549 -12.519  1.00  0.00     0.026 A 
HETATM    2  C2  UNL     1       7.567   4.097 -13.398  1.00  0.00     0.038 A 
HETATM    3  C3  UNL     1       6.459   3.424 -12.903  1.00  0.00     0.065 A 
HETATM    4  C4  UNL     1       6.314   3.209 -11.537  1.00  0.00     0.038 A 
HETATM    5  C5  UNL     1       7.307   3.662 -10.662  1.00  0.00     0.026 A 
HETATM    6  C6  UNL     1       8.458   4.291 -11.148  1.00  0.00     0.005 A 
ENDROOT
BRANCH   6   7
HETATM    7  N1  UNL     1       9.386   4.846 -10.259  1.00  0.00    -0.303 NA
HETATM    8  H5  UNL     1      10.030   5.498 -10.696  1.00  0.00     0.124 HD
HETATM    9  H6  UNL     1       9.862   4.161  -9.682  1.00  0.00     0.124 HD
ENDBRANCH   6   7
BRANCH   3  10
HETATM   10  O1  UNL     1       5.518   3.002 -13.793  1.00  0.00    -0.361 OA
HETATM   11  H7  UNL     1       5.806   3.244 -14.687  1.00  0.00     0.217 HD
ENDBRANCH   3  10
TORSDOF 2
ENDMDL
MODEL 7
REMARK VINA RESULT:      -4.2      3.967      4.780
REMARK  2 active torsions:
REMARK  status: ('A' for Active; 'I' for Inactive)
REMARK    1  A    between atoms: C3_3  and  O1_8 
REMARK    2  A    between atoms: C6_6  and  N1_7 
ROOT
HETATM    1  C1  UNL     1       7.304   3.674 -10.645  1.00  0.00     0.026 A 
HETATM    2  C2  UNL     1       6.343   3.228 -11.555  1.00  0.00     0.038 A 
HETATM    3  C3  UNL     1       6.525   3.451 -12.913  1.00  0.00     0.065 A 
HETATM    4  C4  UNL     1       7.663   4.101 -13.377  1.00  0.00     0.038 A 
HETATM    5  C5  UNL     1       8.620   4.547 -12.460  1.00  0.00     0.026 A 
HETATM    6  C6  UNL     1       8.426   4.383 -11.084  1.00  0.00     0.005 A 
ENDROOT
BRANCH   6   7
HETATM    7  N1  UNL     1       9.442   4.724 -10.184  1.00  0.00    -0.303 NA
HETATM    8  H5  UNL     1       9.325   5.642  -9.766  1.00  0.00     0.124 HD
HETATM    9  H6  UNL     1      10.378   4.581 -10.548  1.00  0.00     0.124 HD
ENDBRANCH   6   7
BRANCH   3  10
HETATM   10  O1  UNL     1       5.567   2.998 -13.769  1.00  0.00    -0.361 OA
HETATM   11  H7  UNL     1       5.100   3.762 -14.144  1.00  0.00     0.217 HD
ENDBRANCH   3  10
TORSDOF 2
ENDMDL
MODEL 8
REMARK VINA RESULT:      -4.2      3.962      5.025
REMARK  2 active torsions:
REMARK  status: ('A' for Active; 'I' for Inactive)
REMARK    1  A    between atoms: C3_3  and  O1_8 
REMARK    2  A    between atoms: C6_6  and  N1_7 
ROOT
HETATM    1  C1  UNL     1       7.602   4.122 -13.263  1.00  0.00     0.026 A 
HETATM    2  C2  UNL     1       6.597   3.362 -12.661  1.00  0.00     0.038 A 
HETATM    3  C3  UNL     1       6.556   3.248 -11.278  1.00  0.00     0.065 A 
HETATM    4  C4  UNL     1       7.496   3.897 -10.486  1.00  0.00     0.038 A 
HETATM    5  C5  UNL     1       8.500   4.655 -11.096  1.00  0.00     0.026 A 
HETATM    6  C6  UNL     1       8.593   4.734 -12.489  1.00  0.00     0.005 A 
ENDROOT
BRANCH   6   7
HETATM    7  N1  UNL     1       9.526   5.589 -13.086  1.00  0.00    -0.303 NA
HETATM    8  H5  UNL     1      10.420   5.148 -13.279  1.00  0.00     0.124 HD
HETATM    9  H6  UNL     1       9.630   6.480 -12.611  1.00  0.00     0.124 HD
ENDBRANCH   6   7
BRANCH   3  10
HETATM   10  O1  UNL     1       5.558   2.499 -10.729  1.00  0.00    -0.361 OA
HETATM   11  H7  UNL     1       5.346   2.862  -9.854  1.00  0.00     0.217 HD
ENDBRANCH   3  10
TORSDOF 2
ENDMDL
MODEL 9
REMARK VINA RESULT:      -4.1      3.901      4.925
REMARK  2 active torsions:
REMARK  status: ('A' for Active; 'I' for Inactive)
REMARK    1  A    between atoms: C3_3  and  O1_8 
REMARK    2  A    between atoms: C6_6  and  N1_7 
ROOT
HETATM    1  C1  UNL     1       7.910   4.295 -14.170  1.00  0.00     0.026 A 
HETATM    2  C2  UNL     1       9.119   4.859 -13.755  1.00  0.00     0.038 A 
HETATM    3  C3  UNL     1       9.435   4.892 -12.404  1.00  0.00     0.065 A 
HETATM    4  C4  UNL     1       8.566   4.354 -11.461  1.00  0.00     0.038 A 
HETATM    5  C5  UNL     1       7.358   3.792 -11.884  1.00  0.00     0.026 A 
HETATM    6  C6  UNL     1       6.996   3.802 -13.234  1.00  0.00     0.005 A 
ENDROOT
BRANCH   6   7
HETATM    7  N1  UNL     1       5.843   3.132 -13.660  1.00  0.00    -0.303 NA
HETATM    8  H5  UNL     1       5.958   2.126 -13.730  1.00  0.00     0.124 HD
HETATM    9  H6  UNL     1       5.420   3.531 -14.491  1.00  0.00     0.124 HD
ENDBRANCH   6   7
BRANCH   3  10
HETATM   10  O1  UNL     1      10.624   5.449 -12.040  1.00  0.00    -0.361 OA
HETATM   11  H7  UNL     1      11.161   4.771 -11.600  1.00  0.00     0.217 HD
ENDBRANCH   3  10
TORSDOF 2
ENDMDL
MODEL 10
REMARK VINA RESULT:      -4.1      6.614      7.560
REMARK  2 active torsions:
REMARK  status: ('A' for Active; 'I' for Inactive)
REMARK    1  A    between atoms: C3_3  and  O1_8 
REMARK    2  A    between atoms: C6_6  and  N1_7 
ROOT
HETATM    1  C1  UNL     1      10.275   5.506 -14.071  1.00  0.00     0.026 A 
HETATM    2  C2  UNL     1       9.078   4.848 -13.780  1.00  0.00     0.038 A 
HETATM    3  C3  UNL     1       8.074   4.791 -14.736  1.00  0.00     0.065 A 
HETATM    4  C4  UNL     1       8.255   5.369 -15.988  1.00  0.00     0.038 A 
HETATM    5  C5  UNL     1       9.455   6.027 -16.272  1.00  0.00     0.026 A 
HETATM    6  C6  UNL     1      10.455   6.146 -15.301  1.00  0.00     0.005 A 
ENDROOT
BRANCH   6   7
HETATM    7  N1  UNL     1      11.696   6.701 -15.632  1.00  0.00    -0.303 NA
HETATM    8  H5  UNL     1      12.459   6.373 -15.048  1.00  0.00     0.124 HD
HETATM    9  H6  UNL     1      11.684   7.712 -15.719  1.00  0.00     0.124 HD
ENDBRANCH   6   7
BRANCH   3  10
HETATM   10  O1  UNL     1       6.922   4.138 -14.415  1.00  0.00    -0.361 OA
HETATM   11  H7  UNL     1       6.953   3.248 -14.801  1.00  0.00     0.217 HD
ENDBRANCH   3  10
TORSDOF 2
ENDMDL
MODEL 11
REMARK VINA RESULT:      -4.0      6.055      6.923
REMARK  2 active torsions:
REMARK  status: ('A' for Active; 'I' for Inactive)
REMARK    1  A    between atoms: C3_3  and  O1_8 
REMARK    2  A    between atoms: C6_6  and  N1_7 
ROOT
HETATM    1  C1  UNL     1       9.126   4.817 -13.732  1.00  0.00     0.026 A 
HETATM    2  C2  UNL     1      10.300   5.511 -14.036  1.00  0.00     0.038 A 
HETATM    3  C3  UNL     1      10.443   6.107 -15.280  1.00  0.00     0.065 A 
HETATM    4  C4  UNL     1       9.423   6.034 -16.222  1.00  0.00     0.038 A 
HETATM    5  C5  UNL     1       8.252   5.336 -15.911  1.00  0.00     0.026 A 
HETATM    6  C6  UNL     1       8.113   4.679 -14.684  1.00  0.00     0.005 A 
ENDROOT
BRANCH   6   7
HETATM    7  N1  UNL     1       6.893   4.086 -14.337  1.00  0.00    -0.303 NA
HETATM    8  H5  UNL     1       6.464   4.491 -13.510  1.00  0.00     0.124 HD
HETATM    9  H6  UNL     1       6.926   3.073 -14.299  1.00  0.00     0.124 HD
ENDBRANCH   6   7
BRANCH   3  10
HETATM   10  O1  UNL     1      11.601   6.777 -15.538  1.00  0.00    -0.361 OA
HETATM   11  H7  UNL     1      11.445   7.396 -16.269  1.00  0.00     0.217 HD
ENDBRANCH   3  10
TORSDOF 2
ENDMDL
MODEL 12
REMARK VINA RESULT:      -4.0      6.284      7.256
REMARK  2 active torsions:
REMARK  status: ('A' for Active; 'I' for Inactive)
REMARK    1  A    between atoms: C3_3  and  O1_8 
REMARK    2  A    between atoms: C6_6  and  N1_7 
ROOT
HETATM    1  C1  UNL     1       8.318   5.453 -15.801  1.00  0.00     0.026 A 
HETATM    2  C2  UNL     1       8.037   4.599 -14.733  1.00  0.00     0.038 A 
HETATM    3  C3  UNL     1       8.941   4.486 -13.686  1.00  0.00     0.065 A 
HETATM    4  C4  UNL     1      10.117   5.228 -13.684  1.00  0.00     0.038 A 
HETATM    5  C5  UNL     1      10.393   6.079 -14.757  1.00  0.00     0.026 A 
HETATM    6  C6  UNL     1       9.522   6.162 -15.849  1.00  0.00     0.005 A 
ENDROOT
BRANCH   6   7
HETATM    7  N1  UNL     1       9.747   7.104 -16.860  1.00  0.00    -0.303 NA
HETATM    8  H5  UNL     1       9.032   7.106 -17.581  1.00  0.00     0.124 HD
HETATM    9  H6  UNL     1      10.685   7.076 -17.245  1.00  0.00     0.124 HD
ENDBRANCH   6   7
BRANCH   3  10
HETATM   10  O1  UNL     1       8.629   3.644 -12.661  1.00  0.00    -0.361 OA
HETATM   11  H7  UNL     1       9.442   3.207 -12.361  1.00  0.00     0.217 HD
ENDBRANCH   3  10
TORSDOF 2
ENDMDL
MODEL 13
REMARK VINA RESULT:      -3.9      5.924      7.010
REMARK  2 active torsions:
REMARK  status: ('A' for Active; 'I' for Inactive)
REMARK    1  A    between atoms: C3_3  and  O1_8 
REMARK    2  A    between atoms: C6_6  and  N1_7 
ROOT
HETATM    1  C1  UNL     1      10.271   5.716 -14.373  1.00  0.00     0.026 A 
HETATM    2  C2  UNL     1       9.369   5.604 -15.432  1.00  0.00     0.038 A 
HETATM    3  C3  UNL     1       8.144   4.983 -15.230  1.00  0.00     0.065 A 
HETATM    4  C4  UNL     1       7.801   4.485 -13.978  1.00  0.00     0.038 A 
HETATM    5  C5  UNL     1       8.711   4.600 -12.922  1.00  0.00     0.026 A 
HETATM    6  C6  UNL     1       9.972   5.170 -13.121  1.00  0.00     0.005 A 
ENDROOT
BRANCH   6   7
HETATM    7  N1  UNL     1      10.827   5.388 -12.034  1.00  0.00    -0.303 NA
HETATM    8  H5  UNL     1      10.380   5.258 -11.131  1.00  0.00     0.124 HD
HETATM    9  H6  UNL     1      11.344   6.258 -12.087  1.00  0.00     0.124 HD
ENDBRANCH   6   7
BRANCH   3  10
HETATM   10  O1  UNL     1       7.290   4.896 -16.288  1.00  0.00    -0.361 OA
HETATM   11  H7  UNL     1       7.634   5.446 -17.010  1.00  0.00     0.217 HD
ENDBRANCH   3  10
TORSDOF 2
ENDMDL
MODEL 14
REMARK VINA RESULT:      -3.8      3.871      4.753
REMARK  2 active torsions:
REMARK  status: ('A' for Active; 'I' for Inactive)
REMARK    1  A    between atoms: C3_3  and  O1_8 
REMARK    2  A    between atoms: C6_6  and  N1_7 
ROOT
HETATM    1  C1  UNL     1       6.820   3.644 -13.291  1.00  0.00     0.026 A 
HETATM    2  C2  UNL     1       6.945   3.477 -11.910  1.00  0.00     0.038 A 
HETATM    3  C3  UNL     1       7.990   4.092 -11.235  1.00  0.00     0.065 A 
HETATM    4  C4  UNL     1       8.904   4.886 -11.918  1.00  0.00     0.038 A 
HETATM    5  C5  UNL     1       8.773   5.048 -13.300  1.00  0.00     0.026 A 
HETATM    6  C6  UNL     1       7.762   4.389 -14.007  1.00  0.00     0.005 A 
ENDROOT
BRANCH   6   7
HETATM    7  N1  UNL     1       7.567   4.651 -15.368  1.00  0.00    -0.303 NA
HETATM    8  H5  UNL     1       8.307   4.290 -15.962  1.00  0.00     0.124 HD
HETATM    9  H6  UNL     1       7.346   5.620 -15.571  1.00  0.00     0.124 HD
ENDBRANCH   6   7
BRANCH   3  10
HETATM   10  O1  UNL     1       8.077   3.907  -9.887  1.00  0.00    -0.361 OA
HETATM   11  H7  UNL     1       7.354   3.322  -9.608  1.00  0.00     0.217 HD
ENDBRANCH   3  10
TORSDOF 2
ENDMDL
MODEL 15
REMARK VINA RESULT:      -3.8      5.443      6.273
REMARK  2 active torsions:
REMARK  status: ('A' for Active; 'I' for Inactive)
REMARK    1  A    between atoms: C3_3  and  O1_8 
REMARK    2  A    between atoms: C6_6  and  N1_7 
ROOT
HETATM    1  C1  UNL     1       7.882   4.454 -13.936  1.00  0.00     0.026 A 
HETATM    2  C2  UNL     1       8.757   4.606 -12.858  1.00  0.00     0.038 A 
HETATM    3  C3  UNL     1       9.966   5.262 -13.040  1.00  0.00     0.065 A 
HETATM    4  C4  UNL     1      10.308   5.783 -14.283  1.00  0.00     0.038 A 
HETATM    5  C5  UNL     1       9.429   5.626 -15.358  1.00  0.00     0.026 A 
HETATM    6  C6  UNL     1       8.232   4.917 -15.208  1.00  0.00     0.005 A 
ENDROOT
BRANCH   6   7
HETATM    7  N1  UNL     1       7.306   4.868 -16.256  1.00  0.00    -0.303 NA
HETATM    8  H5  UNL     1       7.613   4.310 -17.046  1.00  0.00     0.124 HD
HETATM    9  H6  UNL     1       6.958   5.778 -16.539  1.00  0.00     0.124 HD
ENDBRANCH   6   7
BRANCH   3  10
HETATM   10  O1  UNL     1      10.790   5.392 -11.963  1.00  0.00    -0.361 OA
HETATM   11  H7  UNL     1      10.450   4.837 -11.243  1.00  0.00     0.217 HD
ENDBRANCH   3  10
TORSDOF 2
ENDMDL
MODEL 16
REMARK VINA RESULT:      -3.5      7.709      8.800
REMARK  2 active torsions:
REMARK  status: ('A' for Active; 'I' for Inactive)
REMARK    1  A    between atoms: C3_3  and  O1_8 
REMARK    2  A    between atoms: C6_6  and  N1_7 
ROOT
HETATM    1  C1  UNL     1      11.454   6.072 -15.614  1.00  0.00     0.026 A 
HETATM    2  C2  UNL     1      11.476   5.849 -16.993  1.00  0.00     0.038 A 
HETATM    3  C3  UNL     1      10.422   5.179 -17.598  1.00  0.00     0.065 A 
HETATM    4  C4  UNL     1       9.336   4.743 -16.847  1.00  0.00     0.038 A 
HETATM    5  C5  UNL     1       9.322   4.969 -15.468  1.00  0.00     0.026 A 
HETATM    6  C6  UNL     1      10.401   5.589 -14.831  1.00  0.00     0.005 A 
ENDROOT
BRANCH   6   7
HETATM    7  N1  UNL     1      10.325   5.917 -13.473  1.00  0.00    -0.303 NA
HETATM    8  H5  UNL     1      10.004   6.864 -13.299  1.00  0.00     0.124 HD
HETATM    9  H6  UNL     1      11.163   5.690 -12.948  1.00  0.00     0.124 HD
ENDBRANCH   6   7
BRANCH   3  10
HETATM   10  O1  UNL     1      10.480   4.983 -18.945  1.00  0.00    -0.361 OA
HETATM   11  H7  UNL     1      10.273   4.054 -19.132  1.00  0.00     0.217 HD
ENDBRANCH   3  10
TORSDOF 2
ENDMDL
MODEL 17
REMARK VINA RESULT:      -3.5      5.284      6.298
REMARK  2 active torsions:
REMARK  status: ('A' for Active; 'I' for Inactive)
REMARK    1  A    between atoms: C3_3  and  O1_8 
REMARK    2  A    between atoms: C6_6  and  N1_7 
ROOT
HETATM    1  C1  UNL     1       8.036   4.557 -14.773  1.00  0.00     0.026 A 
HETATM    2  C2  UNL     1       8.960   5.469 -15.288  1.00  0.00     0.038 A 
HETATM    3  C3  UNL     1      10.073   5.820 -14.537  1.00  0.00     0.065 A 
HETATM    4  C4  UNL     1      10.285   5.259 -13.282  1.00  0.00     0.038 A 
HETATM    5  C5  UNL     1       9.356   4.347 -12.773  1.00  0.00     0.026 A 
HETATM    6  C6  UNL     1       8.199   4.026 -13.490  1.00  0.00     0.005 A 
ENDROOT
BRANCH   6   7
HETATM    7  N1  UNL     1       7.337   3.025 -13.027  1.00  0.00    -0.303 NA
HETATM    8  H5  UNL     1       7.749   2.430 -12.314  1.00  0.00     0.124 HD
HETATM    9  H6  UNL     1       6.892   2.492 -13.766  1.00  0.00     0.124 HD
ENDBRANCH   6   7
BRANCH   3  10
HETATM   10  O1  UNL     1      10.952   6.711 -15.075  1.00  0.00    -0.361 OA
HETATM   11  H7  UNL     1      11.752   6.726 -14.527  1.00  0.00     0.217 HD
ENDBRANCH   3  10
TORSDOF 2
ENDMDL
MODEL 18
REMARK VINA RESULT:      -3.5      7.601      8.474
REMARK  2 active torsions:
REMARK  status: ('A' for Active; 'I' for Inactive)
REMARK    1  A    between atoms: C3_3  and  O1_8 
REMARK    2  A    between atoms: C6_6  and  N1_7 
ROOT
HETATM    1  C1  UNL     1      12.103   5.088 -15.469  1.00  0.00     0.026 A 
HETATM    2  C2  UNL     1      11.488   6.228 -15.992  1.00  0.00     0.038 A 
HETATM    3  C3  UNL     1      10.145   6.188 -16.337  1.00  0.00     0.065 A 
HETATM    4  C4  UNL     1       9.400   5.028 -16.152  1.00  0.00     0.038 A 
HETATM    5  C5  UNL     1      10.022   3.891 -15.630  1.00  0.00     0.026 A 
HETATM    6  C6  UNL     1      11.389   3.894 -15.331  1.00  0.00     0.005 A 
ENDROOT
BRANCH   6   7
HETATM    7  N1  UNL     1      11.974   2.791 -14.698  1.00  0.00    -0.303 NA
HETATM    8  H5  UNL     1      12.979   2.873 -14.583  1.00  0.00     0.124 HD
HETATM    9  H6  UNL     1      11.703   1.898 -15.096  1.00  0.00     0.124 HD
ENDBRANCH   6   7
BRANCH   3  10
HETATM   10  O1  UNL     1       9.581   7.322 -16.842  1.00  0.00    -0.361 OA
HETATM   11  H7  UNL     1       8.624   7.183 -16.922  1.00  0.00     0.217 HD
ENDBRANCH   3  10
TORSDOF 2
ENDMDL
MODEL 19
REMARK VINA RESULT:      -3.4      7.072      7.767
REMARK  2 active torsions:
REMARK  status: ('A' for Active; 'I' for Inactive)
REMARK    1  A    between atoms: C3_3  and  O1_8 
REMARK    2  A    between atoms: C6_6  and  N1_7 
ROOT
HETATM    1  C1  UNL     1      11.575   1.372  -7.620  1.00  0.00     0.026 A 
HETATM    2  C2  UNL     1      12.847   1.947  -7.660  1.00  0.00     0.038 A 
HETATM    3  C3  UNL     1      13.102   2.991  -8.539  1.00  0.00     0.065 A 
HETATM    4  C4  UNL     1      12.098   3.480  -9.367  1.00  0.00     0.038 A 
HETATM    5  C5  UNL     1      10.828   2.898  -9.322  1.00  0.00     0.026 A 
HETATM    6  C6  UNL     1      10.568   1.807  -8.486  1.00  0.00     0.005 A 
ENDROOT
BRANCH   6   7
HETATM    7  N1  UNL     1       9.266   1.310  -8.361  1.00  0.00    -0.303 NA
HETATM    8  H5  UNL     1       8.546   2.008  -8.517  1.00  0.00     0.124 HD
HETATM    9  H6  UNL     1       9.110   0.778  -7.511  1.00  0.00     0.124 HD
ENDBRANCH   6   7
BRANCH   3  10
HETATM   10  O1  UNL     1      14.355   3.528  -8.547  1.00  0.00    -0.361 OA
HETATM   11  H7  UNL     1      14.970   2.873  -8.914  1.00  0.00     0.217 HD
ENDBRANCH   3  10
TORSDOF 2
ENDMDL
MODEL 20
REMARK VINA RESULT:      -3.4      7.845      8.696
REMARK  2 active torsions:
REMARK  status: ('A' for Active; 'I' for Inactive)
REMARK    1  A    between atoms: C3_3  and  O1_8 
REMARK    2  A    between atoms: C6_6  and  N1_7 
ROOT
HETATM    1  C1  UNL     1      13.304   2.033  -7.785  1.00  0.00     0.026 A 
HETATM    2  C2  UNL     1      12.180   1.221  -7.615  1.00  0.00     0.038 A 
HETATM    3  C3  UNL     1      10.928   1.693  -7.984  1.00  0.00     0.065 A 
HETATM    4  C4  UNL     1      10.784   2.961  -8.535  1.00  0.00     0.038 A 
HETATM    5  C5  UNL     1      11.913   3.769  -8.701  1.00  0.00     0.026 A 
HETATM    6  C6  UNL     1      13.175   3.333  -8.282  1.00  0.00     0.005 A 
ENDROOT
BRANCH   6   7
HETATM    7  N1  UNL     1      14.313   4.099  -8.560  1.00  0.00    -0.303 NA
HETATM    8  H5  UNL     1      15.131   3.543  -8.790  1.00  0.00     0.124 HD
HETATM    9  H6  UNL     1      14.511   4.809  -7.863  1.00  0.00     0.124 HD
ENDBRANCH   6   7
BRANCH   3  10
HETATM   10  O1  UNL     1       9.857   0.870  -7.805  1.00  0.00    -0.361 OA
HETATM   11  H7  UNL     1      10.003   0.341  -7.004  1.00  0.00     0.217 HD
ENDBRANCH   3  10
TORSDOF 2
ENDMDL
