REMARK  2 active torsions:
REMARK  status: ('A' for Active; 'I' for Inactive)
REMARK    1  A    between atoms: C3_3  and  O1_8 
REMARK    2  A    between atoms: C6_6  and  N1_7 
ROOT
HETATM    1  C1  UNL     1       0.443   1.191  -0.434  1.00  0.00     0.026 A 
HETATM    2  C2  UNL     1      -0.942   1.224  -0.257  1.00  0.00     0.038 A 
HETATM    3  C3  UNL     1      -1.603   0.096   0.208  1.00  0.00     0.065 A 
HETATM    4  C4  UNL     1      -0.897  -1.062   0.515  1.00  0.00     0.038 A 
HETATM    5  C5  UNL     1       0.489  -1.088   0.334  1.00  0.00     0.026 A 
HETATM    6  C6  UNL     1       1.165   0.019  -0.189  1.00  0.00     0.005 A 
ENDROOT
BRANCH   6   7
HETATM    7  N1  UNL     1       2.563   0.025  -0.254  1.00  0.00    -0.303 NA
HETATM    8  H5  UNL     1       2.938   0.706  -0.907  1.00  0.00     0.124 HD
HETATM    9  H6  UNL     1       2.972  -0.895  -0.378  1.00  0.00     0.124 HD
ENDBRANCH   6   7
BRANCH   3  10
HETATM   10  O1  UNL     1      -2.954   0.169   0.370  1.00  0.00    -0.361 OA
HETATM   11  H7  UNL     1      -3.271  -0.681   0.715  1.00  0.00     0.217 HD
ENDBRANCH   3  10
TORSDOF 2
