REMARK  2 active torsions:
REMARK  status: ('A' for Active; 'I' for Inactive)
REMARK    1  A    between atoms: C3_3  and  O1_10 
REMARK    2  A    between atoms: C6_6  and  N1_7 
ROOT
HETATM    1  C1  PAP L   1      -2.924   9.477   1.493  1.00  0.00     0.026 A 
HETATM    2  C2  PAP L   1      -2.913   8.751   0.299  1.00  0.00     0.038 A 
HETATM    3  C3  PAP L   1      -1.911   7.818   0.071  1.00  0.00     0.065 A 
HETATM    4  C4  PAP L   1      -0.927   7.587   1.026  1.00  0.00     0.038 A 
HETATM    5  C5  PAP L   1      -0.944   8.318   2.218  1.00  0.00     0.026 A 
HETATM    6  C6  PAP L   1      -1.911   9.304   2.441  1.00  0.00     0.005 A 
ENDROOT
BRANCH   6   7
HETATM    7  N1  PAP L   1      -1.991   9.944   3.683  1.00  0.00    -0.303 NA
HETATM    8  H5  PAP L   1      -2.873   9.796   4.162  1.00  0.00     0.124 HD
HETATM    9  H6  PAP L   1      -1.725  10.923   3.658  1.00  0.00     0.124 HD
ENDBRANCH   6   7
BRANCH   3  10
HETATM   10  O1  PAP L   1      -1.936   7.129  -1.104  1.00  0.00    -0.361 OA
HETATM   11  H7  PAP L   1      -1.777   7.751  -1.832  1.00  0.00     0.217 HD
ENDBRANCH   3  10
TORSDOF 2
