MODEL 1
REMARK VINA RESULT:      -2.9      0.000      0.000
REMARK  2 active torsions:
REMARK  status: ('A' for Active; 'I' for Inactive)
REMARK    1  A    between atoms: C3_3  and  O1_8 
REMARK    2  A    between atoms: C6_6  and  N1_7 
ROOT
HETATM    1  C1  UNL     1      22.367  -8.986  -9.087  1.00  0.00     0.026 A 
HETATM    2  C2  UNL     1      22.154  -8.414  -7.831  1.00  0.00     0.038 A 
HETATM    3  C3  UNL     1      21.798  -7.076  -7.736  1.00  0.00     0.065 A 
HETATM    4  C4  UNL     1      21.636  -6.304  -8.881  1.00  0.00     0.038 A 
HETATM    5  C5  UNL     1      21.852  -6.883 -10.134  1.00  0.00     0.026 A 
HETATM    6  C6  UNL     1      22.269  -8.214 -10.248  1.00  0.00     0.005 A 
ENDROOT
BRANCH   6   7
HETATM    7  N1  UNL     1      22.367  -8.817 -11.507  1.00  0.00    -0.303 NA
HETATM    8  H5  UNL     1      21.499  -8.804 -12.034  1.00  0.00     0.124 HD
HETATM    9  H6  UNL     1      22.795  -9.736 -11.489  1.00  0.00     0.124 HD
ENDBRANCH   6   7
BRANCH   3  10
HETATM   10  O1  UNL     1      21.596  -6.556  -6.493  1.00  0.00    -0.361 OA
HETATM   11  H7  UNL     1      22.439  -6.568  -6.011  1.00  0.00     0.217 HD
ENDBRANCH   3  10
TORSDOF 2
ENDMDL
MODEL 2
REMARK VINA RESULT:      -2.9      1.306      2.022
REMARK  2 active torsions:
REMARK  status: ('A' for Active; 'I' for Inactive)
REMARK    1  A    between atoms: C3_3  and  O1_8 
REMARK    2  A    between atoms: C6_6  and  N1_7 
ROOT
HETATM    1  C1  UNL     1      21.908  -7.135 -10.154  1.00  0.00     0.026 A 
HETATM    2  C2  UNL     1      22.228  -6.360  -9.037  1.00  0.00     0.038 A 
HETATM    3  C3  UNL     1      23.259  -6.758  -8.198  1.00  0.00     0.065 A 
HETATM    4  C4  UNL     1      23.987  -7.911  -8.468  1.00  0.00     0.038 A 
HETATM    5  C5  UNL     1      23.660  -8.682  -9.588  1.00  0.00     0.026 A 
HETATM    6  C6  UNL     1      22.587  -8.329 -10.412  1.00  0.00     0.005 A 
ENDROOT
BRANCH   6   7
HETATM    7  N1  UNL     1      22.343  -9.039 -11.594  1.00  0.00    -0.303 NA
HETATM    8  H5  UNL     1      21.726  -9.836 -11.471  1.00  0.00     0.124 HD
HETATM    9  H6  UNL     1      23.183  -9.276 -12.110  1.00  0.00     0.124 HD
ENDBRANCH   6   7
BRANCH   3  10
HETATM   10  O1  UNL     1      23.543  -5.974  -7.120  1.00  0.00    -0.361 OA
HETATM   11  H7  UNL     1      22.710  -5.736  -6.682  1.00  0.00     0.217 HD
ENDBRANCH   3  10
TORSDOF 2
ENDMDL
MODEL 3
REMARK VINA RESULT:      -2.9      2.004      2.537
REMARK  2 active torsions:
REMARK  status: ('A' for Active; 'I' for Inactive)
REMARK    1  A    between atoms: C3_3  and  O1_8 
REMARK    2  A    between atoms: C6_6  and  N1_7 
ROOT
HETATM    1  C1  UNL     1      21.150  -8.311  -7.435  1.00  0.00     0.026 A 
HETATM    2  C2  UNL     1      20.840  -7.041  -7.926  1.00  0.00     0.038 A 
HETATM    3  C3  UNL     1      21.415  -6.602  -9.110  1.00  0.00     0.065 A 
HETATM    4  C4  UNL     1      22.285  -7.421  -9.821  1.00  0.00     0.038 A 
HETATM    5  C5  UNL     1      22.592  -8.691  -9.323  1.00  0.00     0.026 A 
HETATM    6  C6  UNL     1      22.068  -9.128  -8.103  1.00  0.00     0.005 A 
ENDROOT
BRANCH   6   7
HETATM    7  N1  UNL     1      22.286 -10.442  -7.673  1.00  0.00    -0.303 NA
HETATM    8  H5  UNL     1      23.021 -10.528  -6.978  1.00  0.00     0.124 HD
HETATM    9  H6  UNL     1      22.391 -11.109  -8.430  1.00  0.00     0.124 HD
ENDBRANCH   6   7
BRANCH   3  10
HETATM   10  O1  UNL     1      21.085  -5.357  -9.557  1.00  0.00    -0.361 OA
HETATM   11  H7  UNL     1      20.131  -5.226  -9.432  1.00  0.00     0.217 HD
ENDBRANCH   3  10
TORSDOF 2
ENDMDL
MODEL 4
REMARK VINA RESULT:      -2.9      2.778      3.674
REMARK  2 active torsions:
REMARK  status: ('A' for Active; 'I' for Inactive)
REMARK    1  A    between atoms: C3_3  and  O1_8 
REMARK    2  A    between atoms: C6_6  and  N1_7 
ROOT
HETATM    1  C1  UNL     1      21.278  -6.246  -8.977  1.00  0.00     0.026 A 
HETATM    2  C2  UNL     1      21.773  -6.789 -10.165  1.00  0.00     0.038 A 
HETATM    3  C3  UNL     1      22.239  -8.096 -10.182  1.00  0.00     0.065 A 
HETATM    4  C4  UNL     1      22.202  -8.876  -9.032  1.00  0.00     0.038 A 
HETATM    5  C5  UNL     1      21.707  -8.325  -7.846  1.00  0.00     0.026 A 
HETATM    6  C6  UNL     1      21.287  -6.992  -7.794  1.00  0.00     0.005 A 
ENDROOT
BRANCH   6   7
HETATM    7  N1  UNL     1      20.684  -6.487  -6.637  1.00  0.00    -0.303 NA
HETATM    8  H5  UNL     1      20.881  -5.506  -6.469  1.00  0.00     0.124 HD
HETATM    9  H6  UNL     1      20.835  -7.058  -5.812  1.00  0.00     0.124 HD
ENDBRANCH   6   7
BRANCH   3  10
HETATM   10  O1  UNL     1      22.711  -8.589 -11.361  1.00  0.00    -0.361 OA
HETATM   11  H7  UNL     1      22.500  -7.958 -12.068  1.00  0.00     0.217 HD
ENDBRANCH   3  10
TORSDOF 2
ENDMDL
MODEL 5
REMARK VINA RESULT:      -2.9      2.147      2.683
REMARK  2 active torsions:
REMARK  status: ('A' for Active; 'I' for Inactive)
REMARK    1  A    between atoms: C3_3  and  O1_8 
REMARK    2  A    between atoms: C6_6  and  N1_7 
ROOT
HETATM    1  C1  UNL     1      22.233  -7.547  -9.420  1.00  0.00     0.026 A 
HETATM    2  C2  UNL     1      22.397  -8.772  -8.770  1.00  0.00     0.038 A 
HETATM    3  C3  UNL     1      21.668  -9.045  -7.622  1.00  0.00     0.065 A 
HETATM    4  C4  UNL     1      20.763  -8.116  -7.120  1.00  0.00     0.038 A 
HETATM    5  C5  UNL     1      20.605  -6.891  -7.775  1.00  0.00     0.026 A 
HETATM    6  C6  UNL     1      21.373  -6.575  -8.900  1.00  0.00     0.005 A 
ENDROOT
BRANCH   6   7
HETATM    7  N1  UNL     1      21.123  -5.399  -9.616  1.00  0.00    -0.303 NA
HETATM    8  H5  UNL     1      20.135  -5.197  -9.737  1.00  0.00     0.124 HD
HETATM    9  H6  UNL     1      21.640  -5.330 -10.486  1.00  0.00     0.124 HD
ENDBRANCH   6   7
BRANCH   3  10
HETATM   10  O1  UNL     1      21.855 -10.253  -7.019  1.00  0.00    -0.361 OA
HETATM   11  H7  UNL     1      22.540 -10.739  -7.504  1.00  0.00     0.217 HD
ENDBRANCH   3  10
TORSDOF 2
ENDMDL
MODEL 6
REMARK VINA RESULT:      -2.9      1.975      2.572
REMARK  2 active torsions:
REMARK  status: ('A' for Active; 'I' for Inactive)
REMARK    1  A    between atoms: C3_3  and  O1_8 
REMARK    2  A    between atoms: C6_6  and  N1_7 
ROOT
HETATM    1  C1  UNL     1      22.584  -8.647  -9.404  1.00  0.00     0.026 A 
HETATM    2  C2  UNL     1      22.201  -7.385  -9.861  1.00  0.00     0.038 A 
HETATM    3  C3  UNL     1      21.402  -6.578  -9.064  1.00  0.00     0.065 A 
HETATM    4  C4  UNL     1      20.993  -7.008  -7.806  1.00  0.00     0.038 A 
HETATM    5  C5  UNL     1      21.380  -8.274  -7.356  1.00  0.00     0.026 A 
HETATM    6  C6  UNL     1      22.135  -9.125  -8.169  1.00  0.00     0.005 A 
ENDROOT
BRANCH   6   7
HETATM    7  N1  UNL     1      22.617 -10.338  -7.664  1.00  0.00    -0.303 NA
HETATM    8  H5  UNL     1      23.602 -10.495  -7.851  1.00  0.00     0.124 HD
HETATM    9  H6  UNL     1      22.045 -11.140  -7.908  1.00  0.00     0.124 HD
ENDBRANCH   6   7
BRANCH   3  10
HETATM   10  O1  UNL     1      21.052  -5.352  -9.544  1.00  0.00    -0.361 OA
HETATM   11  H7  UNL     1      20.763  -4.799  -8.801  1.00  0.00     0.217 HD
ENDBRANCH   3  10
TORSDOF 2
ENDMDL
MODEL 7
REMARK VINA RESULT:      -2.8      2.777      3.259
REMARK  2 active torsions:
REMARK  status: ('A' for Active; 'I' for Inactive)
REMARK    1  A    between atoms: C3_3  and  O1_8 
REMARK    2  A    between atoms: C6_6  and  N1_7 
ROOT
HETATM    1  C1  UNL     1      22.072  -8.487  -7.857  1.00  0.00     0.026 A 
HETATM    2  C2  UNL     1      22.410  -8.944  -9.133  1.00  0.00     0.038 A 
HETATM    3  C3  UNL     1      22.251  -8.108 -10.228  1.00  0.00     0.065 A 
HETATM    4  C4  UNL     1      21.774  -6.812 -10.066  1.00  0.00     0.038 A 
HETATM    5  C5  UNL     1      21.436  -6.361  -8.786  1.00  0.00     0.026 A 
HETATM    6  C6  UNL     1      21.534  -7.209  -7.678  1.00  0.00     0.005 A 
ENDROOT
BRANCH   6   7
HETATM    7  N1  UNL     1      21.308  -6.713  -6.389  1.00  0.00    -0.303 NA
HETATM    8  H5  UNL     1      20.525  -7.152  -5.914  1.00  0.00     0.124 HD
HETATM    9  H6  UNL     1      21.270  -5.700  -6.340  1.00  0.00     0.124 HD
ENDBRANCH   6   7
BRANCH   3  10
HETATM   10  O1  UNL     1      22.595  -8.590 -11.455  1.00  0.00    -0.361 OA
HETATM   11  H7  UNL     1      22.429  -7.900 -12.117  1.00  0.00     0.217 HD
ENDBRANCH   3  10
TORSDOF 2
ENDMDL
MODEL 8
REMARK VINA RESULT:      -2.7      2.021      2.293
REMARK  2 active torsions:
REMARK  status: ('A' for Active; 'I' for Inactive)
REMARK    1  A    between atoms: C3_3  and  O1_8 
REMARK    2  A    between atoms: C6_6  and  N1_7 
ROOT
HETATM    1  C1  UNL     1      23.097  -6.206  -8.802  1.00  0.00     0.026 A 
HETATM    2  C2  UNL     1      23.416  -6.538  -7.484  1.00  0.00     0.038 A 
HETATM    3  C3  UNL     1      22.409  -6.907  -6.604  1.00  0.00     0.065 A 
HETATM    4  C4  UNL     1      21.085  -6.965  -7.027  1.00  0.00     0.038 A 
HETATM    5  C5  UNL     1      20.773  -6.630  -8.348  1.00  0.00     0.026 A 
HETATM    6  C6  UNL     1      21.767  -6.199  -9.233  1.00  0.00     0.005 A 
ENDROOT
BRANCH   6   7
HETATM    7  N1  UNL     1      21.463  -5.981 -10.581  1.00  0.00    -0.303 NA
HETATM    8  H5  UNL     1      22.095  -5.335 -11.043  1.00  0.00     0.124 HD
HETATM    9  H6  UNL     1      20.488  -5.756 -10.751  1.00  0.00     0.124 HD
ENDBRANCH   6   7
BRANCH   3  10
HETATM   10  O1  UNL     1      22.762  -7.227  -5.327  1.00  0.00    -0.361 OA
HETATM   11  H7  UNL     1      23.725  -7.340  -5.291  1.00  0.00     0.217 HD
ENDBRANCH   3  10
TORSDOF 2
ENDMDL
MODEL 9
REMARK VINA RESULT:      -2.7      2.959      3.425
REMARK  2 active torsions:
REMARK  status: ('A' for Active; 'I' for Inactive)
REMARK    1  A    between atoms: C3_3  and  O1_8 
REMARK    2  A    between atoms: C6_6  and  N1_7 
ROOT
HETATM    1  C1  UNL     1      20.612  -8.537  -6.668  1.00  0.00     0.026 A 
HETATM    2  C2  UNL     1      21.610  -9.192  -7.392  1.00  0.00     0.038 A 
HETATM    3  C3  UNL     1      22.161  -8.582  -8.511  1.00  0.00     0.065 A 
HETATM    4  C4  UNL     1      21.740  -7.318  -8.907  1.00  0.00     0.038 A 
HETATM    5  C5  UNL     1      20.740  -6.668  -8.177  1.00  0.00     0.026 A 
HETATM    6  C6  UNL     1      20.132  -7.291  -7.083  1.00  0.00     0.005 A 
ENDROOT
BRANCH   6   7
HETATM    7  N1  UNL     1      19.218  -6.587  -6.289  1.00  0.00    -0.303 NA
HETATM    8  H5  UNL     1      18.500  -6.107  -6.823  1.00  0.00     0.124 HD
HETATM    9  H6  UNL     1      19.654  -5.985  -5.598  1.00  0.00     0.124 HD
ENDBRANCH   6   7
BRANCH   3  10
HETATM   10  O1  UNL     1      23.134  -9.253  -9.189  1.00  0.00    -0.361 OA
HETATM   11  H7  UNL     1      23.937  -9.270  -8.644  1.00  0.00     0.217 HD
ENDBRANCH   3  10
TORSDOF 2
ENDMDL
MODEL 10
REMARK VINA RESULT:      -2.7      2.001      2.346
REMARK  2 active torsions:
REMARK  status: ('A' for Active; 'I' for Inactive)
REMARK    1  A    between atoms: C3_3  and  O1_8 
REMARK    2  A    between atoms: C6_6  and  N1_7 
ROOT
HETATM    1  C1  UNL     1      21.301  -9.043  -6.769  1.00  0.00     0.026 A 
HETATM    2  C2  UNL     1      20.324  -8.255  -6.157  1.00  0.00     0.038 A 
HETATM    3  C3  UNL     1      19.912  -7.076  -6.763  1.00  0.00     0.065 A 
HETATM    4  C4  UNL     1      20.452  -6.681  -7.982  1.00  0.00     0.038 A 
HETATM    5  C5  UNL     1      21.431  -7.474  -8.588  1.00  0.00     0.026 A 
HETATM    6  C6  UNL     1      21.901  -8.635  -7.964  1.00  0.00     0.005 A 
ENDROOT
BRANCH   6   7
HETATM    7  N1  UNL     1      22.792  -9.482  -8.632  1.00  0.00    -0.303 NA
HETATM    8  H5  UNL     1      22.341 -10.110  -9.290  1.00  0.00     0.124 HD
HETATM    9  H6  UNL     1      23.437  -9.966  -8.017  1.00  0.00     0.124 HD
ENDBRANCH   6   7
BRANCH   3  10
HETATM   10  O1  UNL     1      18.955  -6.337  -6.136  1.00  0.00    -0.361 OA
HETATM   11  H7  UNL     1      19.224  -6.199  -5.214  1.00  0.00     0.217 HD
ENDBRANCH   3  10
TORSDOF 2
ENDMDL
MODEL 11
REMARK VINA RESULT:      -2.7      2.407      3.040
REMARK  2 active torsions:
REMARK  status: ('A' for Active; 'I' for Inactive)
REMARK    1  A    between atoms: C3_3  and  O1_8 
REMARK    2  A    between atoms: C6_6  and  N1_7 
ROOT
HETATM    1  C1  UNL     1      20.698  -6.751  -8.124  1.00  0.00     0.026 A 
HETATM    2  C2  UNL     1      19.944  -7.096  -7.000  1.00  0.00     0.038 A 
HETATM    3  C3  UNL     1      20.550  -7.145  -5.753  1.00  0.00     0.065 A 
HETATM    4  C4  UNL     1      21.899  -6.838  -5.610  1.00  0.00     0.038 A 
HETATM    5  C5  UNL     1      22.648  -6.495  -6.739  1.00  0.00     0.026 A 
HETATM    6  C6  UNL     1      22.068  -6.497  -8.012  1.00  0.00     0.005 A 
ENDROOT
BRANCH   6   7
HETATM    7  N1  UNL     1      22.793  -6.038  -9.117  1.00  0.00    -0.303 NA
HETATM    8  H5  UNL     1      23.633  -5.524  -8.869  1.00  0.00     0.124 HD
HETATM    9  H6  UNL     1      22.229  -5.549  -9.804  1.00  0.00     0.124 HD
ENDBRANCH   6   7
BRANCH   3  10
HETATM   10  O1  UNL     1      19.780  -7.483  -4.681  1.00  0.00    -0.361 OA
HETATM   11  H7  UNL     1      19.063  -6.834  -4.598  1.00  0.00     0.217 HD
ENDBRANCH   3  10
TORSDOF 2
ENDMDL
MODEL 12
REMARK VINA RESULT:      -2.6      3.111      3.599
REMARK  2 active torsions:
REMARK  status: ('A' for Active; 'I' for Inactive)
REMARK    1  A    between atoms: C3_3  and  O1_8 
REMARK    2  A    between atoms: C6_6  and  N1_7 
ROOT
HETATM    1  C1  UNL     1      23.414  -6.576  -7.411  1.00  0.00     0.026 A 
HETATM    2  C2  UNL     1      23.037  -6.153  -8.687  1.00  0.00     0.038 A 
HETATM    3  C3  UNL     1      21.702  -6.209  -9.063  1.00  0.00     0.065 A 
HETATM    4  C4  UNL     1      20.735  -6.667  -8.175  1.00  0.00     0.038 A 
HETATM    5  C5  UNL     1      21.121  -7.090  -6.900  1.00  0.00     0.026 A 
HETATM    6  C6  UNL     1      22.467  -7.097  -6.523  1.00  0.00     0.005 A 
ENDROOT
BRANCH   6   7
HETATM    7  N1  UNL     1      22.830  -7.408  -5.208  1.00  0.00    -0.303 NA
HETATM    8  H5  UNL     1      23.063  -8.387  -5.070  1.00  0.00     0.124 HD
HETATM    9  H6  UNL     1      22.178  -7.065  -4.510  1.00  0.00     0.124 HD
ENDBRANCH   6   7
BRANCH   3  10
HETATM   10  O1  UNL     1      21.374  -5.784 -10.315  1.00  0.00    -0.361 OA
HETATM   11  H7  UNL     1      21.119  -6.555 -10.847  1.00  0.00     0.217 HD
ENDBRANCH   3  10
TORSDOF 2
ENDMDL
MODEL 13
REMARK VINA RESULT:      -2.5      7.797      8.762
REMARK  2 active torsions:
REMARK  status: ('A' for Active; 'I' for Inactive)
REMARK    1  A    between atoms: C3_3  and  O1_8 
REMARK    2  A    between atoms: C6_6  and  N1_7 
ROOT
HETATM    1  C1  UNL     1      20.876 -10.524 -16.206  1.00  0.00     0.026 A 
HETATM    2  C2  UNL     1      20.122 -11.509 -16.848  1.00  0.00     0.038 A 
HETATM    3  C3  UNL     1      20.261 -12.837 -16.468  1.00  0.00     0.065 A 
HETATM    4  C4  UNL     1      21.131 -13.193 -15.444  1.00  0.00     0.038 A 
HETATM    5  C5  UNL     1      21.883 -12.201 -14.808  1.00  0.00     0.026 A 
HETATM    6  C6  UNL     1      21.801 -10.866 -15.216  1.00  0.00     0.005 A 
ENDROOT
BRANCH   6   7
HETATM    7  N1  UNL     1      22.466  -9.867 -14.496  1.00  0.00    -0.303 NA
HETATM    8  H5  UNL     1      23.308  -9.528 -14.952  1.00  0.00     0.124 HD
HETATM    9  H6  UNL     1      22.621 -10.098 -13.521  1.00  0.00     0.124 HD
ENDBRANCH   6   7
BRANCH   3  10
HETATM   10  O1  UNL     1      19.506 -13.768 -17.116  1.00  0.00    -0.361 OA
HETATM   11  H7  UNL     1      19.752 -14.648 -16.789  1.00  0.00     0.217 HD
ENDBRANCH   3  10
TORSDOF 2
ENDMDL
MODEL 14
REMARK VINA RESULT:      -2.4      7.386      8.290
REMARK  2 active torsions:
REMARK  status: ('A' for Active; 'I' for Inactive)
REMARK    1  A    between atoms: C3_3  and  O1_8 
REMARK    2  A    between atoms: C6_6  and  N1_7 
ROOT
HETATM    1  C1  UNL     1      20.200 -11.514 -16.787  1.00  0.00     0.026 A 
HETATM    2  C2  UNL     1      20.909 -10.488 -16.159  1.00  0.00     0.038 A 
HETATM    3  C3  UNL     1      21.781 -10.789 -15.122  1.00  0.00     0.065 A 
HETATM    4  C4  UNL     1      21.969 -12.105 -14.714  1.00  0.00     0.038 A 
HETATM    5  C5  UNL     1      21.254 -13.127 -15.347  1.00  0.00     0.026 A 
HETATM    6  C6  UNL     1      20.327 -12.837 -16.353  1.00  0.00     0.005 A 
ENDROOT
BRANCH   6   7
HETATM    7  N1  UNL     1      19.707 -13.874 -17.060  1.00  0.00    -0.303 NA
HETATM    8  H5  UNL     1      19.028 -13.553 -17.743  1.00  0.00     0.124 HD
HETATM    9  H6  UNL     1      19.340 -14.612 -16.468  1.00  0.00     0.124 HD
ENDBRANCH   6   7
BRANCH   3  10
HETATM   10  O1  UNL     1      22.456  -9.760 -14.537  1.00  0.00    -0.361 OA
HETATM   11  H7  UNL     1      22.555  -9.045 -15.186  1.00  0.00     0.217 HD
ENDBRANCH   3  10
TORSDOF 2
ENDMDL
MODEL 15
REMARK VINA RESULT:      -2.4      9.191     10.090
REMARK  2 active torsions:
REMARK  status: ('A' for Active; 'I' for Inactive)
REMARK    1  A    between atoms: C3_3  and  O1_8 
REMARK    2  A    between atoms: C6_6  and  N1_7 
ROOT
HETATM    1  C1  UNL     1      17.877 -11.139 -18.174  1.00  0.00     0.026 A 
HETATM    2  C2  UNL     1      18.633 -12.313 -18.146  1.00  0.00     0.038 A 
HETATM    3  C3  UNL     1      19.825 -12.346 -17.436  1.00  0.00     0.065 A 
HETATM    4  C4  UNL     1      20.265 -11.227 -16.738  1.00  0.00     0.038 A 
HETATM    5  C5  UNL     1      19.503 -10.055 -16.772  1.00  0.00     0.026 A 
HETATM    6  C6  UNL     1      18.330  -9.984 -17.530  1.00  0.00     0.005 A 
ENDROOT
BRANCH   6   7
HETATM    7  N1  UNL     1      17.514  -8.848 -17.462  1.00  0.00    -0.303 NA
HETATM    8  H5  UNL     1      16.521  -9.060 -17.442  1.00  0.00     0.124 HD
HETATM    9  H6  UNL     1      17.744  -8.136 -18.147  1.00  0.00     0.124 HD
ENDBRANCH   6   7
BRANCH   3  10
HETATM   10  O1  UNL     1      20.532 -13.511 -17.431  1.00  0.00    -0.361 OA
HETATM   11  H7  UNL     1      20.594 -13.840 -18.341  1.00  0.00     0.217 HD
ENDBRANCH   3  10
TORSDOF 2
ENDMDL
MODEL 16
REMARK VINA RESULT:      -2.3      8.320      9.284
REMARK  2 active torsions:
REMARK  status: ('A' for Active; 'I' for Inactive)
REMARK    1  A    between atoms: C3_3  and  O1_8 
REMARK    2  A    between atoms: C6_6  and  N1_7 
ROOT
HETATM    1  C1  UNL     1      18.870 -10.861 -17.672  1.00  0.00     0.026 A 
HETATM    2  C2  UNL     1      19.727 -10.088 -16.887  1.00  0.00     0.038 A 
HETATM    3  C3  UNL     1      20.663 -10.710 -16.072  1.00  0.00     0.065 A 
HETATM    4  C4  UNL     1      20.765 -12.096 -16.042  1.00  0.00     0.038 A 
HETATM    5  C5  UNL     1      19.902 -12.864 -16.829  1.00  0.00     0.026 A 
HETATM    6  C6  UNL     1      18.914 -12.257 -17.612  1.00  0.00     0.005 A 
ENDROOT
BRANCH   6   7
HETATM    7  N1  UNL     1      18.137 -13.026 -18.486  1.00  0.00    -0.303 NA
HETATM    8  H5  UNL     1      17.429 -12.491 -18.980  1.00  0.00     0.124 HD
HETATM    9  H6  UNL     1      17.760 -13.870 -18.066  1.00  0.00     0.124 HD
ENDBRANCH   6   7
BRANCH   3  10
HETATM   10  O1  UNL     1      21.483  -9.920 -15.323  1.00  0.00    -0.361 OA
HETATM   11  H7  UNL     1      21.585  -9.066 -15.772  1.00  0.00     0.217 HD
ENDBRANCH   3  10
TORSDOF 2
ENDMDL
MODEL 17
REMARK VINA RESULT:      -2.3      7.753      8.534
REMARK  2 active torsions:
REMARK  status: ('A' for Active; 'I' for Inactive)
REMARK    1  A    between atoms: C3_3  and  O1_8 
REMARK    2  A    between atoms: C6_6  and  N1_7 
ROOT
HETATM    1  C1  UNL     1      20.839 -13.081 -15.984  1.00  0.00     0.026 A 
HETATM    2  C2  UNL     1      21.569 -12.130 -15.266  1.00  0.00     0.038 A 
HETATM    3  C3  UNL     1      21.380 -10.780 -15.524  1.00  0.00     0.065 A 
HETATM    4  C4  UNL     1      20.459 -10.364 -16.480  1.00  0.00     0.038 A 
HETATM    5  C5  UNL     1      19.734 -11.321 -17.195  1.00  0.00     0.026 A 
HETATM    6  C6  UNL     1      19.953 -12.687 -16.991  1.00  0.00     0.005 A 
ENDROOT
BRANCH   6   7
HETATM    7  N1  UNL     1      19.139 -13.633 -17.625  1.00  0.00    -0.303 NA
HETATM    8  H5  UNL     1      19.315 -14.587 -17.326  1.00  0.00     0.124 HD
HETATM    9  H6  UNL     1      19.116 -13.544 -18.635  1.00  0.00     0.124 HD
ENDBRANCH   6   7
BRANCH   3  10
HETATM   10  O1  UNL     1      22.108  -9.884 -14.801  1.00  0.00    -0.361 OA
HETATM   11  H7  UNL     1      22.479  -9.224 -15.408  1.00  0.00     0.217 HD
ENDBRANCH   3  10
TORSDOF 2
ENDMDL
MODEL 18
REMARK VINA RESULT:      -2.2      7.760      8.411
REMARK  2 active torsions:
REMARK  status: ('A' for Active; 'I' for Inactive)
REMARK    1  A    between atoms: C3_3  and  O1_8 
REMARK    2  A    between atoms: C6_6  and  N1_7 
ROOT
HETATM    1  C1  UNL     1      17.698 -14.093  -7.213  1.00  0.00     0.026 A 
HETATM    2  C2  UNL     1      18.681 -13.605  -6.349  1.00  0.00     0.038 A 
HETATM    3  C3  UNL     1      18.328 -13.173  -5.079  1.00  0.00     0.065 A 
HETATM    4  C4  UNL     1      17.006 -13.236  -4.652  1.00  0.00     0.038 A 
HETATM    5  C5  UNL     1      16.027 -13.724  -5.522  1.00  0.00     0.026 A 
HETATM    6  C6  UNL     1      16.354 -14.109  -6.826  1.00  0.00     0.005 A 
ENDROOT
BRANCH   6   7
HETATM    7  N1  UNL     1      15.391 -14.706  -7.647  1.00  0.00    -0.303 NA
HETATM    8  H5  UNL     1      15.776 -15.130  -8.486  1.00  0.00     0.124 HD
HETATM    9  H6  UNL     1      14.595 -14.110  -7.847  1.00  0.00     0.124 HD
ENDBRANCH   6   7
BRANCH   3  10
HETATM   10  O1  UNL     1      19.317 -12.707  -4.265  1.00  0.00    -0.361 OA
HETATM   11  H7  UNL     1      19.972 -12.241  -4.809  1.00  0.00     0.217 HD
ENDBRANCH   3  10
TORSDOF 2
ENDMDL
MODEL 19
REMARK VINA RESULT:      -2.2      7.088      7.846
REMARK  2 active torsions:
REMARK  status: ('A' for Active; 'I' for Inactive)
REMARK    1  A    between atoms: C3_3  and  O1_8 
REMARK    2  A    between atoms: C6_6  and  N1_7 
ROOT
HETATM    1  C1  UNL     1      21.831 -13.327 -14.274  1.00  0.00     0.026 A 
HETATM    2  C2  UNL     1      22.306 -12.055 -13.947  1.00  0.00     0.038 A 
HETATM    3  C3  UNL     1      22.035 -10.983 -14.786  1.00  0.00     0.065 A 
HETATM    4  C4  UNL     1      21.281 -11.160 -15.941  1.00  0.00     0.038 A 
HETATM    5  C5  UNL     1      20.810 -12.437 -16.262  1.00  0.00     0.026 A 
HETATM    6  C6  UNL     1      21.122 -13.540 -15.461  1.00  0.00     0.005 A 
ENDROOT
BRANCH   6   7
HETATM    7  N1  UNL     1      20.549 -14.788 -15.725  1.00  0.00    -0.303 NA
HETATM    8  H5  UNL     1      21.061 -15.336 -16.409  1.00  0.00     0.124 HD
HETATM    9  H6  UNL     1      19.555 -14.749 -15.928  1.00  0.00     0.124 HD
ENDBRANCH   6   7
BRANCH   3  10
HETATM   10  O1  UNL     1      22.513  -9.757 -14.431  1.00  0.00    -0.361 OA
HETATM   11  H7  UNL     1      21.783  -9.118 -14.463  1.00  0.00     0.217 HD
ENDBRANCH   3  10
TORSDOF 2
ENDMDL
MODEL 20
REMARK VINA RESULT:      -2.1      9.142      9.736
REMARK  2 active torsions:
REMARK  status: ('A' for Active; 'I' for Inactive)
REMARK    1  A    between atoms: C3_3  and  O1_8 
REMARK    2  A    between atoms: C6_6  and  N1_7 
ROOT
HETATM    1  C1  UNL     1      18.955 -12.643 -17.446  1.00  0.00     0.026 A 
HETATM    2  C2  UNL     1      20.217 -12.246 -16.998  1.00  0.00     0.038 A 
HETATM    3  C3  UNL     1      20.524 -10.896 -16.916  1.00  0.00     0.065 A 
HETATM    4  C4  UNL     1      19.583  -9.933 -17.261  1.00  0.00     0.038 A 
HETATM    5  C5  UNL     1      18.322 -10.337 -17.711  1.00  0.00     0.026 A 
HETATM    6  C6  UNL     1      18.013 -11.694 -17.856  1.00  0.00     0.005 A 
ENDROOT
BRANCH   6   7
HETATM    7  N1  UNL     1      16.713 -12.089 -18.192  1.00  0.00    -0.303 NA
HETATM    8  H5  UNL     1      16.243 -12.610 -17.458  1.00  0.00     0.124 HD
HETATM    9  H6  UNL     1      16.643 -12.544 -19.095  1.00  0.00     0.124 HD
ENDBRANCH   6   7
BRANCH   3  10
HETATM   10  O1  UNL     1      21.765 -10.550 -16.471  1.00  0.00    -0.361 OA
HETATM   11  H7  UNL     1      22.175 -11.327 -16.059  1.00  0.00     0.217 HD
ENDBRANCH   3  10
TORSDOF 2
ENDMDL
