MODEL 1
REMARK VINA RESULT:      -4.4      0.000      0.000
REMARK  2 active torsions:
REMARK  status: ('A' for Active; 'I' for Inactive)
REMARK    1  A    between atoms: C3_3  and  O1_8 
REMARK    2  A    between atoms: C6_6  and  N1_7 
ROOT
HETATM    1  C1  UNL     1      10.591  -4.606  -6.795  1.00  0.00     0.026 A 
HETATM    2  C2  UNL     1       9.747  -4.931  -5.730  1.00  0.00     0.038 A 
HETATM    3  C3  UNL     1       9.521  -4.004  -4.723  1.00  0.00     0.065 A 
HETATM    4  C4  UNL     1      10.115  -2.747  -4.772  1.00  0.00     0.038 A 
HETATM    5  C5  UNL     1      10.959  -2.429  -5.840  1.00  0.00     0.026 A 
HETATM    6  C6  UNL     1      11.245  -3.371  -6.834  1.00  0.00     0.005 A 
ENDROOT
BRANCH   6   7
HETATM    7  N1  UNL     1      11.994  -3.004  -7.957  1.00  0.00    -0.303 NA
HETATM    8  H5  UNL     1      12.993  -3.142  -7.844  1.00  0.00     0.124 HD
HETATM    9  H6  UNL     1      11.769  -2.083  -8.318  1.00  0.00     0.124 HD
ENDBRANCH   6   7
BRANCH   3  10
HETATM   10  O1  UNL     1       8.690  -4.358  -3.704  1.00  0.00    -0.361 OA
HETATM   11  H7  UNL     1       7.775  -4.184  -3.975  1.00  0.00     0.217 HD
ENDBRANCH   3  10
TORSDOF 2
ENDMDL
MODEL 2
REMARK VINA RESULT:      -4.3      2.801      3.698
REMARK  2 active torsions:
REMARK  status: ('A' for Active; 'I' for Inactive)
REMARK    1  A    between atoms: C3_3  and  O1_8 
REMARK    2  A    between atoms: C6_6  and  N1_7 
ROOT
HETATM    1  C1  UNL     1      10.477  -2.729  -4.944  1.00  0.00     0.026 A 
HETATM    2  C2  UNL     1      11.315  -2.436  -6.022  1.00  0.00     0.038 A 
HETATM    3  C3  UNL     1      11.546  -3.399  -6.995  1.00  0.00     0.065 A 
HETATM    4  C4  UNL     1      10.938  -4.647  -6.914  1.00  0.00     0.038 A 
HETATM    5  C5  UNL     1      10.101  -4.933  -5.831  1.00  0.00     0.026 A 
HETATM    6  C6  UNL     1       9.903  -3.997  -4.811  1.00  0.00     0.005 A 
ENDROOT
BRANCH   6   7
HETATM    7  N1  UNL     1       8.973  -4.247  -3.796  1.00  0.00    -0.303 NA
HETATM    8  H5  UNL     1       8.173  -4.793  -4.101  1.00  0.00     0.124 HD
HETATM    9  H6  UNL     1       8.700  -3.420  -3.276  1.00  0.00     0.124 HD
ENDBRANCH   6   7
BRANCH   3  10
HETATM   10  O1  UNL     1      12.367  -3.074  -8.032  1.00  0.00    -0.361 OA
HETATM   11  H7  UNL     1      13.126  -2.580  -7.684  1.00  0.00     0.217 HD
ENDBRANCH   3  10
TORSDOF 2
ENDMDL
MODEL 3
REMARK VINA RESULT:      -4.3      0.259      1.718
REMARK  2 active torsions:
REMARK  status: ('A' for Active; 'I' for Inactive)
REMARK    1  A    between atoms: C3_3  and  O1_8 
REMARK    2  A    between atoms: C6_6  and  N1_7 
ROOT
HETATM    1  C1  UNL     1      11.070  -2.466  -5.948  1.00  0.00     0.026 A 
HETATM    2  C2  UNL     1      10.197  -2.788  -4.905  1.00  0.00     0.038 A 
HETATM    3  C3  UNL     1       9.687  -4.074  -4.808  1.00  0.00     0.065 A 
HETATM    4  C4  UNL     1      10.048  -5.051  -5.730  1.00  0.00     0.038 A 
HETATM    5  C5  UNL     1      10.920  -4.721  -6.771  1.00  0.00     0.026 A 
HETATM    6  C6  UNL     1      11.399  -3.415  -6.920  1.00  0.00     0.005 A 
ENDROOT
BRANCH   6   7
HETATM    7  N1  UNL     1      12.363  -3.124  -7.892  1.00  0.00    -0.303 NA
HETATM    8  H5  UNL     1      11.978  -2.721  -8.740  1.00  0.00     0.124 HD
HETATM    9  H6  UNL     1      12.998  -3.892  -8.083  1.00  0.00     0.124 HD
ENDBRANCH   6   7
BRANCH   3  10
HETATM   10  O1  UNL     1       8.841  -4.349  -3.776  1.00  0.00    -0.361 OA
HETATM   11  H7  UNL     1       8.629  -3.519  -3.320  1.00  0.00     0.217 HD
ENDBRANCH   3  10
TORSDOF 2
ENDMDL
MODEL 4
REMARK VINA RESULT:      -4.3      2.797      3.279
REMARK  2 active torsions:
REMARK  status: ('A' for Active; 'I' for Inactive)
REMARK    1  A    between atoms: C3_3  and  O1_8 
REMARK    2  A    between atoms: C6_6  and  N1_7 
ROOT
HETATM    1  C1  UNL     1      10.055  -4.903  -5.888  1.00  0.00     0.026 A 
HETATM    2  C2  UNL     1      10.940  -4.609  -6.927  1.00  0.00     0.038 A 
HETATM    3  C3  UNL     1      11.521  -3.351  -7.000  1.00  0.00     0.065 A 
HETATM    4  C4  UNL     1      11.243  -2.385  -6.039  1.00  0.00     0.038 A 
HETATM    5  C5  UNL     1      10.354  -2.687  -5.002  1.00  0.00     0.026 A 
HETATM    6  C6  UNL     1       9.714  -3.929  -4.945  1.00  0.00     0.005 A 
ENDROOT
BRANCH   6   7
HETATM    7  N1  UNL     1       8.921  -4.263  -3.841  1.00  0.00    -0.303 NA
HETATM    8  H5  UNL     1       7.977  -4.546  -4.088  1.00  0.00     0.124 HD
HETATM    9  H6  UNL     1       8.934  -3.569  -3.101  1.00  0.00     0.124 HD
ENDBRANCH   6   7
BRANCH   3  10
HETATM   10  O1  UNL     1      12.382  -3.103  -8.027  1.00  0.00    -0.361 OA
HETATM   11  H7  UNL     1      12.949  -3.881  -8.150  1.00  0.00     0.217 HD
ENDBRANCH   3  10
TORSDOF 2
ENDMDL
MODEL 5
REMARK VINA RESULT:      -4.1      2.238      2.860
REMARK  2 active torsions:
REMARK  status: ('A' for Active; 'I' for Inactive)
REMARK    1  A    between atoms: C3_3  and  O1_8 
REMARK    2  A    between atoms: C6_6  and  N1_7 
ROOT
HETATM    1  C1  UNL     1      12.049  -3.867  -7.782  1.00  0.00     0.026 A 
HETATM    2  C2  UNL     1      11.982  -5.260  -7.870  1.00  0.00     0.038 A 
HETATM    3  C3  UNL     1      11.285  -5.977  -6.908  1.00  0.00     0.065 A 
HETATM    4  C4  UNL     1      10.638  -5.320  -5.867  1.00  0.00     0.038 A 
HETATM    5  C5  UNL     1      10.710  -3.927  -5.785  1.00  0.00     0.026 A 
HETATM    6  C6  UNL     1      11.457  -3.191  -6.711  1.00  0.00     0.005 A 
ENDROOT
BRANCH   6   7
HETATM    7  N1  UNL     1      11.424  -1.792  -6.691  1.00  0.00    -0.303 NA
HETATM    8  H5  UNL     1      10.488  -1.405  -6.749  1.00  0.00     0.124 HD
HETATM    9  H6  UNL     1      12.064  -1.358  -7.348  1.00  0.00     0.124 HD
ENDBRANCH   6   7
BRANCH   3  10
HETATM   10  O1  UNL     1      11.241  -7.333  -7.030  1.00  0.00    -0.361 OA
HETATM   11  H7  UNL     1      11.025  -7.555  -7.950  1.00  0.00     0.217 HD
ENDBRANCH   3  10
TORSDOF 2
ENDMDL
MODEL 6
REMARK VINA RESULT:      -4.1      2.594      3.339
REMARK  2 active torsions:
REMARK  status: ('A' for Active; 'I' for Inactive)
REMARK    1  A    between atoms: C3_3  and  O1_8 
REMARK    2  A    between atoms: C6_6  and  N1_7 
ROOT
HETATM    1  C1  UNL     1      10.702  -5.185  -5.893  1.00  0.00     0.026 A 
HETATM    2  C2  UNL     1      10.736  -3.789  -5.846  1.00  0.00     0.038 A 
HETATM    3  C3  UNL     1      11.452  -3.086  -6.804  1.00  0.00     0.065 A 
HETATM    4  C4  UNL     1      12.124  -3.757  -7.820  1.00  0.00     0.038 A 
HETATM    5  C5  UNL     1      12.087  -5.154  -7.860  1.00  0.00     0.026 A 
HETATM    6  C6  UNL     1      11.420  -5.883  -6.870  1.00  0.00     0.005 A 
ENDROOT
BRANCH   6   7
HETATM    7  N1  UNL     1      11.288  -7.271  -6.985  1.00  0.00    -0.303 NA
HETATM    8  H5  UNL     1      12.039  -7.790  -6.541  1.00  0.00     0.124 HD
HETATM    9  H6  UNL     1      11.105  -7.589  -7.930  1.00  0.00     0.124 HD
ENDBRANCH   6   7
BRANCH   3  10
HETATM   10  O1  UNL     1      11.458  -1.726  -6.726  1.00  0.00    -0.361 OA
HETATM   11  H7  UNL     1      11.657  -1.469  -5.811  1.00  0.00     0.217 HD
ENDBRANCH   3  10
TORSDOF 2
ENDMDL
MODEL 7
REMARK VINA RESULT:      -4.1      3.391      4.325
REMARK  2 active torsions:
REMARK  status: ('A' for Active; 'I' for Inactive)
REMARK    1  A    between atoms: C3_3  and  O1_8 
REMARK    2  A    between atoms: C6_6  and  N1_7 
ROOT
HETATM    1  C1  UNL     1      10.954  -4.201  -6.805  1.00  0.00     0.026 A 
HETATM    2  C2  UNL     1      12.047  -3.534  -7.362  1.00  0.00     0.038 A 
HETATM    3  C3  UNL     1      13.217  -4.232  -7.628  1.00  0.00     0.065 A 
HETATM    4  C4  UNL     1      13.304  -5.594  -7.360  1.00  0.00     0.038 A 
HETATM    5  C5  UNL     1      12.206  -6.255  -6.802  1.00  0.00     0.026 A 
HETATM    6  C6  UNL     1      11.040  -5.556  -6.473  1.00  0.00     0.005 A 
ENDROOT
BRANCH   6   7
HETATM    7  N1  UNL     1       9.908  -6.246  -6.026  1.00  0.00    -0.303 NA
HETATM    8  H5  UNL     1       9.150  -6.268  -6.702  1.00  0.00     0.124 HD
HETATM    9  H6  UNL     1       9.594  -5.966  -5.103  1.00  0.00     0.124 HD
ENDBRANCH   6   7
BRANCH   3  10
HETATM   10  O1  UNL     1      14.260  -3.546  -8.174  1.00  0.00    -0.361 OA
HETATM   11  H7  UNL     1      13.910  -2.773  -8.645  1.00  0.00     0.217 HD
ENDBRANCH   3  10
TORSDOF 2
ENDMDL
MODEL 8
REMARK VINA RESULT:      -4.1      2.233      2.975
REMARK  2 active torsions:
REMARK  status: ('A' for Active; 'I' for Inactive)
REMARK    1  A    between atoms: C3_3  and  O1_8 
REMARK    2  A    between atoms: C6_6  and  N1_7 
ROOT
HETATM    1  C1  UNL     1      10.650  -3.959  -5.850  1.00  0.00     0.026 A 
HETATM    2  C2  UNL     1      10.610  -5.353  -5.922  1.00  0.00     0.038 A 
HETATM    3  C3  UNL     1      11.296  -6.010  -6.933  1.00  0.00     0.065 A 
HETATM    4  C4  UNL     1      12.036  -5.294  -7.867  1.00  0.00     0.038 A 
HETATM    5  C5  UNL     1      12.071  -3.898  -7.790  1.00  0.00     0.026 A 
HETATM    6  C6  UNL     1      11.339  -3.215  -6.813  1.00  0.00     0.005 A 
ENDROOT
BRANCH   6   7
HETATM    7  N1  UNL     1      11.475  -1.830  -6.671  1.00  0.00    -0.303 NA
HETATM    8  H5  UNL     1      12.417  -1.535  -6.435  1.00  0.00     0.124 HD
HETATM    9  H6  UNL     1      10.776  -1.409  -6.069  1.00  0.00     0.124 HD
ENDBRANCH   6   7
BRANCH   3  10
HETATM   10  O1  UNL     1      11.234  -7.371  -6.968  1.00  0.00    -0.361 OA
HETATM   11  H7  UNL     1      10.524  -7.664  -6.373  1.00  0.00     0.217 HD
ENDBRANCH   3  10
TORSDOF 2
ENDMDL
MODEL 9
REMARK VINA RESULT:      -4.0      2.589      3.226
REMARK  2 active torsions:
REMARK  status: ('A' for Active; 'I' for Inactive)
REMARK    1  A    between atoms: C3_3  and  O1_8 
REMARK    2  A    between atoms: C6_6  and  N1_7 
ROOT
HETATM    1  C1  UNL     1      12.016  -5.085  -7.902  1.00  0.00     0.026 A 
HETATM    2  C2  UNL     1      12.098  -3.695  -7.789  1.00  0.00     0.038 A 
HETATM    3  C3  UNL     1      11.514  -3.058  -6.704  1.00  0.00     0.065 A 
HETATM    4  C4  UNL     1      10.862  -3.792  -5.719  1.00  0.00     0.038 A 
HETATM    5  C5  UNL     1      10.783  -5.182  -5.839  1.00  0.00     0.026 A 
HETATM    6  C6  UNL     1      11.314  -5.837  -6.955  1.00  0.00     0.005 A 
ENDROOT
BRANCH   6   7
HETATM    7  N1  UNL     1      11.335  -7.235  -7.009  1.00  0.00    -0.303 NA
HETATM    8  H5  UNL     1      11.330  -7.607  -7.953  1.00  0.00     0.124 HD
HETATM    9  H6  UNL     1      10.642  -7.679  -6.415  1.00  0.00     0.124 HD
ENDBRANCH   6   7
BRANCH   3  10
HETATM   10  O1  UNL     1      11.618  -1.701  -6.628  1.00  0.00    -0.361 OA
HETATM   11  H7  UNL     1      12.102  -1.384  -7.407  1.00  0.00     0.217 HD
ENDBRANCH   3  10
TORSDOF 2
ENDMDL
MODEL 10
REMARK VINA RESULT:      -3.9      2.557      3.209
REMARK  2 active torsions:
REMARK  status: ('A' for Active; 'I' for Inactive)
REMARK    1  A    between atoms: C3_3  and  O1_8 
REMARK    2  A    between atoms: C6_6  and  N1_7 
ROOT
HETATM    1  C1  UNL     1       9.800  -3.884  -5.103  1.00  0.00     0.026 A 
HETATM    2  C2  UNL     1      10.560  -2.736  -4.862  1.00  0.00     0.038 A 
HETATM    3  C3  UNL     1      11.921  -2.743  -5.132  1.00  0.00     0.065 A 
HETATM    4  C4  UNL     1      12.533  -3.877  -5.655  1.00  0.00     0.038 A 
HETATM    5  C5  UNL     1      11.767  -5.022  -5.892  1.00  0.00     0.026 A 
HETATM    6  C6  UNL     1      10.406  -5.054  -5.572  1.00  0.00     0.005 A 
ENDROOT
BRANCH   6   7
HETATM    7  N1  UNL     1       9.625  -6.161  -5.923  1.00  0.00    -0.303 NA
HETATM    8  H5  UNL     1      10.136  -6.877  -6.429  1.00  0.00     0.124 HD
HETATM    9  H6  UNL     1       8.750  -5.918  -6.375  1.00  0.00     0.124 HD
ENDBRANCH   6   7
BRANCH   3  10
HETATM   10  O1  UNL     1      12.626  -1.604  -4.886  1.00  0.00    -0.361 OA
HETATM   11  H7  UNL     1      12.689  -1.095  -5.710  1.00  0.00     0.217 HD
ENDBRANCH   3  10
TORSDOF 2
ENDMDL
MODEL 11
REMARK VINA RESULT:      -3.8      1.531      2.293
REMARK  2 active torsions:
REMARK  status: ('A' for Active; 'I' for Inactive)
REMARK    1  A    between atoms: C3_3  and  O1_8 
REMARK    2  A    between atoms: C6_6  and  N1_7 
ROOT
HETATM    1  C1  UNL     1      10.381  -2.998  -4.548  1.00  0.00     0.026 A 
HETATM    2  C2  UNL     1       9.506  -4.071  -4.733  1.00  0.00     0.038 A 
HETATM    3  C3  UNL     1       9.748  -4.990  -5.743  1.00  0.00     0.065 A 
HETATM    4  C4  UNL     1      10.864  -4.863  -6.564  1.00  0.00     0.038 A 
HETATM    5  C5  UNL     1      11.735  -3.786  -6.374  1.00  0.00     0.026 A 
HETATM    6  C6  UNL     1      11.476  -2.817  -5.400  1.00  0.00     0.005 A 
ENDROOT
BRANCH   6   7
HETATM    7  N1  UNL     1      12.413  -1.812  -5.139  1.00  0.00    -0.303 NA
HETATM    8  H5  UNL     1      12.014  -0.983  -4.709  1.00  0.00     0.124 HD
HETATM    9  H6  UNL     1      13.006  -1.588  -5.931  1.00  0.00     0.124 HD
ENDBRANCH   6   7
BRANCH   3  10
HETATM   10  O1  UNL     1       8.873  -6.024  -5.889  1.00  0.00    -0.361 OA
HETATM   11  H7  UNL     1       7.970  -5.682  -5.792  1.00  0.00     0.217 HD
ENDBRANCH   3  10
TORSDOF 2
ENDMDL
MODEL 12
REMARK VINA RESULT:      -3.7      3.386      4.295
REMARK  2 active torsions:
REMARK  status: ('A' for Active; 'I' for Inactive)
REMARK    1  A    between atoms: C3_3  and  O1_8 
REMARK    2  A    between atoms: C6_6  and  N1_7 
ROOT
HETATM    1  C1  UNL     1      11.093  -6.114  -6.531  1.00  0.00     0.026 A 
HETATM    2  C2  UNL     1      11.085  -4.747  -6.820  1.00  0.00     0.038 A 
HETATM    3  C3  UNL     1      11.906  -4.251  -7.822  1.00  0.00     0.065 A 
HETATM    4  C4  UNL     1      12.726  -5.104  -8.552  1.00  0.00     0.038 A 
HETATM    5  C5  UNL     1      12.730  -6.471  -8.257  1.00  0.00     0.026 A 
HETATM    6  C6  UNL     1      11.953  -6.981  -7.212  1.00  0.00     0.005 A 
ENDROOT
BRANCH   6   7
HETATM    7  N1  UNL     1      11.873  -8.362  -7.002  1.00  0.00    -0.303 NA
HETATM    8  H5  UNL     1      11.639  -8.889  -7.838  1.00  0.00     0.124 HD
HETATM    9  H6  UNL     1      11.300  -8.624  -6.207  1.00  0.00     0.124 HD
ENDBRANCH   6   7
BRANCH   3  10
HETATM   10  O1  UNL     1      11.867  -2.913  -8.075  1.00  0.00    -0.361 OA
HETATM   11  H7  UNL     1      11.242  -2.499  -7.460  1.00  0.00     0.217 HD
ENDBRANCH   3  10
TORSDOF 2
ENDMDL
MODEL 13
REMARK VINA RESULT:      -3.7      2.341      2.678
REMARK  2 active torsions:
REMARK  status: ('A' for Active; 'I' for Inactive)
REMARK    1  A    between atoms: C3_3  and  O1_8 
REMARK    2  A    between atoms: C6_6  and  N1_7 
ROOT
HETATM    1  C1  UNL     1      11.209  -4.449  -6.522  1.00  0.00     0.026 A 
HETATM    2  C2  UNL     1      12.238  -4.355  -5.582  1.00  0.00     0.038 A 
HETATM    3  C3  UNL     1      11.931  -4.191  -4.239  1.00  0.00     0.065 A 
HETATM    4  C4  UNL     1      10.607  -4.135  -3.818  1.00  0.00     0.038 A 
HETATM    5  C5  UNL     1       9.582  -4.228  -4.764  1.00  0.00     0.026 A 
HETATM    6  C6  UNL     1       9.872  -4.335  -6.128  1.00  0.00     0.005 A 
ENDROOT
BRANCH   6   7
HETATM    7  N1  UNL     1       8.844  -4.547  -7.053  1.00  0.00    -0.303 NA
HETATM    8  H5  UNL     1       8.354  -5.427  -6.924  1.00  0.00     0.124 HD
HETATM    9  H6  UNL     1       9.122  -4.398  -8.017  1.00  0.00     0.124 HD
ENDBRANCH   6   7
BRANCH   3  10
HETATM   10  O1  UNL     1      12.963  -4.106  -3.353  1.00  0.00    -0.361 OA
HETATM   11  H7  UNL     1      13.228  -5.005  -3.100  1.00  0.00     0.217 HD
ENDBRANCH   3  10
TORSDOF 2
ENDMDL
MODEL 14
REMARK VINA RESULT:      -3.7      1.662      2.398
REMARK  2 active torsions:
REMARK  status: ('A' for Active; 'I' for Inactive)
REMARK    1  A    between atoms: C3_3  and  O1_8 
REMARK    2  A    between atoms: C6_6  and  N1_7 
ROOT
HETATM    1  C1  UNL     1      11.844  -3.453  -7.472  1.00  0.00     0.026 A 
HETATM    2  C2  UNL     1      11.534  -2.480  -6.518  1.00  0.00     0.038 A 
HETATM    3  C3  UNL     1      10.730  -2.808  -5.436  1.00  0.00     0.065 A 
HETATM    4  C4  UNL     1      10.243  -4.102  -5.283  1.00  0.00     0.038 A 
HETATM    5  C5  UNL     1      10.556  -5.070  -6.242  1.00  0.00     0.026 A 
HETATM    6  C6  UNL     1      11.316  -4.743  -7.370  1.00  0.00     0.005 A 
ENDROOT
BRANCH   6   7
HETATM    7  N1  UNL     1      11.722  -5.744  -8.260  1.00  0.00    -0.303 NA
HETATM    8  H5  UNL     1      11.880  -6.644  -7.817  1.00  0.00     0.124 HD
HETATM    9  H6  UNL     1      12.491  -5.470  -8.862  1.00  0.00     0.124 HD
ENDBRANCH   6   7
BRANCH   3  10
HETATM   10  O1  UNL     1      10.454  -1.832  -4.527  1.00  0.00    -0.361 OA
HETATM   11  H7  UNL     1       9.514  -1.601  -4.597  1.00  0.00     0.217 HD
ENDBRANCH   3  10
TORSDOF 2
ENDMDL
MODEL 15
REMARK VINA RESULT:      -3.6      3.047      3.855
REMARK  2 active torsions:
REMARK  status: ('A' for Active; 'I' for Inactive)
REMARK    1  A    between atoms: C3_3  and  O1_8 
REMARK    2  A    between atoms: C6_6  and  N1_7 
ROOT
HETATM    1  C1  UNL     1      13.371  -4.487  -7.480  1.00  0.00     0.026 A 
HETATM    2  C2  UNL     1      13.714  -5.823  -7.266  1.00  0.00     0.038 A 
HETATM    3  C3  UNL     1      12.739  -6.729  -6.874  1.00  0.00     0.065 A 
HETATM    4  C4  UNL     1      11.420  -6.322  -6.708  1.00  0.00     0.038 A 
HETATM    5  C5  UNL     1      11.084  -4.982  -6.924  1.00  0.00     0.026 A 
HETATM    6  C6  UNL     1      12.063  -4.043  -7.262  1.00  0.00     0.005 A 
ENDROOT
BRANCH   6   7
HETATM    7  N1  UNL     1      11.699  -2.732  -7.591  1.00  0.00    -0.303 NA
HETATM    8  H5  UNL     1      12.345  -2.277  -8.228  1.00  0.00     0.124 HD
HETATM    9  H6  UNL     1      11.476  -2.154  -6.788  1.00  0.00     0.124 HD
ENDBRANCH   6   7
BRANCH   3  10
HETATM   10  O1  UNL     1      13.113  -8.025  -6.677  1.00  0.00    -0.361 OA
HETATM   11  H7  UNL     1      13.486  -8.369  -7.504  1.00  0.00     0.217 HD
ENDBRANCH   3  10
TORSDOF 2
ENDMDL
MODEL 16
REMARK VINA RESULT:      -3.5      3.368      3.955
REMARK  2 active torsions:
REMARK  status: ('A' for Active; 'I' for Inactive)
REMARK    1  A    between atoms: C3_3  and  O1_8 
REMARK    2  A    between atoms: C6_6  and  N1_7 
ROOT
HETATM    1  C1  UNL     1      12.065  -4.104  -4.023  1.00  0.00     0.026 A 
HETATM    2  C2  UNL     1      13.328  -3.722  -4.479  1.00  0.00     0.038 A 
HETATM    3  C3  UNL     1      13.518  -3.443  -5.825  1.00  0.00     0.065 A 
HETATM    4  C4  UNL     1      12.458  -3.523  -6.721  1.00  0.00     0.038 A 
HETATM    5  C5  UNL     1      11.196  -3.908  -6.257  1.00  0.00     0.026 A 
HETATM    6  C6  UNL     1      10.999  -4.250  -4.916  1.00  0.00     0.005 A 
ENDROOT
BRANCH   6   7
HETATM    7  N1  UNL     1       9.710  -4.517  -4.439  1.00  0.00    -0.303 NA
HETATM    8  H5  UNL     1       9.080  -3.724  -4.500  1.00  0.00     0.124 HD
HETATM    9  H6  UNL     1       9.694  -4.954  -3.523  1.00  0.00     0.124 HD
ENDBRANCH   6   7
BRANCH   3  10
HETATM   10  O1  UNL     1      14.764  -3.071  -6.231  1.00  0.00    -0.361 OA
HETATM   11  H7  UNL     1      15.080  -3.711  -6.888  1.00  0.00     0.217 HD
ENDBRANCH   3  10
TORSDOF 2
ENDMDL
MODEL 17
REMARK VINA RESULT:      -3.5      2.860      3.291
REMARK  2 active torsions:
REMARK  status: ('A' for Active; 'I' for Inactive)
REMARK    1  A    between atoms: C3_3  and  O1_8 
REMARK    2  A    between atoms: C6_6  and  N1_7 
ROOT
HETATM    1  C1  UNL     1      11.148  -4.762  -5.068  1.00  0.00     0.026 A 
HETATM    2  C2  UNL     1      10.599  -4.905  -6.344  1.00  0.00     0.038 A 
HETATM    3  C3  UNL     1      11.230  -4.321  -7.434  1.00  0.00     0.065 A 
HETATM    4  C4  UNL     1      12.413  -3.609  -7.269  1.00  0.00     0.038 A 
HETATM    5  C5  UNL     1      12.956  -3.469  -5.988  1.00  0.00     0.026 A 
HETATM    6  C6  UNL     1      12.303  -4.000  -4.870  1.00  0.00     0.005 A 
ENDROOT
BRANCH   6   7
HETATM    7  N1  UNL     1      12.914  -3.957  -3.612  1.00  0.00    -0.303 NA
HETATM    8  H5  UNL     1      13.897  -4.209  -3.627  1.00  0.00     0.124 HD
HETATM    9  H6  UNL     1      12.400  -4.451  -2.889  1.00  0.00     0.124 HD
ENDBRANCH   6   7
BRANCH   3  10
HETATM   10  O1  UNL     1      10.665  -4.486  -8.663  1.00  0.00    -0.361 OA
HETATM   11  H7  UNL     1       9.765  -4.828  -8.546  1.00  0.00     0.217 HD
ENDBRANCH   3  10
TORSDOF 2
ENDMDL
MODEL 18
REMARK VINA RESULT:      -3.5      1.982      2.441
REMARK  2 active torsions:
REMARK  status: ('A' for Active; 'I' for Inactive)
REMARK    1  A    between atoms: C3_3  and  O1_8 
REMARK    2  A    between atoms: C6_6  and  N1_7 
ROOT
HETATM    1  C1  UNL     1      12.011  -3.597  -7.465  1.00  0.00     0.026 A 
HETATM    2  C2  UNL     1      11.042  -3.227  -6.531  1.00  0.00     0.038 A 
HETATM    3  C3  UNL     1      11.432  -2.766  -5.281  1.00  0.00     0.065 A 
HETATM    4  C4  UNL     1      12.779  -2.653  -4.957  1.00  0.00     0.038 A 
HETATM    5  C5  UNL     1      13.744  -3.027  -5.898  1.00  0.00     0.026 A 
HETATM    6  C6  UNL     1      13.370  -3.549  -7.140  1.00  0.00     0.005 A 
ENDROOT
BRANCH   6   7
HETATM    7  N1  UNL     1      14.339  -3.807  -8.117  1.00  0.00    -0.303 NA
HETATM    8  H5  UNL     1      14.890  -4.640  -7.934  1.00  0.00     0.124 HD
HETATM    9  H6  UNL     1      14.916  -3.004  -8.344  1.00  0.00     0.124 HD
ENDBRANCH   6   7
BRANCH   3  10
HETATM   10  O1  UNL     1      10.456  -2.412  -4.398  1.00  0.00    -0.361 OA
HETATM   11  H7  UNL     1      10.667  -2.798  -3.533  1.00  0.00     0.217 HD
ENDBRANCH   3  10
TORSDOF 2
ENDMDL
MODEL 19
REMARK VINA RESULT:      -3.4      3.099      3.812
REMARK  2 active torsions:
REMARK  status: ('A' for Active; 'I' for Inactive)
REMARK    1  A    between atoms: C3_3  and  O1_8 
REMARK    2  A    between atoms: C6_6  and  N1_7 
ROOT
HETATM    1  C1  UNL     1      12.148  -2.603  -5.713  1.00  0.00     0.026 A 
HETATM    2  C2  UNL     1      12.911  -2.769  -4.555  1.00  0.00     0.038 A 
HETATM    3  C3  UNL     1      14.047  -3.567  -4.588  1.00  0.00     0.065 A 
HETATM    4  C4  UNL     1      14.441  -4.188  -5.768  1.00  0.00     0.038 A 
HETATM    5  C5  UNL     1      13.672  -4.018  -6.922  1.00  0.00     0.026 A 
HETATM    6  C6  UNL     1      12.492  -3.267  -6.894  1.00  0.00     0.005 A 
ENDROOT
BRANCH   6   7
HETATM    7  N1  UNL     1      11.795  -3.005  -8.079  1.00  0.00    -0.303 NA
HETATM    8  H5  UNL     1      12.266  -3.344  -8.913  1.00  0.00     0.124 HD
HETATM    9  H6  UNL     1      11.491  -2.042  -8.172  1.00  0.00     0.124 HD
ENDBRANCH   6   7
BRANCH   3  10
HETATM   10  O1  UNL     1      14.766  -3.701  -3.438  1.00  0.00    -0.361 OA
HETATM   11  H7  UNL     1      14.161  -3.619  -2.684  1.00  0.00     0.217 HD
ENDBRANCH   3  10
TORSDOF 2
ENDMDL
