MODEL 1
REMARK VINA RESULT:      -3.2      0.000      0.000
REMARK  2 active torsions:
REMARK  status: ('A' for Active; 'I' for Inactive)
REMARK    1  A    between atoms: C3_3  and  O1_8 
REMARK    2  A    between atoms: C6_6  and  N1_7 
ROOT
HETATM    1  C1  UNL     1      19.028  12.978  10.704  1.00  0.00     0.026 A 
HETATM    2  C2  UNL     1      18.856  12.581  12.032  1.00  0.00     0.038 A 
HETATM    3  C3  UNL     1      17.692  12.922  12.707  1.00  0.00     0.065 A 
HETATM    4  C4  UNL     1      16.688  13.640  12.067  1.00  0.00     0.038 A 
HETATM    5  C5  UNL     1      16.868  14.035  10.738  1.00  0.00     0.026 A 
HETATM    6  C6  UNL     1      18.058  13.752  10.061  1.00  0.00     0.005 A 
ENDROOT
BRANCH   6   7
HETATM    7  N1  UNL     1      18.180  14.046   8.698  1.00  0.00    -0.303 NA
HETATM    8  H5  UNL     1      17.402  14.582   8.325  1.00  0.00     0.124 HD
HETATM    9  H6  UNL     1      18.406  13.242   8.123  1.00  0.00     0.124 HD
ENDBRANCH   6   7
BRANCH   3  10
HETATM   10  O1  UNL     1      17.561  12.514  14.000  1.00  0.00    -0.361 OA
HETATM   11  H7  UNL     1      17.027  13.168  14.479  1.00  0.00     0.217 HD
ENDBRANCH   3  10
TORSDOF 2
ENDMDL
MODEL 2
REMARK VINA RESULT:      -3.1      2.780      3.265
REMARK  2 active torsions:
REMARK  status: ('A' for Active; 'I' for Inactive)
REMARK    1  A    between atoms: C3_3  and  O1_8 
REMARK    2  A    between atoms: C6_6  and  N1_7 
ROOT
HETATM    1  C1  UNL     1      18.772  12.590  11.950  1.00  0.00     0.026 A 
HETATM    2  C2  UNL     1      18.887  12.988  10.617  1.00  0.00     0.038 A 
HETATM    3  C3  UNL     1      17.883  13.750  10.037  1.00  0.00     0.065 A 
HETATM    4  C4  UNL     1      16.770  14.135  10.776  1.00  0.00     0.038 A 
HETATM    5  C5  UNL     1      16.661  13.732  12.110  1.00  0.00     0.026 A 
HETATM    6  C6  UNL     1      17.634  12.915  12.695  1.00  0.00     0.005 A 
ENDROOT
BRANCH   6   7
HETATM    7  N1  UNL     1      17.576  12.617  14.061  1.00  0.00    -0.303 NA
HETATM    8  H5  UNL     1      18.090  11.780  14.318  1.00  0.00     0.124 HD
HETATM    9  H6  UNL     1      16.636  12.626  14.443  1.00  0.00     0.124 HD
ENDBRANCH   6   7
BRANCH   3  10
HETATM   10  O1  UNL     1      18.034  14.121   8.734  1.00  0.00    -0.361 OA
HETATM   11  H7  UNL     1      18.882  14.582   8.640  1.00  0.00     0.217 HD
ENDBRANCH   3  10
TORSDOF 2
ENDMDL
MODEL 3
REMARK VINA RESULT:      -2.9      9.672     10.440
REMARK  2 active torsions:
REMARK  status: ('A' for Active; 'I' for Inactive)
REMARK    1  A    between atoms: C3_3  and  O1_8 
REMARK    2  A    between atoms: C6_6  and  N1_7 
ROOT
HETATM    1  C1  UNL     1      11.491  14.192  18.488  1.00  0.00     0.026 A 
HETATM    2  C2  UNL     1      11.049  13.971  17.182  1.00  0.00     0.038 A 
HETATM    3  C3  UNL     1      10.266  12.861  16.900  1.00  0.00     0.065 A 
HETATM    4  C4  UNL     1       9.903  11.975  17.909  1.00  0.00     0.038 A 
HETATM    5  C5  UNL     1      10.351  12.202  19.214  1.00  0.00     0.026 A 
HETATM    6  C6  UNL     1      11.189  13.283  19.507  1.00  0.00     0.005 A 
ENDROOT
BRANCH   6   7
HETATM    7  N1  UNL     1      11.533  13.569  20.833  1.00  0.00    -0.303 NA
HETATM    8  H5  UNL     1      11.082  14.401  21.200  1.00  0.00     0.124 HD
HETATM    9  H6  UNL     1      12.532  13.561  21.008  1.00  0.00     0.124 HD
ENDBRANCH   6   7
BRANCH   3  10
HETATM   10  O1  UNL     1       9.852  12.681  15.614  1.00  0.00    -0.361 OA
HETATM   11  H7  UNL     1      10.543  12.200  15.131  1.00  0.00     0.217 HD
ENDBRANCH   3  10
TORSDOF 2
ENDMDL
MODEL 4
REMARK VINA RESULT:      -2.9      9.768     10.159
REMARK  2 active torsions:
REMARK  status: ('A' for Active; 'I' for Inactive)
REMARK    1  A    between atoms: C3_3  and  O1_8 
REMARK    2  A    between atoms: C6_6  and  N1_7 
ROOT
HETATM    1  C1  UNL     1      10.454  13.791  17.916  1.00  0.00     0.026 A 
HETATM    2  C2  UNL     1      10.934  13.683  19.223  1.00  0.00     0.038 A 
HETATM    3  C3  UNL     1      11.262  12.436  19.735  1.00  0.00     0.065 A 
HETATM    4  C4  UNL     1      11.133  11.293  18.953  1.00  0.00     0.038 A 
HETATM    5  C5  UNL     1      10.651  11.409  17.645  1.00  0.00     0.026 A 
HETATM    6  C6  UNL     1      10.260  12.649  17.132  1.00  0.00     0.005 A 
ENDROOT
BRANCH   6   7
HETATM    7  N1  UNL     1       9.893  12.772  15.787  1.00  0.00    -0.303 NA
HETATM    8  H5  UNL     1      10.133  11.962  15.224  1.00  0.00     0.124 HD
HETATM    9  H6  UNL     1      10.189  13.642  15.358  1.00  0.00     0.124 HD
ENDBRANCH   6   7
BRANCH   3  10
HETATM   10  O1  UNL     1      11.728  12.373  21.014  1.00  0.00    -0.361 OA
HETATM   11  H7  UNL     1      12.441  13.023  21.116  1.00  0.00     0.217 HD
ENDBRANCH   3  10
TORSDOF 2
ENDMDL
MODEL 5
REMARK VINA RESULT:      -2.8      9.301     10.061
REMARK  2 active torsions:
REMARK  status: ('A' for Active; 'I' for Inactive)
REMARK    1  A    between atoms: C3_3  and  O1_8 
REMARK    2  A    between atoms: C6_6  and  N1_7 
ROOT
HETATM    1  C1  UNL     1       9.916  12.779  18.090  1.00  0.00     0.026 A 
HETATM    2  C2  UNL     1      10.231  13.459  19.269  1.00  0.00     0.038 A 
HETATM    3  C3  UNL     1      10.908  14.669  19.204  1.00  0.00     0.065 A 
HETATM    4  C4  UNL     1      11.261  15.218  17.976  1.00  0.00     0.038 A 
HETATM    5  C5  UNL     1      10.943  14.531  16.801  1.00  0.00     0.026 A 
HETATM    6  C6  UNL     1      10.314  13.283  16.848  1.00  0.00     0.005 A 
ENDROOT
BRANCH   6   7
HETATM    7  N1  UNL     1       9.894  12.660  15.667  1.00  0.00    -0.303 NA
HETATM    8  H5  UNL     1       9.303  13.246  15.085  1.00  0.00     0.124 HD
HETATM    9  H6  UNL     1       9.503  11.735  15.808  1.00  0.00     0.124 HD
ENDBRANCH   6   7
BRANCH   3  10
HETATM   10  O1  UNL     1      11.195  15.303  20.376  1.00  0.00    -0.361 OA
HETATM   11  H7  UNL     1      10.921  14.733  21.112  1.00  0.00     0.217 HD
ENDBRANCH   3  10
TORSDOF 2
ENDMDL
MODEL 6
REMARK VINA RESULT:      -2.8     10.195     11.188
REMARK  2 active torsions:
REMARK  status: ('A' for Active; 'I' for Inactive)
REMARK    1  A    between atoms: C3_3  and  O1_8 
REMARK    2  A    between atoms: C6_6  and  N1_7 
ROOT
HETATM    1  C1  UNL     1       9.586  13.013  18.250  1.00  0.00     0.026 A 
HETATM    2  C2  UNL     1      10.709  12.477  17.617  1.00  0.00     0.038 A 
HETATM    3  C3  UNL     1      11.065  11.156  17.851  1.00  0.00     0.065 A 
HETATM    4  C4  UNL     1      10.306  10.358  18.699  1.00  0.00     0.038 A 
HETATM    5  C5  UNL     1       9.184  10.902  19.331  1.00  0.00     0.026 A 
HETATM    6  C6  UNL     1       8.842  12.247  19.153  1.00  0.00     0.005 A 
ENDROOT
BRANCH   6   7
HETATM    7  N1  UNL     1       7.653  12.749  19.693  1.00  0.00    -0.303 NA
HETATM    8  H5  UNL     1       7.765  13.158  20.616  1.00  0.00     0.124 HD
HETATM    9  H6  UNL     1       6.876  12.099  19.651  1.00  0.00     0.124 HD
ENDBRANCH   6   7
BRANCH   3  10
HETATM   10  O1  UNL     1      12.166  10.669  17.212  1.00  0.00    -0.361 OA
HETATM   11  H7  UNL     1      12.286  11.161  16.384  1.00  0.00     0.217 HD
ENDBRANCH   3  10
TORSDOF 2
ENDMDL
MODEL 7
REMARK VINA RESULT:      -2.7      9.860     10.751
REMARK  2 active torsions:
REMARK  status: ('A' for Active; 'I' for Inactive)
REMARK    1  A    between atoms: C3_3  and  O1_8 
REMARK    2  A    between atoms: C6_6  and  N1_7 
ROOT
HETATM    1  C1  UNL     1       9.363  12.795  18.371  1.00  0.00     0.026 A 
HETATM    2  C2  UNL     1       9.528  12.309  19.670  1.00  0.00     0.038 A 
HETATM    3  C3  UNL     1      10.419  11.271  19.908  1.00  0.00     0.065 A 
HETATM    4  C4  UNL     1      11.160  10.722  18.867  1.00  0.00     0.038 A 
HETATM    5  C5  UNL     1      10.988  11.213  17.570  1.00  0.00     0.026 A 
HETATM    6  C6  UNL     1      10.053  12.218  17.301  1.00  0.00     0.005 A 
ENDROOT
BRANCH   6   7
HETATM    7  N1  UNL     1       9.974  12.784  16.023  1.00  0.00    -0.303 NA
HETATM    8  H5  UNL     1       9.236  13.475  15.928  1.00  0.00     0.124 HD
HETATM    9  H6  UNL     1       9.963  12.102  15.272  1.00  0.00     0.124 HD
ENDBRANCH   6   7
BRANCH   3  10
HETATM   10  O1  UNL     1      10.554  10.827  21.189  1.00  0.00    -0.361 OA
HETATM   11  H7  UNL     1      10.085  11.438  21.780  1.00  0.00     0.217 HD
ENDBRANCH   3  10
TORSDOF 2
ENDMDL
MODEL 8
REMARK VINA RESULT:      -2.6     10.036     10.975
REMARK  2 active torsions:
REMARK  status: ('A' for Active; 'I' for Inactive)
REMARK    1  A    between atoms: C3_3  and  O1_8 
REMARK    2  A    between atoms: C6_6  and  N1_7 
ROOT
HETATM    1  C1  UNL     1      10.835  12.543  17.803  1.00  0.00     0.026 A 
HETATM    2  C2  UNL     1       9.637  13.016  18.343  1.00  0.00     0.038 A 
HETATM    3  C3  UNL     1       8.822  12.158  19.068  1.00  0.00     0.065 A 
HETATM    4  C4  UNL     1       9.195  10.834  19.274  1.00  0.00     0.038 A 
HETATM    5  C5  UNL     1      10.395  10.367  18.729  1.00  0.00     0.026 A 
HETATM    6  C6  UNL     1      11.200  11.201  17.947  1.00  0.00     0.005 A 
ENDROOT
BRANCH   6   7
HETATM    7  N1  UNL     1      12.454  10.760  17.507  1.00  0.00    -0.303 NA
HETATM    8  H5  UNL     1      12.914  11.406  16.873  1.00  0.00     0.124 HD
HETATM    9  H6  UNL     1      12.454   9.809  17.156  1.00  0.00     0.124 HD
ENDBRANCH   6   7
BRANCH   3  10
HETATM   10  O1  UNL     1       7.664  12.658  19.581  1.00  0.00    -0.361 OA
HETATM   11  H7  UNL     1       7.570  12.348  20.496  1.00  0.00     0.217 HD
ENDBRANCH   3  10
TORSDOF 2
ENDMDL
MODEL 9
REMARK VINA RESULT:      -2.6     13.347     14.117
REMARK  2 active torsions:
REMARK  status: ('A' for Active; 'I' for Inactive)
REMARK    1  A    between atoms: C3_3  and  O1_8 
REMARK    2  A    between atoms: C6_6  and  N1_7 
ROOT
HETATM    1  C1  UNL     1      11.957   2.964  19.631  1.00  0.00     0.026 A 
HETATM    2  C2  UNL     1      10.833   3.385  20.344  1.00  0.00     0.038 A 
HETATM    3  C3  UNL     1       9.906   4.221  19.737  1.00  0.00     0.065 A 
HETATM    4  C4  UNL     1      10.078   4.629  18.419  1.00  0.00     0.038 A 
HETATM    5  C5  UNL     1      11.207   4.205  17.712  1.00  0.00     0.026 A 
HETATM    6  C6  UNL     1      12.181   3.411  18.325  1.00  0.00     0.005 A 
ENDROOT
BRANCH   6   7
HETATM    7  N1  UNL     1      13.244   2.895  17.575  1.00  0.00    -0.303 NA
HETATM    8  H5  UNL     1      12.967   2.542  16.664  1.00  0.00     0.124 HD
HETATM    9  H6  UNL     1      13.824   2.236  18.084  1.00  0.00     0.124 HD
ENDBRANCH   6   7
BRANCH   3  10
HETATM   10  O1  UNL     1       8.821   4.607  20.465  1.00  0.00    -0.361 OA
HETATM   11  H7  UNL     1       9.125   4.914  21.335  1.00  0.00     0.217 HD
ENDBRANCH   3  10
TORSDOF 2
ENDMDL
MODEL 10
REMARK VINA RESULT:      -2.6     13.439     14.249
REMARK  2 active torsions:
REMARK  status: ('A' for Active; 'I' for Inactive)
REMARK    1  A    between atoms: C3_3  and  O1_8 
REMARK    2  A    between atoms: C6_6  and  N1_7 
ROOT
HETATM    1  C1  UNL     1      10.990   3.376  20.301  1.00  0.00     0.026 A 
HETATM    2  C2  UNL     1      12.104   2.977  19.559  1.00  0.00     0.038 A 
HETATM    3  C3  UNL     1      12.226   3.374  18.235  1.00  0.00     0.065 A 
HETATM    4  C4  UNL     1      11.258   4.179  17.645  1.00  0.00     0.038 A 
HETATM    5  C5  UNL     1      10.145   4.574  18.394  1.00  0.00     0.026 A 
HETATM    6  C6  UNL     1       9.975   4.135  19.711  1.00  0.00     0.005 A 
ENDROOT
BRANCH   6   7
HETATM    7  N1  UNL     1       8.922   4.631  20.488  1.00  0.00    -0.303 NA
HETATM    8  H5  UNL     1       8.057   4.110  20.383  1.00  0.00     0.124 HD
HETATM    9  H6  UNL     1       8.783   5.632  20.400  1.00  0.00     0.124 HD
ENDBRANCH   6   7
BRANCH   3  10
HETATM   10  O1  UNL     1      13.328   2.966  17.545  1.00  0.00    -0.361 OA
HETATM   11  H7  UNL     1      13.777   2.276  18.059  1.00  0.00     0.217 HD
ENDBRANCH   3  10
TORSDOF 2
ENDMDL
MODEL 11
REMARK VINA RESULT:      -2.5     10.522     11.443
REMARK  2 active torsions:
REMARK  status: ('A' for Active; 'I' for Inactive)
REMARK    1  A    between atoms: C3_3  and  O1_8 
REMARK    2  A    between atoms: C6_6  and  N1_7 
ROOT
HETATM    1  C1  UNL     1      10.052  10.512  18.662  1.00  0.00     0.026 A 
HETATM    2  C2  UNL     1      10.555  11.267  17.600  1.00  0.00     0.038 A 
HETATM    3  C3  UNL     1      10.142  12.581  17.433  1.00  0.00     0.065 A 
HETATM    4  C4  UNL     1       9.243  13.159  18.323  1.00  0.00     0.038 A 
HETATM    5  C5  UNL     1       8.742  12.397  19.383  1.00  0.00     0.026 A 
HETATM    6  C6  UNL     1       9.102  11.054  19.533  1.00  0.00     0.005 A 
ENDROOT
BRANCH   6   7
HETATM    7  N1  UNL     1       8.690  10.336  20.662  1.00  0.00    -0.303 NA
HETATM    8  H5  UNL     1       7.745   9.972  20.592  1.00  0.00     0.124 HD
HETATM    9  H6  UNL     1       8.853  10.820  21.538  1.00  0.00     0.124 HD
ENDBRANCH   6   7
BRANCH   3  10
HETATM   10  O1  UNL     1      10.658  13.284  16.386  1.00  0.00    -0.361 OA
HETATM   11  H7  UNL     1      11.447  13.761  16.692  1.00  0.00     0.217 HD
ENDBRANCH   3  10
TORSDOF 2
ENDMDL
MODEL 12
REMARK VINA RESULT:      -2.5     10.387     11.286
REMARK  2 active torsions:
REMARK  status: ('A' for Active; 'I' for Inactive)
REMARK    1  A    between atoms: C3_3  and  O1_8 
REMARK    2  A    between atoms: C6_6  and  N1_7 
ROOT
HETATM    1  C1  UNL     1      10.827   9.192  19.828  1.00  0.00     0.026 A 
HETATM    2  C2  UNL     1      11.928   9.645  19.099  1.00  0.00     0.038 A 
HETATM    3  C3  UNL     1      11.769  10.671  18.178  1.00  0.00     0.065 A 
HETATM    4  C4  UNL     1      10.525  11.264  17.987  1.00  0.00     0.038 A 
HETATM    5  C5  UNL     1       9.427  10.804  18.720  1.00  0.00     0.026 A 
HETATM    6  C6  UNL     1       9.556   9.732  19.609  1.00  0.00     0.005 A 
ENDROOT
BRANCH   6   7
HETATM    7  N1  UNL     1       8.481   9.359  20.423  1.00  0.00    -0.303 NA
HETATM    8  H5  UNL     1       7.614   9.217  19.914  1.00  0.00     0.124 HD
HETATM    9  H6  UNL     1       8.358   9.950  21.238  1.00  0.00     0.124 HD
ENDBRANCH   6   7
BRANCH   3  10
HETATM   10  O1  UNL     1      12.868  11.087  17.488  1.00  0.00    -0.361 OA
HETATM   11  H7  UNL     1      12.793  10.779  16.571  1.00  0.00     0.217 HD
ENDBRANCH   3  10
TORSDOF 2
ENDMDL
MODEL 13
REMARK VINA RESULT:      -2.4      1.830      2.331
REMARK  2 active torsions:
REMARK  status: ('A' for Active; 'I' for Inactive)
REMARK    1  A    between atoms: C3_3  and  O1_8 
REMARK    2  A    between atoms: C6_6  and  N1_7 
ROOT
HETATM    1  C1  UNL     1      17.741  12.869  12.476  1.00  0.00     0.026 A 
HETATM    2  C2  UNL     1      18.072  12.754  13.828  1.00  0.00     0.038 A 
HETATM    3  C3  UNL     1      17.422  13.545  14.765  1.00  0.00     0.065 A 
HETATM    4  C4  UNL     1      16.434  14.441  14.371  1.00  0.00     0.038 A 
HETATM    5  C5  UNL     1      16.109  14.551  13.016  1.00  0.00     0.026 A 
HETATM    6  C6  UNL     1      16.793  13.805  12.051  1.00  0.00     0.005 A 
ENDROOT
BRANCH   6   7
HETATM    7  N1  UNL     1      16.381  13.835  10.714  1.00  0.00    -0.303 NA
HETATM    8  H5  UNL     1      15.382  13.702  10.593  1.00  0.00     0.124 HD
HETATM    9  H6  UNL     1      16.928  13.238  10.103  1.00  0.00     0.124 HD
ENDBRANCH   6   7
BRANCH   3  10
HETATM   10  O1  UNL     1      17.771  13.401  16.074  1.00  0.00    -0.361 OA
HETATM   11  H7  UNL     1      16.976  13.512  16.620  1.00  0.00     0.217 HD
ENDBRANCH   3  10
TORSDOF 2
ENDMDL
MODEL 14
REMARK VINA RESULT:      -2.4      8.544      9.180
REMARK  2 active torsions:
REMARK  status: ('A' for Active; 'I' for Inactive)
REMARK    1  A    between atoms: C3_3  and  O1_8 
REMARK    2  A    between atoms: C6_6  and  N1_7 
ROOT
HETATM    1  C1  UNL     1      11.766  13.423  17.853  1.00  0.00     0.026 A 
HETATM    2  C2  UNL     1      13.112  13.058  17.923  1.00  0.00     0.038 A 
HETATM    3  C3  UNL     1      13.459  11.716  17.991  1.00  0.00     0.065 A 
HETATM    4  C4  UNL     1      12.478  10.730  17.973  1.00  0.00     0.038 A 
HETATM    5  C5  UNL     1      11.133  11.103  17.904  1.00  0.00     0.026 A 
HETATM    6  C6  UNL     1      10.761  12.451  17.894  1.00  0.00     0.005 A 
ENDROOT
BRANCH   6   7
HETATM    7  N1  UNL     1       9.423  12.813  17.705  1.00  0.00    -0.303 NA
HETATM    8  H5  UNL     1       8.848  12.066  17.326  1.00  0.00     0.124 HD
HETATM    9  H6  UNL     1       9.300  13.686  17.203  1.00  0.00     0.124 HD
ENDBRANCH   6   7
BRANCH   3  10
HETATM   10  O1  UNL     1      14.783  11.401  18.055  1.00  0.00    -0.361 OA
HETATM   11  H7  UNL     1      15.214  12.001  18.685  1.00  0.00     0.217 HD
ENDBRANCH   3  10
TORSDOF 2
ENDMDL
MODEL 15
REMARK VINA RESULT:      -2.4     10.234     11.239
REMARK  2 active torsions:
REMARK  status: ('A' for Active; 'I' for Inactive)
REMARK    1  A    between atoms: C3_3  and  O1_8 
REMARK    2  A    between atoms: C6_6  and  N1_7 
ROOT
HETATM    1  C1  UNL     1       9.898   9.663  19.653  1.00  0.00     0.026 A 
HETATM    2  C2  UNL     1       9.379  10.676  18.844  1.00  0.00     0.038 A 
HETATM    3  C3  UNL     1      10.222  11.379  17.995  1.00  0.00     0.065 A 
HETATM    4  C4  UNL     1      11.577  11.072  17.930  1.00  0.00     0.038 A 
HETATM    5  C5  UNL     1      12.090  10.058  18.743  1.00  0.00     0.026 A 
HETATM    6  C6  UNL     1      11.267   9.379  19.648  1.00  0.00     0.005 A 
ENDROOT
BRANCH   6   7
HETATM    7  N1  UNL     1      11.763   8.287  20.369  1.00  0.00    -0.303 NA
HETATM    8  H5  UNL     1      11.322   7.405  20.130  1.00  0.00     0.124 HD
HETATM    9  H6  UNL     1      11.801   8.441  21.371  1.00  0.00     0.124 HD
ENDBRANCH   6   7
BRANCH   3  10
HETATM   10  O1  UNL     1       9.676  12.358  17.220  1.00  0.00    -0.361 OA
HETATM   11  H7  UNL     1       9.910  13.220  17.599  1.00  0.00     0.217 HD
ENDBRANCH   3  10
TORSDOF 2
ENDMDL
MODEL 16
REMARK VINA RESULT:      -2.3      9.636     10.537
REMARK  2 active torsions:
REMARK  status: ('A' for Active; 'I' for Inactive)
REMARK    1  A    between atoms: C3_3  and  O1_8 
REMARK    2  A    between atoms: C6_6  and  N1_7 
ROOT
HETATM    1  C1  UNL     1       9.981  13.311  18.256  1.00  0.00     0.026 A 
HETATM    2  C2  UNL     1       9.100  12.308  18.667  1.00  0.00     0.038 A 
HETATM    3  C3  UNL     1       9.543  10.996  18.755  1.00  0.00     0.065 A 
HETATM    4  C4  UNL     1      10.861  10.673  18.453  1.00  0.00     0.038 A 
HETATM    5  C5  UNL     1      11.737  11.681  18.040  1.00  0.00     0.026 A 
HETATM    6  C6  UNL     1      11.294  12.999  17.889  1.00  0.00     0.005 A 
ENDROOT
BRANCH   6   7
HETATM    7  N1  UNL     1      12.205  14.019  17.592  1.00  0.00    -0.303 NA
HETATM    8  H5  UNL     1      12.991  14.064  18.233  1.00  0.00     0.124 HD
HETATM    9  H6  UNL     1      11.773  14.925  17.446  1.00  0.00     0.124 HD
ENDBRANCH   6   7
BRANCH   3  10
HETATM   10  O1  UNL     1       8.654  10.048  19.163  1.00  0.00    -0.361 OA
HETATM   11  H7  UNL     1       7.783  10.464  19.265  1.00  0.00     0.217 HD
ENDBRANCH   3  10
TORSDOF 2
ENDMDL
MODEL 17
REMARK VINA RESULT:      -2.3     10.930     11.821
REMARK  2 active torsions:
REMARK  status: ('A' for Active; 'I' for Inactive)
REMARK    1  A    between atoms: C3_3  and  O1_8 
REMARK    2  A    between atoms: C6_6  and  N1_7 
ROOT
HETATM    1  C1  UNL     1       9.889  10.460  18.976  1.00  0.00     0.026 A 
HETATM    2  C2  UNL     1       9.226  10.624  20.194  1.00  0.00     0.038 A 
HETATM    3  C3  UNL     1       8.658  11.850  20.509  1.00  0.00     0.065 A 
HETATM    4  C4  UNL     1       8.730  12.913  19.615  1.00  0.00     0.038 A 
HETATM    5  C5  UNL     1       9.396  12.742  18.398  1.00  0.00     0.026 A 
HETATM    6  C6  UNL     1      10.025  11.532  18.089  1.00  0.00     0.005 A 
ENDROOT
BRANCH   6   7
HETATM    7  N1  UNL     1      10.585  11.333  16.822  1.00  0.00    -0.303 NA
HETATM    8  H5  UNL     1       9.897  11.212  16.086  1.00  0.00     0.124 HD
HETATM    9  H6  UNL     1      11.304  10.618  16.799  1.00  0.00     0.124 HD
ENDBRANCH   6   7
BRANCH   3  10
HETATM   10  O1  UNL     1       8.017  11.969  21.705  1.00  0.00    -0.361 OA
HETATM   11  H7  UNL     1       8.598  11.624  22.403  1.00  0.00     0.217 HD
ENDBRANCH   3  10
TORSDOF 2
ENDMDL
MODEL 18
REMARK VINA RESULT:      -2.3     12.997     13.418
REMARK  2 active torsions:
REMARK  status: ('A' for Active; 'I' for Inactive)
REMARK    1  A    between atoms: C3_3  and  O1_8 
REMARK    2  A    between atoms: C6_6  and  N1_7 
ROOT
HETATM    1  C1  UNL     1      12.028   5.252  19.260  1.00  0.00     0.026 A 
HETATM    2  C2  UNL     1      11.383   6.229  20.023  1.00  0.00     0.038 A 
HETATM    3  C3  UNL     1      10.003   6.355  19.954  1.00  0.00     0.065 A 
HETATM    4  C4  UNL     1       9.255   5.507  19.145  1.00  0.00     0.038 A 
HETATM    5  C5  UNL     1       9.907   4.533  18.384  1.00  0.00     0.026 A 
HETATM    6  C6  UNL     1      11.302   4.429  18.395  1.00  0.00     0.005 A 
ENDROOT
BRANCH   6   7
HETATM    7  N1  UNL     1      11.936   3.377  17.724  1.00  0.00    -0.303 NA
HETATM    8  H5  UNL     1      11.474   2.480  17.843  1.00  0.00     0.124 HD
HETATM    9  H6  UNL     1      12.934   3.323  17.895  1.00  0.00     0.124 HD
ENDBRANCH   6   7
BRANCH   3  10
HETATM   10  O1  UNL     1       9.411   7.317  20.715  1.00  0.00    -0.361 OA
HETATM   11  H7  UNL     1       9.083   8.018  20.129  1.00  0.00     0.217 HD
ENDBRANCH   3  10
TORSDOF 2
ENDMDL
MODEL 19
REMARK VINA RESULT:      -2.3     13.146     13.601
REMARK  2 active torsions:
REMARK  status: ('A' for Active; 'I' for Inactive)
REMARK    1  A    between atoms: C3_3  and  O1_8 
REMARK    2  A    between atoms: C6_6  and  N1_7 
ROOT
HETATM    1  C1  UNL     1      11.477   6.058  20.017  1.00  0.00     0.026 A 
HETATM    2  C2  UNL     1      12.036   5.089  19.180  1.00  0.00     0.038 A 
HETATM    3  C3  UNL     1      11.212   4.332  18.359  1.00  0.00     0.065 A 
HETATM    4  C4  UNL     1       9.837   4.540  18.350  1.00  0.00     0.038 A 
HETATM    5  C5  UNL     1       9.285   5.510  19.192  1.00  0.00     0.026 A 
HETATM    6  C6  UNL     1      10.092   6.242  20.068  1.00  0.00     0.005 A 
ENDROOT
BRANCH   6   7
HETATM    7  N1  UNL     1       9.548   7.291  20.818  1.00  0.00    -0.303 NA
HETATM    8  H5  UNL     1       8.636   7.081  21.211  1.00  0.00     0.124 HD
HETATM    9  H6  UNL     1       9.567   8.187  20.344  1.00  0.00     0.124 HD
ENDBRANCH   6   7
BRANCH   3  10
HETATM   10  O1  UNL     1      11.795   3.399  17.555  1.00  0.00    -0.361 OA
HETATM   11  H7  UNL     1      11.732   3.700  16.634  1.00  0.00     0.217 HD
ENDBRANCH   3  10
TORSDOF 2
ENDMDL
MODEL 20
REMARK VINA RESULT:      -2.2     10.816     11.526
REMARK  2 active torsions:
REMARK  status: ('A' for Active; 'I' for Inactive)
REMARK    1  A    between atoms: C3_3  and  O1_8 
REMARK    2  A    between atoms: C6_6  and  N1_7 
ROOT
HETATM    1  C1  UNL     1      18.399   4.496  17.912  1.00  0.00     0.026 A 
HETATM    2  C2  UNL     1      17.962   4.561  16.587  1.00  0.00     0.038 A 
HETATM    3  C3  UNL     1      16.643   4.255  16.282  1.00  0.00     0.065 A 
HETATM    4  C4  UNL     1      15.749   3.900  17.286  1.00  0.00     0.038 A 
HETATM    5  C5  UNL     1      16.194   3.835  18.609  1.00  0.00     0.026 A 
HETATM    6  C6  UNL     1      17.533   4.083  18.929  1.00  0.00     0.005 A 
ENDROOT
BRANCH   6   7
HETATM    7  N1  UNL     1      17.941   4.132  20.266  1.00  0.00    -0.303 NA
HETATM    8  H5  UNL     1      18.652   4.834  20.451  1.00  0.00     0.124 HD
HETATM    9  H6  UNL     1      18.183   3.227  20.656  1.00  0.00     0.124 HD
ENDBRANCH   6   7
BRANCH   3  10
HETATM   10  O1  UNL     1      16.255   4.333  14.979  1.00  0.00    -0.361 OA
HETATM   11  H7  UNL     1      16.535   5.192  14.623  1.00  0.00     0.217 HD
ENDBRANCH   3  10
TORSDOF 2
ENDMDL
