MODEL 1
REMARK VINA RESULT:      -5.6      0.000      0.000
REMARK  2 active torsions:
REMARK  status: ('A' for Active; 'I' for Inactive)
REMARK    1  A    between atoms: C3_3  and  O1_8 
REMARK    2  A    between atoms: C6_6  and  N1_7 
ROOT
HETATM    1  C1  UNL     1       9.608   1.647   3.003  1.00  0.00     0.026 A 
HETATM    2  C2  UNL     1       9.186   2.293   4.167  1.00  0.00     0.038 A 
HETATM    3  C3  UNL     1       7.831   2.474   4.401  1.00  0.00     0.065 A 
HETATM    4  C4  UNL     1       6.887   2.003   3.494  1.00  0.00     0.038 A 
HETATM    5  C5  UNL     1       7.317   1.358   2.331  1.00  0.00     0.026 A 
HETATM    6  C6  UNL     1       8.680   1.219   2.050  1.00  0.00     0.005 A 
ENDROOT
BRANCH   6   7
HETATM    7  N1  UNL     1       9.098   0.469   0.945  1.00  0.00    -0.303 NA
HETATM    8  H5  UNL     1       9.233   1.021   0.104  1.00  0.00     0.124 HD
HETATM    9  H6  UNL     1       8.539  -0.361   0.776  1.00  0.00     0.124 HD
ENDBRANCH   6   7
BRANCH   3  10
HETATM   10  O1  UNL     1       7.459   3.107   5.549  1.00  0.00    -0.361 OA
HETATM   11  H7  UNL     1       6.881   3.852   5.319  1.00  0.00     0.217 HD
ENDBRANCH   3  10
TORSDOF 2
ENDMDL
MODEL 2
REMARK VINA RESULT:      -5.6      2.781      3.683
REMARK  2 active torsions:
REMARK  status: ('A' for Active; 'I' for Inactive)
REMARK    1  A    between atoms: C3_3  and  O1_8 
REMARK    2  A    between atoms: C6_6  and  N1_7 
ROOT
HETATM    1  C1  UNL     1       6.992   1.951   3.393  1.00  0.00     0.026 A 
HETATM    2  C2  UNL     1       7.392   1.265   2.243  1.00  0.00     0.038 A 
HETATM    3  C3  UNL     1       8.743   1.075   1.991  1.00  0.00     0.065 A 
HETATM    4  C4  UNL     1       9.702   1.546   2.881  1.00  0.00     0.038 A 
HETATM    5  C5  UNL     1       9.294   2.232   4.029  1.00  0.00     0.026 A 
HETATM    6  C6  UNL     1       7.940   2.485   4.270  1.00  0.00     0.005 A 
ENDROOT
BRANCH   6   7
HETATM    7  N1  UNL     1       7.536   3.066   5.477  1.00  0.00    -0.303 NA
HETATM    8  H5  UNL     1       7.474   2.407   6.247  1.00  0.00     0.124 HD
HETATM    9  H6  UNL     1       6.707   3.645   5.397  1.00  0.00     0.124 HD
ENDBRANCH   6   7
BRANCH   3  10
HETATM   10  O1  UNL     1       9.092   0.399   0.861  1.00  0.00    -0.361 OA
HETATM   11  H7  UNL     1       9.923  -0.074   1.027  1.00  0.00     0.217 HD
ENDBRANCH   3  10
TORSDOF 2
ENDMDL
MODEL 3
REMARK VINA RESULT:      -5.4      1.626      2.094
REMARK  2 active torsions:
REMARK  status: ('A' for Active; 'I' for Inactive)
REMARK    1  A    between atoms: C3_3  and  O1_8 
REMARK    2  A    between atoms: C6_6  and  N1_7 
ROOT
HETATM    1  C1  UNL     1       8.913   2.552   4.454  1.00  0.00     0.026 A 
HETATM    2  C2  UNL     1       7.556   2.876   4.387  1.00  0.00     0.038 A 
HETATM    3  C3  UNL     1       6.760   2.304   3.405  1.00  0.00     0.065 A 
HETATM    4  C4  UNL     1       7.298   1.398   2.497  1.00  0.00     0.038 A 
HETATM    5  C5  UNL     1       8.657   1.080   2.569  1.00  0.00     0.026 A 
HETATM    6  C6  UNL     1       9.487   1.690   3.515  1.00  0.00     0.005 A 
ENDROOT
BRANCH   6   7
HETATM    7  N1  UNL     1      10.817   1.277   3.656  1.00  0.00    -0.303 NA
HETATM    8  H5  UNL     1      11.072   0.508   3.044  1.00  0.00     0.124 HD
HETATM    9  H6  UNL     1      11.095   1.114   4.618  1.00  0.00     0.124 HD
ENDBRANCH   6   7
BRANCH   3  10
HETATM   10  O1  UNL     1       5.441   2.644   3.374  1.00  0.00    -0.361 OA
HETATM   11  H7  UNL     1       5.325   3.378   2.750  1.00  0.00     0.217 HD
ENDBRANCH   3  10
TORSDOF 2
ENDMDL
MODEL 4
REMARK VINA RESULT:      -5.3      2.315      2.857
REMARK  2 active torsions:
REMARK  status: ('A' for Active; 'I' for Inactive)
REMARK    1  A    between atoms: C3_3  and  O1_8 
REMARK    2  A    between atoms: C6_6  and  N1_7 
ROOT
HETATM    1  C1  UNL     1       7.720   2.823   4.358  1.00  0.00     0.026 A 
HETATM    2  C2  UNL     1       9.079   2.505   4.411  1.00  0.00     0.038 A 
HETATM    3  C3  UNL     1       9.604   1.581   3.519  1.00  0.00     0.065 A 
HETATM    4  C4  UNL     1       8.793   0.980   2.562  1.00  0.00     0.038 A 
HETATM    5  C5  UNL     1       7.434   1.302   2.516  1.00  0.00     0.026 A 
HETATM    6  C6  UNL     1       6.874   2.187   3.444  1.00  0.00     0.005 A 
ENDROOT
BRANCH   6   7
HETATM    7  N1  UNL     1       5.541   2.593   3.316  1.00  0.00    -0.303 NA
HETATM    8  H5  UNL     1       4.908   1.840   3.063  1.00  0.00     0.124 HD
HETATM    9  H6  UNL     1       5.417   3.414   2.733  1.00  0.00     0.124 HD
ENDBRANCH   6   7
BRANCH   3  10
HETATM   10  O1  UNL     1      10.935   1.300   3.600  1.00  0.00    -0.361 OA
HETATM   11  H7  UNL     1      11.379   1.675   2.823  1.00  0.00     0.217 HD
ENDBRANCH   3  10
TORSDOF 2
ENDMDL
MODEL 5
REMARK VINA RESULT:      -4.9      2.317      2.961
REMARK  2 active torsions:
REMARK  status: ('A' for Active; 'I' for Inactive)
REMARK    1  A    between atoms: C3_3  and  O1_8 
REMARK    2  A    between atoms: C6_6  and  N1_7 
ROOT
HETATM    1  C1  UNL     1       8.504   1.987   3.443  1.00  0.00     0.026 A 
HETATM    2  C2  UNL     1       9.835   1.998   3.867  1.00  0.00     0.038 A 
HETATM    3  C3  UNL     1      10.749   1.132   3.284  1.00  0.00     0.065 A 
HETATM    4  C4  UNL     1      10.356   0.265   2.271  1.00  0.00     0.038 A 
HETATM    5  C5  UNL     1       9.022   0.259   1.853  1.00  0.00     0.026 A 
HETATM    6  C6  UNL     1       8.074   1.082   2.469  1.00  0.00     0.005 A 
ENDROOT
BRANCH   6   7
HETATM    7  N1  UNL     1       6.770   1.155   1.965  1.00  0.00    -0.303 NA
HETATM    8  H5  UNL     1       6.152   0.435   2.327  1.00  0.00     0.124 HD
HETATM    9  H6  UNL     1       6.724   1.231   0.954  1.00  0.00     0.124 HD
ENDBRANCH   6   7
BRANCH   3  10
HETATM   10  O1  UNL     1      12.039   1.175   3.722  1.00  0.00    -0.361 OA
HETATM   11  H7  UNL     1      12.055   1.595   4.597  1.00  0.00     0.217 HD
ENDBRANCH   3  10
TORSDOF 2
ENDMDL
MODEL 6
REMARK VINA RESULT:      -4.9      2.338      3.009
REMARK  2 active torsions:
REMARK  status: ('A' for Active; 'I' for Inactive)
REMARK    1  A    between atoms: C3_3  and  O1_8 
REMARK    2  A    between atoms: C6_6  and  N1_7 
ROOT
HETATM    1  C1  UNL     1      10.395   0.180   2.243  1.00  0.00     0.026 A 
HETATM    2  C2  UNL     1       9.071   0.182   1.800  1.00  0.00     0.038 A 
HETATM    3  C3  UNL     1       8.153   1.046   2.381  1.00  0.00     0.065 A 
HETATM    4  C4  UNL     1       8.543   1.921   3.389  1.00  0.00     0.038 A 
HETATM    5  C5  UNL     1       9.871   1.912   3.828  1.00  0.00     0.026 A 
HETATM    6  C6  UNL     1      10.796   1.009   3.296  1.00  0.00     0.005 A 
ENDROOT
BRANCH   6   7
HETATM    7  N1  UNL     1      12.146   1.089   3.656  1.00  0.00    -0.303 NA
HETATM    8  H5  UNL     1      12.393   1.956   4.122  1.00  0.00     0.124 HD
HETATM    9  H6  UNL     1      12.786   0.860   2.902  1.00  0.00     0.124 HD
ENDBRANCH   6   7
BRANCH   3  10
HETATM   10  O1  UNL     1       6.871   1.020   1.920  1.00  0.00    -0.361 OA
HETATM   11  H7  UNL     1       6.273   0.895   2.674  1.00  0.00     0.217 HD
ENDBRANCH   3  10
TORSDOF 2
ENDMDL
MODEL 7
REMARK VINA RESULT:      -4.6      1.990      2.523
REMARK  2 active torsions:
REMARK  status: ('A' for Active; 'I' for Inactive)
REMARK    1  A    between atoms: C3_3  and  O1_8 
REMARK    2  A    between atoms: C6_6  and  N1_7 
ROOT
HETATM    1  C1  UNL     1      11.227   0.966   3.155  1.00  0.00     0.026 A 
HETATM    2  C2  UNL     1      10.064   1.490   3.724  1.00  0.00     0.038 A 
HETATM    3  C3  UNL     1       8.828   1.178   3.175  1.00  0.00     0.065 A 
HETATM    4  C4  UNL     1       8.736   0.334   2.073  1.00  0.00     0.038 A 
HETATM    5  C5  UNL     1       9.905  -0.186   1.508  1.00  0.00     0.026 A 
HETATM    6  C6  UNL     1      11.162   0.164   2.011  1.00  0.00     0.005 A 
ENDROOT
BRANCH   6   7
HETATM    7  N1  UNL     1      12.316  -0.453   1.516  1.00  0.00    -0.303 NA
HETATM    8  H5  UNL     1      12.285  -0.634   0.517  1.00  0.00     0.124 HD
HETATM    9  H6  UNL     1      12.605  -1.268   2.047  1.00  0.00     0.124 HD
ENDBRANCH   6   7
BRANCH   3  10
HETATM   10  O1  UNL     1       7.717   1.707   3.760  1.00  0.00    -0.361 OA
HETATM   11  H7  UNL     1       7.636   2.635   3.487  1.00  0.00     0.217 HD
ENDBRANCH   3  10
TORSDOF 2
ENDMDL
MODEL 8
REMARK VINA RESULT:      -4.6      3.209      4.090
REMARK  2 active torsions:
REMARK  status: ('A' for Active; 'I' for Inactive)
REMARK    1  A    between atoms: C3_3  and  O1_8 
REMARK    2  A    between atoms: C6_6  and  N1_7 
ROOT
HETATM    1  C1  UNL     1      11.227   1.013   3.425  1.00  0.00     0.026 A 
HETATM    2  C2  UNL     1       9.898   0.988   2.995  1.00  0.00     0.038 A 
HETATM    3  C3  UNL     1       9.554   0.256   1.867  1.00  0.00     0.065 A 
HETATM    4  C4  UNL     1      10.517  -0.466   1.171  1.00  0.00     0.038 A 
HETATM    5  C5  UNL     1      11.845  -0.435   1.607  1.00  0.00     0.026 A 
HETATM    6  C6  UNL     1      12.221   0.343   2.706  1.00  0.00     0.005 A 
ENDROOT
BRANCH   6   7
HETATM    7  N1  UNL     1      13.527   0.274   3.205  1.00  0.00    -0.303 NA
HETATM    8  H5  UNL     1      13.579  -0.046   4.167  1.00  0.00     0.124 HD
HETATM    9  H6  UNL     1      14.072   1.115   3.048  1.00  0.00     0.124 HD
ENDBRANCH   6   7
BRANCH   3  10
HETATM   10  O1  UNL     1       8.247   0.254   1.481  1.00  0.00    -0.361 OA
HETATM   11  H7  UNL     1       8.004  -0.646   1.213  1.00  0.00     0.217 HD
ENDBRANCH   3  10
TORSDOF 2
ENDMDL
MODEL 9
REMARK VINA RESULT:      -4.4      3.381      4.100
REMARK  2 active torsions:
REMARK  status: ('A' for Active; 'I' for Inactive)
REMARK    1  A    between atoms: C3_3  and  O1_8 
REMARK    2  A    between atoms: C6_6  and  N1_7 
ROOT
HETATM    1  C1  UNL     1      10.904   1.284   3.635  1.00  0.00     0.026 A 
HETATM    2  C2  UNL     1      11.747   0.451   2.897  1.00  0.00     0.038 A 
HETATM    3  C3  UNL     1      11.238  -0.264   1.822  1.00  0.00     0.065 A 
HETATM    4  C4  UNL     1       9.900  -0.145   1.462  1.00  0.00     0.038 A 
HETATM    5  C5  UNL     1       9.062   0.691   2.207  1.00  0.00     0.026 A 
HETATM    6  C6  UNL     1       9.542   1.373   3.329  1.00  0.00     0.005 A 
ENDROOT
BRANCH   6   7
HETATM    7  N1  UNL     1       8.728   2.297   3.994  1.00  0.00    -0.303 NA
HETATM    8  H5  UNL     1       8.706   2.170   5.002  1.00  0.00     0.124 HD
HETATM    9  H6  UNL     1       7.799   2.387   3.596  1.00  0.00     0.124 HD
ENDBRANCH   6   7
BRANCH   3  10
HETATM   10  O1  UNL     1      12.093  -1.064   1.125  1.00  0.00    -0.361 OA
HETATM   11  H7  UNL     1      12.889  -0.552   0.908  1.00  0.00     0.217 HD
ENDBRANCH   3  10
TORSDOF 2
ENDMDL
MODEL 10
REMARK VINA RESULT:      -4.4      4.366      5.188
REMARK  2 active torsions:
REMARK  status: ('A' for Active; 'I' for Inactive)
REMARK    1  A    between atoms: C3_3  and  O1_8 
REMARK    2  A    between atoms: C6_6  and  N1_7 
ROOT
HETATM    1  C1  UNL     1      11.021   0.315   2.120  1.00  0.00     0.026 A 
HETATM    2  C2  UNL     1      12.331  -0.123   2.321  1.00  0.00     0.038 A 
HETATM    3  C3  UNL     1      12.640  -1.467   2.161  1.00  0.00     0.065 A 
HETATM    4  C4  UNL     1      11.659  -2.378   1.786  1.00  0.00     0.038 A 
HETATM    5  C5  UNL     1      10.349  -1.932   1.587  1.00  0.00     0.026 A 
HETATM    6  C6  UNL     1      10.007  -0.593   1.801  1.00  0.00     0.005 A 
ENDROOT
BRANCH   6   7
HETATM    7  N1  UNL     1       8.723  -0.135   1.485  1.00  0.00    -0.303 NA
HETATM    8  H5  UNL     1       7.986  -0.581   2.023  1.00  0.00     0.124 HD
HETATM    9  H6  UNL     1       8.523  -0.126   0.490  1.00  0.00     0.124 HD
ENDBRANCH   6   7
BRANCH   3  10
HETATM   10  O1  UNL     1      13.930  -1.854   2.364  1.00  0.00    -0.361 OA
HETATM   11  H7  UNL     1      14.106  -1.857   3.318  1.00  0.00     0.217 HD
ENDBRANCH   3  10
TORSDOF 2
ENDMDL
MODEL 11
REMARK VINA RESULT:      -4.3      5.424      6.212
REMARK  2 active torsions:
REMARK  status: ('A' for Active; 'I' for Inactive)
REMARK    1  A    between atoms: C3_3  and  O1_8 
REMARK    2  A    between atoms: C6_6  and  N1_7 
ROOT
HETATM    1  C1  UNL     1      12.860   0.018   4.386  1.00  0.00     0.026 A 
HETATM    2  C2  UNL     1      12.448   0.350   3.093  1.00  0.00     0.038 A 
HETATM    3  C3  UNL     1      12.454  -0.618   2.099  1.00  0.00     0.065 A 
HETATM    4  C4  UNL     1      12.851  -1.921   2.382  1.00  0.00     0.038 A 
HETATM    5  C5  UNL     1      13.263  -2.245   3.678  1.00  0.00     0.026 A 
HETATM    6  C6  UNL     1      13.320  -1.270   4.678  1.00  0.00     0.005 A 
ENDROOT
BRANCH   6   7
HETATM    7  N1  UNL     1      13.619  -1.629   5.997  1.00  0.00    -0.303 NA
HETATM    8  H5  UNL     1      12.816  -1.607   6.618  1.00  0.00     0.124 HD
HETATM    9  H6  UNL     1      14.420  -1.142   6.384  1.00  0.00     0.124 HD
ENDBRANCH   6   7
BRANCH   3  10
HETATM   10  O1  UNL     1      12.042  -0.256   0.852  1.00  0.00    -0.361 OA
HETATM   11  H7  UNL     1      11.749  -1.051   0.379  1.00  0.00     0.217 HD
ENDBRANCH   3  10
TORSDOF 2
ENDMDL
MODEL 12
REMARK VINA RESULT:      -4.1      3.065      3.641
REMARK  2 active torsions:
REMARK  status: ('A' for Active; 'I' for Inactive)
REMARK    1  A    between atoms: C3_3  and  O1_8 
REMARK    2  A    between atoms: C6_6  and  N1_7 
ROOT
HETATM    1  C1  UNL     1       8.241   0.603   2.918  1.00  0.00     0.026 A 
HETATM    2  C2  UNL     1       9.420   0.069   2.393  1.00  0.00     0.038 A 
HETATM    3  C3  UNL     1      10.065   0.719   1.350  1.00  0.00     0.065 A 
HETATM    4  C4  UNL     1       9.556   1.905   0.833  1.00  0.00     0.038 A 
HETATM    5  C5  UNL     1       8.374   2.432   1.362  1.00  0.00     0.026 A 
HETATM    6  C6  UNL     1       7.679   1.761   2.374  1.00  0.00     0.005 A 
ENDROOT
BRANCH   6   7
HETATM    7  N1  UNL     1       6.565   2.356   2.977  1.00  0.00    -0.303 NA
HETATM    8  H5  UNL     1       5.778   2.481   2.348  1.00  0.00     0.124 HD
HETATM    9  H6  UNL     1       6.782   3.199   3.497  1.00  0.00     0.124 HD
ENDBRANCH   6   7
BRANCH   3  10
HETATM   10  O1  UNL     1      11.214   0.168   0.868  1.00  0.00    -0.361 OA
HETATM   11  H7  UNL     1      11.639   0.808   0.275  1.00  0.00     0.217 HD
ENDBRANCH   3  10
TORSDOF 2
ENDMDL
