MODEL 1
REMARK VINA RESULT:      -7.3      0.000      0.000
REMARK  27 active torsions:
REMARK  status: ('A' for Active; 'I' for Inactive)
REMARK    1  A    between atoms: C2_2  and  S1_4 
REMARK    2  A    between atoms: S1_4  and  C3_5 
REMARK    3  A    between atoms: C3_5  and  C4_6 
REMARK    4  A    between atoms: C4_6  and  N1_7 
REMARK       I    between atoms: N1_7  and  C5_8 
REMARK    5  A    between atoms: C5_8  and  C6_10 
REMARK    6  A    between atoms: C6_10  and  C7_11 
REMARK    7  A    between atoms: C7_11  and  N2_12 
REMARK       I    between atoms: N2_12  and  C8_13 
REMARK    8  A    between atoms: C8_13  and  C9_15 
REMARK    9  A    between atoms: C9_15  and  C10_16 
REMARK   10  A    between atoms: C9_15  and  O17_54 
REMARK   11  A    between atoms: C10_16  and  C13_19 
REMARK   12  A    between atoms: C13_19  and  O4_20 
REMARK   13  A    between atoms: O4_20  and  P1_21 
REMARK   14  A    between atoms: P1_21  and  O6_23 
REMARK   15  A    between atoms: P1_21  and  O7_24 
REMARK   16  A    between atoms: O7_24  and  P2_25 
REMARK   17  A    between atoms: P2_25  and  O9_27 
REMARK   18  A    between atoms: P2_25  and  O10_28 
REMARK   19  A    between atoms: O10_28  and  C14_29 
REMARK   20  A    between atoms: C14_29  and  C15_30 
REMARK   21  A    between atoms: C16_31  and  O13_49 
REMARK   22  A    between atoms: C17_32  and  O12_48 
REMARK   23  A    between atoms: C18_33  and  N3_35 
REMARK   24  A    between atoms: C21_40  and  N7_47 
REMARK   25  A    between atoms: O13_49  and  P3_50 
REMARK   26  A    between atoms: P3_50  and  O15_52 
REMARK   27  A    between atoms: P3_50  and  O16_53 
ROOT
HETATM    1  C1  UNL     1      13.647  12.034   3.290  1.00  0.00     0.104 C 
HETATM    2  C2  UNL     1      13.412  10.586   2.985  1.00  0.00     0.182 C 
HETATM    3  O1  UNL     1      12.304  10.057   3.041  1.00  0.00    -0.286 OA
ENDROOT
BRANCH   2   4
HETATM    4  S1  UNL     1      14.865   9.685   2.575  1.00  0.00    -0.091 SA
BRANCH   4   5
HETATM    5  C3  UNL     1      14.780   8.352   3.814  1.00  0.00     0.102 C 
BRANCH   5   6
HETATM    6  C4  UNL     1      14.360   7.020   3.191  1.00  0.00     0.133 C 
BRANCH   6   7
HETATM    7  N1  UNL     1      12.924   6.829   3.195  1.00  0.00    -0.360 N 
HETATM    8  C5  UNL     1      12.210   6.679   2.029  1.00  0.00     0.219 C 
HETATM    9  O2  UNL     1      12.727   6.778   0.922  1.00  0.00    -0.274 OA
HETATM   10  H8  UNL     1      12.440   6.798   4.082  1.00  0.00     0.162 HD
BRANCH   8  11
HETATM   11  C6  UNL     1      10.734   6.435   2.257  1.00  0.00     0.122 C 
BRANCH  11  12
HETATM   12  C7  UNL     1       9.912   7.713   2.092  1.00  0.00     0.132 C 
BRANCH  12  13
HETATM   13  N2  UNL     1       8.708   7.720   2.895  1.00  0.00    -0.358 N 
HETATM   14  C8  UNL     1       7.877   8.826   2.895  1.00  0.00     0.247 C 
HETATM   15  O3  UNL     1       8.178   9.867   2.325  1.00  0.00    -0.271 OA
HETATM   16  H13 UNL     1       8.273   6.812   3.042  1.00  0.00     0.162 HD
BRANCH  14  17
HETATM   17  C9  UNL     1       6.551   8.635   3.646  1.00  0.00     0.219 C 
BRANCH  17  18
HETATM   18  C10 UNL     1       5.312   8.463   2.728  1.00  0.00     0.009 C 
HETATM   19  C11 UNL     1       4.089   7.946   3.499  1.00  0.00     0.020 C 
HETATM   20  C12 UNL     1       4.921   9.792   2.051  1.00  0.00     0.020 C 
BRANCH  18  21
HETATM   21  C13 UNL     1       5.724   7.424   1.646  1.00  0.00     0.192 C 
BRANCH  21  22
HETATM   22  O4  UNL     1       5.205   6.137   1.909  1.00  0.00    -0.296 OA
BRANCH  22  23
HETATM   23  P1  UNL     1       6.136   4.874   2.241  1.00  0.00     0.401 P 
HETATM   24  O5  UNL     1       7.400   5.218   2.964  1.00  0.00    -0.631 OA
BRANCH  23  25
HETATM   25  O6  UNL     1       6.373   4.093   0.853  1.00  0.00    -0.307 OA
HETATM   26  H23 UNL     1       6.572   3.159   0.993  1.00  0.00     0.222 HD
ENDBRANCH  23  25
BRANCH  23  27
HETATM   27  O7  UNL     1       5.187   3.855   3.010  1.00  0.00    -0.195 OA
BRANCH  27  28
HETATM   28  P2  UNL     1       5.660   2.343   3.184  1.00  0.00     0.401 P 
HETATM   29  O8  UNL     1       5.169   1.360   2.172  1.00  0.00    -0.631 OA
BRANCH  28  30
HETATM   30  O9  UNL     1       7.250   2.463   3.258  1.00  0.00    -0.307 OA
HETATM   31  H24 UNL     1       7.701   1.651   3.597  1.00  0.00     0.222 HD
ENDBRANCH  28  30
BRANCH  28  32
HETATM   32  O10 UNL     1       5.319   2.005   4.707  1.00  0.00    -0.294 OA
BRANCH  32  33
HETATM   33  C14 UNL     1       6.250   2.297   5.717  1.00  0.00     0.215 C 
BRANCH  33  34
HETATM   34  C15 UNL     1       5.827   3.640   6.310  1.00  0.00     0.180 C 
HETATM   35  C16 UNL     1       6.918   4.159   7.238  1.00  0.00     0.197 C 
HETATM   36  C17 UNL     1       6.261   4.228   8.603  1.00  0.00     0.199 C 
HETATM   37  C18 UNL     1       4.781   4.383   8.242  1.00  0.00     0.262 C 
HETATM   38  O11 UNL     1       4.614   3.560   7.067  1.00  0.00    -0.353 OA
BRANCH  35  39
HETATM   39  O13 UNL     1       7.321   5.442   6.771  1.00  0.00    -0.286 OA
BRANCH  39  40
HETATM   40  P3  UNL     1       8.897   5.653   6.606  1.00  0.00     0.391 P 
HETATM   41  O14 UNL     1       9.265   6.666   5.571  1.00  0.00    -0.632 OA
BRANCH  40  42
HETATM   42  O15 UNL     1       9.377   4.145   6.370  1.00  0.00    -0.307 OA
HETATM   43  H36 UNL     1       8.853   3.721   5.649  1.00  0.00     0.222 HD
ENDBRANCH  40  42
BRANCH  40  44
HETATM   44  O16 UNL     1       9.335   5.941   8.108  1.00  0.00    -0.307 OA
HETATM   45  H37 UNL     1       8.705   6.507   8.581  1.00  0.00     0.222 HD
ENDBRANCH  40  44
ENDBRANCH  39  40
ENDBRANCH  35  39
BRANCH  36  46
HETATM   46  O12 UNL     1       6.857   5.264   9.389  1.00  0.00    -0.388 OA
HETATM   47  H35 UNL     1       6.124   5.870   9.651  1.00  0.00     0.210 HD
ENDBRANCH  36  46
BRANCH  37  48
HETATM   48  N3  UNL     1       3.900   3.893   9.283  1.00  0.00    -0.297 N 
HETATM   49  C19 UNL     1       3.425   4.594  10.368  1.00  0.00     0.188 A 
HETATM   50  N4  UNL     1       2.544   3.904  11.059  1.00  0.00    -0.346 N 
HETATM   51  C20 UNL     1       2.439   2.699  10.388  1.00  0.00     0.116 A 
HETATM   52  H4  UNL     1       2.048   4.194  11.902  1.00  0.00     0.167 HD
HETATM   53  C21 UNL     1       1.641   1.560  10.594  1.00  0.00     0.109 A 
HETATM   54  C23 UNL     1       3.303   2.664   9.308  1.00  0.00     0.142 A 
HETATM   55  N5  UNL     1       1.780   0.510   9.748  1.00  0.00    -0.341 N 
HETATM   56  C22 UNL     1       2.681   0.607   8.751  1.00  0.00     0.183 A 
HETATM   57  H5  UNL     1       1.216  -0.333   9.864  1.00  0.00     0.167 HD
HETATM   58  N6  UNL     1       3.490   1.645   8.451  1.00  0.00    -0.336 N 
HETATM   59  H6  UNL     1       4.154   1.655   7.677  1.00  0.00     0.168 HD
BRANCH  53  60
HETATM   60  N7  UNL     1       0.724   1.449  11.626  1.00  0.00    -0.287 NA
HETATM   61  H33 UNL     1      -0.100   2.037  11.520  1.00  0.00     0.125 HD
HETATM   62  H34 UNL     1       1.157   1.432  12.539  1.00  0.00     0.125 HD
ENDBRANCH  53  60
ENDBRANCH  37  48
ENDBRANCH  33  34
ENDBRANCH  32  33
ENDBRANCH  28  32
ENDBRANCH  27  28
ENDBRANCH  23  27
ENDBRANCH  22  23
ENDBRANCH  21  22
ENDBRANCH  18  21
ENDBRANCH  17  18
BRANCH  17  63
HETATM   63  O17 UNL     1       6.635   7.500   4.514  1.00  0.00    -0.385 OA
HETATM   64  H38 UNL     1       6.944   7.807   5.383  1.00  0.00     0.210 HD
ENDBRANCH  17  63
ENDBRANCH  14  17
ENDBRANCH  12  13
ENDBRANCH  11  12
ENDBRANCH   8  11
ENDBRANCH   6   7
ENDBRANCH   5   6
ENDBRANCH   4   5
ENDBRANCH   2   4
TORSDOF 27
ENDMDL
MODEL 2
REMARK VINA RESULT:      -7.2      2.475      3.554
REMARK  27 active torsions:
REMARK  status: ('A' for Active; 'I' for Inactive)
REMARK    1  A    between atoms: C2_2  and  S1_4 
REMARK    2  A    between atoms: S1_4  and  C3_5 
REMARK    3  A    between atoms: C3_5  and  C4_6 
REMARK    4  A    between atoms: C4_6  and  N1_7 
REMARK       I    between atoms: N1_7  and  C5_8 
REMARK    5  A    between atoms: C5_8  and  C6_10 
REMARK    6  A    between atoms: C6_10  and  C7_11 
REMARK    7  A    between atoms: C7_11  and  N2_12 
REMARK       I    between atoms: N2_12  and  C8_13 
REMARK    8  A    between atoms: C8_13  and  C9_15 
REMARK    9  A    between atoms: C9_15  and  C10_16 
REMARK   10  A    between atoms: C9_15  and  O17_54 
REMARK   11  A    between atoms: C10_16  and  C13_19 
REMARK   12  A    between atoms: C13_19  and  O4_20 
REMARK   13  A    between atoms: O4_20  and  P1_21 
REMARK   14  A    between atoms: P1_21  and  O6_23 
REMARK   15  A    between atoms: P1_21  and  O7_24 
REMARK   16  A    between atoms: O7_24  and  P2_25 
REMARK   17  A    between atoms: P2_25  and  O9_27 
REMARK   18  A    between atoms: P2_25  and  O10_28 
REMARK   19  A    between atoms: O10_28  and  C14_29 
REMARK   20  A    between atoms: C14_29  and  C15_30 
REMARK   21  A    between atoms: C16_31  and  O13_49 
REMARK   22  A    between atoms: C17_32  and  O12_48 
REMARK   23  A    between atoms: C18_33  and  N3_35 
REMARK   24  A    between atoms: C21_40  and  N7_47 
REMARK   25  A    between atoms: O13_49  and  P3_50 
REMARK   26  A    between atoms: P3_50  and  O15_52 
REMARK   27  A    between atoms: P3_50  and  O16_53 
ROOT
HETATM    1  C1  UNL     1      11.807   6.095   2.625  1.00  0.00     0.104 C 
HETATM    2  C2  UNL     1      10.740   6.610   1.708  1.00  0.00     0.182 C 
HETATM    3  O1  UNL     1       9.541   6.411   1.888  1.00  0.00    -0.286 OA
ENDROOT
BRANCH   2   4
HETATM    4  S1  UNL     1      11.347   7.497   0.316  1.00  0.00    -0.091 SA
BRANCH   4   5
HETATM    5  C3  UNL     1      10.008   8.714   0.099  1.00  0.00     0.102 C 
BRANCH   5   6
HETATM    6  C4  UNL     1       9.647   8.906  -1.375  1.00  0.00     0.133 C 
BRANCH   6   7
HETATM    7  N1  UNL     1       8.236   8.709  -1.636  1.00  0.00    -0.360 N 
HETATM    8  C5  UNL     1       7.320   9.721  -1.464  1.00  0.00     0.219 C 
HETATM    9  O2  UNL     1       7.624  10.816  -1.007  1.00  0.00    -0.274 OA
HETATM   10  H8  UNL     1       7.923   7.804  -1.960  1.00  0.00     0.162 HD
BRANCH   8  11
HETATM   11  C6  UNL     1       5.910   9.323  -1.844  1.00  0.00     0.122 C 
BRANCH  11  12
HETATM   12  C7  UNL     1       5.044   9.044  -0.615  1.00  0.00     0.132 C 
BRANCH  12  13
HETATM   13  N2  UNL     1       5.820   8.803   0.583  1.00  0.00    -0.358 N 
HETATM   14  C8  UNL     1       5.636   9.591   1.703  1.00  0.00     0.247 C 
HETATM   15  O3  UNL     1       4.913  10.579   1.693  1.00  0.00    -0.271 OA
HETATM   16  H13 UNL     1       6.102   7.836   0.735  1.00  0.00     0.162 HD
BRANCH  14  17
HETATM   17  C9  UNL     1       6.389   9.118   2.955  1.00  0.00     0.219 C 
BRANCH  17  18
HETATM   18  C10 UNL     1       5.610   8.099   3.828  1.00  0.00     0.009 C 
HETATM   19  C11 UNL     1       5.986   8.203   5.313  1.00  0.00     0.020 C 
HETATM   20  C12 UNL     1       4.086   8.302   3.709  1.00  0.00     0.020 C 
BRANCH  18  21
HETATM   21  C13 UNL     1       5.996   6.692   3.288  1.00  0.00     0.192 C 
BRANCH  21  22
HETATM   22  O4  UNL     1       4.881   5.830   3.187  1.00  0.00    -0.296 OA
BRANCH  22  23
HETATM   23  P1  UNL     1       4.929   4.289   3.629  1.00  0.00     0.401 P 
HETATM   24  O5  UNL     1       4.433   3.338   2.586  1.00  0.00    -0.631 OA
BRANCH  23  25
HETATM   25  O6  UNL     1       4.146   4.182   5.031  1.00  0.00    -0.307 OA
HETATM   26  H23 UNL     1       3.204   4.372   4.934  1.00  0.00     0.222 HD
ENDBRANCH  23  25
BRANCH  23  27
HETATM   27  O7  UNL     1       6.430   4.041   4.094  1.00  0.00    -0.195 OA
BRANCH  27  28
HETATM   28  P2  UNL     1       6.770   2.730   4.933  1.00  0.00     0.401 P 
HETATM   29  O8  UNL     1       6.061   1.475   4.543  1.00  0.00    -0.631 OA
BRANCH  28  30
HETATM   30  O9  UNL     1       8.361   2.637   4.838  1.00  0.00    -0.307 OA
HETATM   31  H24 UNL     1       8.822   2.703   5.709  1.00  0.00     0.222 HD
ENDBRANCH  28  30
BRANCH  28  32
HETATM   32  O10 UNL     1       6.594   3.188   6.453  1.00  0.00    -0.294 OA
BRANCH  32  33
HETATM   33  C14 UNL     1       7.303   4.297   6.939  1.00  0.00     0.215 C 
BRANCH  33  34
HETATM   34  C15 UNL     1       6.283   5.168   7.672  1.00  0.00     0.180 C 
HETATM   35  C16 UNL     1       6.853   5.612   9.012  1.00  0.00     0.197 C 
HETATM   36  C17 UNL     1       5.921   5.008  10.045  1.00  0.00     0.199 C 
HETATM   37  C18 UNL     1       4.618   4.857   9.255  1.00  0.00     0.262 C 
HETATM   38  O11 UNL     1       5.048   4.489   7.926  1.00  0.00    -0.353 OA
BRANCH  35  39
HETATM   39  O13 UNL     1       6.843   7.035   9.047  1.00  0.00    -0.286 OA
BRANCH  39  40
HETATM   40  P3  UNL     1       8.277   7.732   9.162  1.00  0.00     0.391 P 
HETATM   41  O14 UNL     1       8.340   8.813  10.193  1.00  0.00    -0.632 OA
BRANCH  40  42
HETATM   42  O15 UNL     1       8.532   8.147   7.638  1.00  0.00    -0.307 OA
HETATM   43  H36 UNL     1       7.788   7.843   7.065  1.00  0.00     0.222 HD
ENDBRANCH  40  42
BRANCH  40  44
HETATM   44  O16 UNL     1       9.225   6.471   9.358  1.00  0.00    -0.307 OA
HETATM   45  H37 UNL     1       9.761   6.525  10.166  1.00  0.00     0.222 HD
ENDBRANCH  40  44
ENDBRANCH  39  40
ENDBRANCH  35  39
BRANCH  36  46
HETATM   46  O12 UNL     1       5.886   5.824  11.219  1.00  0.00    -0.388 OA
HETATM   47  H35 UNL     1       5.650   5.224  11.967  1.00  0.00     0.210 HD
ENDBRANCH  36  46
BRANCH  37  48
HETATM   48  N3  UNL     1       3.769   3.805   9.778  1.00  0.00    -0.297 N 
HETATM   49  C19 UNL     1       2.838   3.912  10.785  1.00  0.00     0.188 A 
HETATM   50  N4  UNL     1       2.141   2.808  10.939  1.00  0.00    -0.346 N 
HETATM   51  C20 UNL     1       2.642   1.943   9.981  1.00  0.00     0.116 A 
HETATM   52  H4  UNL     1       1.398   2.628  11.614  1.00  0.00     0.167 HD
HETATM   53  C21 UNL     1       2.296   0.633   9.606  1.00  0.00     0.109 A 
HETATM   54  C23 UNL     1       3.677   2.535   9.282  1.00  0.00     0.142 A 
HETATM   55  N5  UNL     1       2.998   0.036   8.612  1.00  0.00    -0.341 N 
HETATM   56  C22 UNL     1       4.000   0.728   8.034  1.00  0.00     0.183 A 
HETATM   57  H5  UNL     1       2.773  -0.912   8.310  1.00  0.00     0.167 HD
HETATM   58  N6  UNL     1       4.415   1.983   8.302  1.00  0.00    -0.336 N 
HETATM   59  H6  UNL     1       5.185   2.452   7.824  1.00  0.00     0.168 HD
BRANCH  53  60
HETATM   60  N7  UNL     1       1.276  -0.088  10.207  1.00  0.00    -0.287 NA
HETATM   61  H33 UNL     1       0.439  -0.184   9.637  1.00  0.00     0.125 HD
HETATM   62  H34 UNL     1       1.140   0.157  11.179  1.00  0.00     0.125 HD
ENDBRANCH  53  60
ENDBRANCH  37  48
ENDBRANCH  33  34
ENDBRANCH  32  33
ENDBRANCH  28  32
ENDBRANCH  27  28
ENDBRANCH  23  27
ENDBRANCH  22  23
ENDBRANCH  21  22
ENDBRANCH  18  21
ENDBRANCH  17  18
BRANCH  17  63
HETATM   63  O17 UNL     1       7.643   8.534   2.585  1.00  0.00    -0.385 OA
HETATM   64  H38 UNL     1       7.730   7.686   3.052  1.00  0.00     0.210 HD
ENDBRANCH  17  63
ENDBRANCH  14  17
ENDBRANCH  12  13
ENDBRANCH  11  12
ENDBRANCH   8  11
ENDBRANCH   6   7
ENDBRANCH   5   6
ENDBRANCH   4   5
ENDBRANCH   2   4
TORSDOF 27
ENDMDL
MODEL 3
REMARK VINA RESULT:      -7.0      2.569      4.546
REMARK  27 active torsions:
REMARK  status: ('A' for Active; 'I' for Inactive)
REMARK    1  A    between atoms: C2_2  and  S1_4 
REMARK    2  A    between atoms: S1_4  and  C3_5 
REMARK    3  A    between atoms: C3_5  and  C4_6 
REMARK    4  A    between atoms: C4_6  and  N1_7 
REMARK       I    between atoms: N1_7  and  C5_8 
REMARK    5  A    between atoms: C5_8  and  C6_10 
REMARK    6  A    between atoms: C6_10  and  C7_11 
REMARK    7  A    between atoms: C7_11  and  N2_12 
REMARK       I    between atoms: N2_12  and  C8_13 
REMARK    8  A    between atoms: C8_13  and  C9_15 
REMARK    9  A    between atoms: C9_15  and  C10_16 
REMARK   10  A    between atoms: C9_15  and  O17_54 
REMARK   11  A    between atoms: C10_16  and  C13_19 
REMARK   12  A    between atoms: C13_19  and  O4_20 
REMARK   13  A    between atoms: O4_20  and  P1_21 
REMARK   14  A    between atoms: P1_21  and  O6_23 
REMARK   15  A    between atoms: P1_21  and  O7_24 
REMARK   16  A    between atoms: O7_24  and  P2_25 
REMARK   17  A    between atoms: P2_25  and  O9_27 
REMARK   18  A    between atoms: P2_25  and  O10_28 
REMARK   19  A    between atoms: O10_28  and  C14_29 
REMARK   20  A    between atoms: C14_29  and  C15_30 
REMARK   21  A    between atoms: C16_31  and  O13_49 
REMARK   22  A    between atoms: C17_32  and  O12_48 
REMARK   23  A    between atoms: C18_33  and  N3_35 
REMARK   24  A    between atoms: C21_40  and  N7_47 
REMARK   25  A    between atoms: O13_49  and  P3_50 
REMARK   26  A    between atoms: P3_50  and  O15_52 
REMARK   27  A    between atoms: P3_50  and  O16_53 
ROOT
HETATM    1  C1  UNL     1      12.158   7.568   1.674  1.00  0.00     0.104 C 
HETATM    2  C2  UNL     1      12.371   8.456   2.863  1.00  0.00     0.182 C 
HETATM    3  O1  UNL     1      11.532   8.611   3.747  1.00  0.00    -0.286 OA
ENDROOT
BRANCH   2   4
HETATM    4  S1  UNL     1      13.915   9.297   2.872  1.00  0.00    -0.091 SA
BRANCH   4   5
HETATM    5  C3  UNL     1      14.545   8.837   1.226  1.00  0.00     0.102 C 
BRANCH   5   6
HETATM    6  C4  UNL     1      14.786  10.064   0.345  1.00  0.00     0.133 C 
BRANCH   6   7
HETATM    7  N1  UNL     1      13.749  11.065   0.484  1.00  0.00    -0.360 N 
HETATM    8  C5  UNL     1      12.648  11.086  -0.340  1.00  0.00     0.219 C 
HETATM    9  O2  UNL     1      12.516  10.317  -1.285  1.00  0.00    -0.274 OA
HETATM   10  H8  UNL     1      13.839  11.760   1.212  1.00  0.00     0.162 HD
BRANCH   8  11
HETATM   11  C6  UNL     1      11.660  12.178   0.009  1.00  0.00     0.122 C 
BRANCH  11  12
HETATM   12  C7  UNL     1      10.490  12.225  -0.974  1.00  0.00     0.132 C 
BRANCH  12  13
HETATM   13  N2  UNL     1       9.700  11.012  -0.974  1.00  0.00    -0.358 N 
HETATM   14  C8  UNL     1       8.493  10.966  -0.300  1.00  0.00     0.247 C 
HETATM   15  O3  UNL     1       8.108  11.888   0.408  1.00  0.00    -0.271 OA
HETATM   16  H13 UNL     1       9.792  10.429  -1.804  1.00  0.00     0.162 HD
BRANCH  14  17
HETATM   17  C9  UNL     1       7.676   9.686  -0.528  1.00  0.00     0.219 C 
BRANCH  17  18
HETATM   18  C10 UNL     1       7.868   8.599   0.563  1.00  0.00     0.009 C 
HETATM   19  C11 UNL     1       8.439   7.295  -0.014  1.00  0.00     0.020 C 
HETATM   20  C12 UNL     1       8.816   9.080   1.679  1.00  0.00     0.020 C 
BRANCH  18  21
HETATM   21  C13 UNL     1       6.453   8.334   1.154  1.00  0.00     0.192 C 
BRANCH  21  22
HETATM   22  O4  UNL     1       6.086   9.294   2.123  1.00  0.00    -0.296 OA
BRANCH  22  23
HETATM   23  P1  UNL     1       5.591   8.899   3.596  1.00  0.00     0.401 P 
HETATM   24  O5  UNL     1       4.190   8.376   3.651  1.00  0.00    -0.631 OA
BRANCH  23  25
HETATM   25  O6  UNL     1       5.841  10.185   4.532  1.00  0.00    -0.307 OA
HETATM   26  H23 UNL     1       5.613  11.009   4.083  1.00  0.00     0.222 HD
ENDBRANCH  23  25
BRANCH  23  27
HETATM   27  O7  UNL     1       6.697   7.897   4.147  1.00  0.00    -0.195 OA
BRANCH  27  28
HETATM   28  P2  UNL     1       7.594   8.344   5.385  1.00  0.00     0.401 P 
HETATM   29  O8  UNL     1       8.397   9.594   5.223  1.00  0.00    -0.631 OA
BRANCH  28  30
HETATM   30  O9  UNL     1       6.553   8.391   6.594  1.00  0.00    -0.307 OA
HETATM   31  H24 UNL     1       6.956   8.626   7.465  1.00  0.00     0.222 HD
ENDBRANCH  28  30
BRANCH  28  32
HETATM   32  O10 UNL     1       8.419   7.029   5.759  1.00  0.00    -0.294 OA
BRANCH  32  33
HETATM   33  C14 UNL     1       8.682   6.061   4.777  1.00  0.00     0.215 C 
BRANCH  33  34
HETATM   34  C15 UNL     1       8.014   4.774   5.256  1.00  0.00     0.180 C 
HETATM   35  C16 UNL     1       6.650   4.625   4.594  1.00  0.00     0.197 C 
HETATM   36  C17 UNL     1       5.660   4.649   5.744  1.00  0.00     0.199 C 
HETATM   37  C18 UNL     1       6.515   4.161   6.916  1.00  0.00     0.262 C 
HETATM   38  O11 UNL     1       7.816   4.741   6.674  1.00  0.00    -0.353 OA
BRANCH  35  39
HETATM   39  O13 UNL     1       6.632   3.384   3.897  1.00  0.00    -0.286 OA
BRANCH  39  40
HETATM   40  P3  UNL     1       5.953   3.417   2.450  1.00  0.00     0.391 P 
HETATM   41  O14 UNL     1       4.494   3.090   2.461  1.00  0.00    -0.632 OA
BRANCH  40  42
HETATM   42  O15 UNL     1       6.925   2.437   1.641  1.00  0.00    -0.307 OA
HETATM   43  H36 UNL     1       6.669   1.495   1.784  1.00  0.00     0.222 HD
ENDBRANCH  40  42
BRANCH  40  44
HETATM   44  O16 UNL     1       6.381   4.858   1.933  1.00  0.00    -0.307 OA
HETATM   45  H37 UNL     1       6.214   4.984   0.986  1.00  0.00     0.222 HD
ENDBRANCH  40  44
ENDBRANCH  39  40
ENDBRANCH  35  39
BRANCH  36  46
HETATM   46  O12 UNL     1       4.499   3.882   5.415  1.00  0.00    -0.388 OA
HETATM   47  H35 UNL     1       4.262   4.121   4.487  1.00  0.00     0.210 HD
ENDBRANCH  36  46
BRANCH  37  48
HETATM   48  N3  UNL     1       6.025   4.633   8.196  1.00  0.00    -0.297 N 
HETATM   49  C19 UNL     1       6.443   5.747   8.886  1.00  0.00     0.188 A 
HETATM   50  N4  UNL     1       5.713   5.973   9.957  1.00  0.00    -0.346 N 
HETATM   51  C20 UNL     1       4.772   4.958   9.958  1.00  0.00     0.116 A 
HETATM   52  H4  UNL     1       5.816   6.728  10.634  1.00  0.00     0.167 HD
HETATM   53  C21 UNL     1       3.690   4.663  10.805  1.00  0.00     0.109 A 
HETATM   54  C23 UNL     1       4.979   4.098   8.895  1.00  0.00     0.142 A 
HETATM   55  N5  UNL     1       2.941   3.564  10.542  1.00  0.00    -0.341 N 
HETATM   56  C22 UNL     1       3.275   2.803   9.481  1.00  0.00     0.183 A 
HETATM   57  H5  UNL     1       2.146   3.320  11.132  1.00  0.00     0.167 HD
HETATM   58  N6  UNL     1       4.278   2.989   8.599  1.00  0.00    -0.336 N 
HETATM   59  H6  UNL     1       4.479   2.371   7.813  1.00  0.00     0.168 HD
BRANCH  53  60
HETATM   60  N7  UNL     1       3.351   5.434  11.905  1.00  0.00    -0.287 NA
HETATM   61  H33 UNL     1       2.937   4.909  12.673  1.00  0.00     0.125 HD
HETATM   62  H34 UNL     1       2.902   6.305  11.654  1.00  0.00     0.125 HD
ENDBRANCH  53  60
ENDBRANCH  37  48
ENDBRANCH  33  34
ENDBRANCH  32  33
ENDBRANCH  28  32
ENDBRANCH  27  28
ENDBRANCH  23  27
ENDBRANCH  22  23
ENDBRANCH  21  22
ENDBRANCH  18  21
ENDBRANCH  17  18
BRANCH  17  63
HETATM   63  O17 UNL     1       6.282  10.000  -0.616  1.00  0.00    -0.385 OA
HETATM   64  H38 UNL     1       6.159  10.620  -1.354  1.00  0.00     0.210 HD
ENDBRANCH  17  63
ENDBRANCH  14  17
ENDBRANCH  12  13
ENDBRANCH  11  12
ENDBRANCH   8  11
ENDBRANCH   6   7
ENDBRANCH   5   6
ENDBRANCH   4   5
ENDBRANCH   2   4
TORSDOF 27
ENDMDL
MODEL 4
REMARK VINA RESULT:      -6.9      8.444     11.453
REMARK  27 active torsions:
REMARK  status: ('A' for Active; 'I' for Inactive)
REMARK    1  A    between atoms: C2_2  and  S1_4 
REMARK    2  A    between atoms: S1_4  and  C3_5 
REMARK    3  A    between atoms: C3_5  and  C4_6 
REMARK    4  A    between atoms: C4_6  and  N1_7 
REMARK       I    between atoms: N1_7  and  C5_8 
REMARK    5  A    between atoms: C5_8  and  C6_10 
REMARK    6  A    between atoms: C6_10  and  C7_11 
REMARK    7  A    between atoms: C7_11  and  N2_12 
REMARK       I    between atoms: N2_12  and  C8_13 
REMARK    8  A    between atoms: C8_13  and  C9_15 
REMARK    9  A    between atoms: C9_15  and  C10_16 
REMARK   10  A    between atoms: C9_15  and  O17_54 
REMARK   11  A    between atoms: C10_16  and  C13_19 
REMARK   12  A    between atoms: C13_19  and  O4_20 
REMARK   13  A    between atoms: O4_20  and  P1_21 
REMARK   14  A    between atoms: P1_21  and  O6_23 
REMARK   15  A    between atoms: P1_21  and  O7_24 
REMARK   16  A    between atoms: O7_24  and  P2_25 
REMARK   17  A    between atoms: P2_25  and  O9_27 
REMARK   18  A    between atoms: P2_25  and  O10_28 
REMARK   19  A    between atoms: O10_28  and  C14_29 
REMARK   20  A    between atoms: C14_29  and  C15_30 
REMARK   21  A    between atoms: C16_31  and  O13_49 
REMARK   22  A    between atoms: C17_32  and  O12_48 
REMARK   23  A    between atoms: C18_33  and  N3_35 
REMARK   24  A    between atoms: C21_40  and  N7_47 
REMARK   25  A    between atoms: O13_49  and  P3_50 
REMARK   26  A    between atoms: P3_50  and  O15_52 
REMARK   27  A    between atoms: P3_50  and  O16_53 
ROOT
HETATM    1  C1  UNL     1       6.770  14.932  -8.310  1.00  0.00     0.104 C 
HETATM    2  C2  UNL     1       5.301  15.223  -8.353  1.00  0.00     0.182 C 
HETATM    3  O1  UNL     1       4.703  15.814  -7.457  1.00  0.00    -0.286 OA
ENDROOT
BRANCH   2   4
HETATM    4  S1  UNL     1       4.482  14.610  -9.784  1.00  0.00    -0.091 SA
BRANCH   4   5
HETATM    5  C3  UNL     1       3.963  12.970  -9.182  1.00  0.00     0.102 C 
BRANCH   5   6
HETATM    6  C4  UNL     1       3.499  12.065 -10.325  1.00  0.00     0.133 C 
BRANCH   6   7
HETATM    7  N1  UNL     1       2.404  11.197  -9.942  1.00  0.00    -0.360 N 
HETATM    8  C5  UNL     1       1.661  10.514 -10.876  1.00  0.00     0.219 C 
HETATM    9  O2  UNL     1       1.824  10.657 -12.082  1.00  0.00    -0.274 OA
HETATM   10  H8  UNL     1       2.190  11.089  -8.959  1.00  0.00     0.162 HD
BRANCH   8  11
HETATM   11  C6  UNL     1       0.603   9.621 -10.264  1.00  0.00     0.122 C 
BRANCH  11  12
HETATM   12  C7  UNL     1       1.145   8.228  -9.948  1.00  0.00     0.132 C 
BRANCH  12  13
HETATM   13  N2  UNL     1       1.412   8.029  -8.539  1.00  0.00    -0.358 N 
HETATM   14  C8  UNL     1       2.671   8.280  -8.026  1.00  0.00     0.247 C 
HETATM   15  O3  UNL     1       3.623   8.560  -8.743  1.00  0.00    -0.271 OA
HETATM   16  H13 UNL     1       0.619   8.174  -7.918  1.00  0.00     0.162 HD
BRANCH  14  17
HETATM   17  C9  UNL     1       2.771   8.200  -6.495  1.00  0.00     0.219 C 
BRANCH  17  18
HETATM   18  C10 UNL     1       2.710   9.573  -5.775  1.00  0.00     0.009 C 
HETATM   19  C11 UNL     1       1.612  10.480  -6.349  1.00  0.00     0.020 C 
HETATM   20  C12 UNL     1       2.447   9.407  -4.264  1.00  0.00     0.020 C 
BRANCH  18  21
HETATM   21  C13 UNL     1       4.101  10.233  -5.996  1.00  0.00     0.192 C 
BRANCH  21  22
HETATM   22  O4  UNL     1       4.045  11.643  -5.929  1.00  0.00    -0.296 OA
BRANCH  22  23
HETATM   23  P1  UNL     1       5.071  12.516  -5.059  1.00  0.00     0.401 P 
HETATM   24  O5  UNL     1       4.654  13.940  -4.868  1.00  0.00    -0.631 OA
BRANCH  23  25
HETATM   25  O6  UNL     1       6.519  12.350  -5.742  1.00  0.00    -0.307 OA
HETATM   26  H23 UNL     1       6.994  13.189  -5.791  1.00  0.00     0.222 HD
ENDBRANCH  23  25
BRANCH  23  27
HETATM   27  O7  UNL     1       5.269  11.694  -3.712  1.00  0.00    -0.195 OA
BRANCH  27  28
HETATM   28  P2  UNL     1       6.713  11.117  -3.366  1.00  0.00     0.401 P 
HETATM   29  O8  UNL     1       7.314  10.166  -4.349  1.00  0.00    -0.631 OA
BRANCH  28  30
HETATM   30  O9  UNL     1       7.583  12.433  -3.117  1.00  0.00    -0.307 OA
HETATM   31  H24 UNL     1       7.909  12.531  -2.190  1.00  0.00     0.222 HD
ENDBRANCH  28  30
BRANCH  28  32
HETATM   32  O10 UNL     1       6.565  10.576  -1.871  1.00  0.00    -0.294 OA
BRANCH  32  33
HETATM   33  C14 UNL     1       6.506   9.195  -1.628  1.00  0.00     0.215 C 
BRANCH  33  34
HETATM   34  C15 UNL     1       6.780   9.013  -0.136  1.00  0.00     0.180 C 
HETATM   35  C16 UNL     1       8.280   8.910   0.104  1.00  0.00     0.197 C 
HETATM   36  C17 UNL     1       8.482   7.525   0.690  1.00  0.00     0.199 C 
HETATM   37  C18 UNL     1       7.117   7.239   1.319  1.00  0.00     0.262 C 
HETATM   38  O11 UNL     1       6.170   7.835   0.405  1.00  0.00    -0.353 OA
BRANCH  35  39
HETATM   39  O13 UNL     1       8.652   9.938   1.016  1.00  0.00    -0.286 OA
BRANCH  39  40
HETATM   40  P3  UNL     1       9.495  11.143   0.390  1.00  0.00     0.391 P 
HETATM   41  O14 UNL     1      10.467  11.759   1.344  1.00  0.00    -0.632 OA
BRANCH  40  42
HETATM   42  O15 UNL     1       8.319  12.071  -0.172  1.00  0.00    -0.307 OA
HETATM   43  H36 UNL     1       7.760  12.410   0.567  1.00  0.00     0.222 HD
ENDBRANCH  40  42
BRANCH  40  44
HETATM   44  O16 UNL     1      10.082  10.468  -0.925  1.00  0.00    -0.307 OA
HETATM   45  H37 UNL     1      10.193   9.508  -0.838  1.00  0.00     0.222 HD
ENDBRANCH  40  44
ENDBRANCH  39  40
ENDBRANCH  35  39
BRANCH  36  46
HETATM   46  O12 UNL     1       9.620   7.514   1.556  1.00  0.00    -0.388 OA
HETATM   47  H35 UNL     1       9.531   6.710   2.121  1.00  0.00     0.210 HD
ENDBRANCH  36  46
BRANCH  37  48
HETATM   48  N3  UNL     1       6.837   5.820   1.421  1.00  0.00    -0.297 N 
HETATM   49  C19 UNL     1       7.369   4.811   0.652  1.00  0.00     0.188 A 
HETATM   50  N4  UNL     1       7.011   3.619   1.077  1.00  0.00    -0.346 N 
HETATM   51  C20 UNL     1       6.212   3.867   2.179  1.00  0.00     0.116 A 
HETATM   52  H4  UNL     1       7.266   2.714   0.683  1.00  0.00     0.167 HD
HETATM   53  C21 UNL     1       5.559   3.022   3.093  1.00  0.00     0.109 A 
HETATM   54  C23 UNL     1       6.064   5.228   2.379  1.00  0.00     0.142 A 
HETATM   55  N5  UNL     1       4.824   3.581   4.084  1.00  0.00    -0.341 N 
HETATM   56  C22 UNL     1       4.750   4.926   4.143  1.00  0.00     0.183 A 
HETATM   57  H5  UNL     1       4.339   3.000   4.768  1.00  0.00     0.167 HD
HETATM   58  N6  UNL     1       5.335   5.833   3.334  1.00  0.00    -0.336 N 
HETATM   59  H6  UNL     1       5.238   6.844   3.433  1.00  0.00     0.168 HD
BRANCH  53  60
HETATM   60  N7  UNL     1       5.620   1.639   3.028  1.00  0.00    -0.287 NA
HETATM   61  H33 UNL     1       5.054   1.161   3.726  1.00  0.00     0.125 HD
HETATM   62  H34 UNL     1       6.559   1.291   2.889  1.00  0.00     0.125 HD
ENDBRANCH  53  60
ENDBRANCH  37  48
ENDBRANCH  33  34
ENDBRANCH  32  33
ENDBRANCH  28  32
ENDBRANCH  27  28
ENDBRANCH  23  27
ENDBRANCH  22  23
ENDBRANCH  21  22
ENDBRANCH  18  21
ENDBRANCH  17  18
BRANCH  17  63
HETATM   63  O17 UNL     1       1.727   7.368  -5.976  1.00  0.00    -0.385 OA
HETATM   64  H38 UNL     1       1.123   7.928  -5.461  1.00  0.00     0.210 HD
ENDBRANCH  17  63
ENDBRANCH  14  17
ENDBRANCH  12  13
ENDBRANCH  11  12
ENDBRANCH   8  11
ENDBRANCH   6   7
ENDBRANCH   5   6
ENDBRANCH   4   5
ENDBRANCH   2   4
TORSDOF 27
ENDMDL
MODEL 5
REMARK VINA RESULT:      -6.9      3.021      4.772
REMARK  27 active torsions:
REMARK  status: ('A' for Active; 'I' for Inactive)
REMARK    1  A    between atoms: C2_2  and  S1_4 
REMARK    2  A    between atoms: S1_4  and  C3_5 
REMARK    3  A    between atoms: C3_5  and  C4_6 
REMARK    4  A    between atoms: C4_6  and  N1_7 
REMARK       I    between atoms: N1_7  and  C5_8 
REMARK    5  A    between atoms: C5_8  and  C6_10 
REMARK    6  A    between atoms: C6_10  and  C7_11 
REMARK    7  A    between atoms: C7_11  and  N2_12 
REMARK       I    between atoms: N2_12  and  C8_13 
REMARK    8  A    between atoms: C8_13  and  C9_15 
REMARK    9  A    between atoms: C9_15  and  C10_16 
REMARK   10  A    between atoms: C9_15  and  O17_54 
REMARK   11  A    between atoms: C10_16  and  C13_19 
REMARK   12  A    between atoms: C13_19  and  O4_20 
REMARK   13  A    between atoms: O4_20  and  P1_21 
REMARK   14  A    between atoms: P1_21  and  O6_23 
REMARK   15  A    between atoms: P1_21  and  O7_24 
REMARK   16  A    between atoms: O7_24  and  P2_25 
REMARK   17  A    between atoms: P2_25  and  O9_27 
REMARK   18  A    between atoms: P2_25  and  O10_28 
REMARK   19  A    between atoms: O10_28  and  C14_29 
REMARK   20  A    between atoms: C14_29  and  C15_30 
REMARK   21  A    between atoms: C16_31  and  O13_49 
REMARK   22  A    between atoms: C17_32  and  O12_48 
REMARK   23  A    between atoms: C18_33  and  N3_35 
REMARK   24  A    between atoms: C21_40  and  N7_47 
REMARK   25  A    between atoms: O13_49  and  P3_50 
REMARK   26  A    between atoms: P3_50  and  O15_52 
REMARK   27  A    between atoms: P3_50  and  O16_53 
ROOT
HETATM    1  C1  UNL     1      13.788  12.057   3.331  1.00  0.00     0.104 C 
HETATM    2  C2  UNL     1      13.656  10.591   3.053  1.00  0.00     0.182 C 
HETATM    3  O1  UNL     1      12.663   9.934   3.357  1.00  0.00    -0.286 OA
ENDROOT
BRANCH   2   4
HETATM    4  S1  UNL     1      15.064   9.868   2.287  1.00  0.00    -0.091 SA
BRANCH   4   5
HETATM    5  C3  UNL     1      15.336   8.442   3.389  1.00  0.00     0.102 C 
BRANCH   5   6
HETATM    6  C4  UNL     1      14.815   7.141   2.775  1.00  0.00     0.133 C 
BRANCH   6   7
HETATM    7  N1  UNL     1      13.427   6.884   3.102  1.00  0.00    -0.360 N 
HETATM    8  C5  UNL     1      12.482   6.668   2.126  1.00  0.00     0.219 C 
HETATM    9  O2  UNL     1      12.735   6.758   0.931  1.00  0.00    -0.274 OA
HETATM   10  H8  UNL     1      13.154   6.857   4.075  1.00  0.00     0.162 HD
BRANCH   8  11
HETATM   11  C6  UNL     1      11.107   6.364   2.681  1.00  0.00     0.122 C 
BRANCH  11  12
HETATM   12  C7  UNL     1      10.003   6.673   1.671  1.00  0.00     0.132 C 
BRANCH  12  13
HETATM   13  N2  UNL     1       8.866   7.346   2.262  1.00  0.00    -0.358 N 
HETATM   14  C8  UNL     1       7.911   7.940   1.456  1.00  0.00     0.247 C 
HETATM   15  O3  UNL     1       8.045   8.025   0.241  1.00  0.00    -0.271 OA
HETATM   16  H13 UNL     1       8.554   6.976   3.157  1.00  0.00     0.162 HD
BRANCH  14  17
HETATM   17  C9  UNL     1       6.673   8.461   2.200  1.00  0.00     0.219 C 
BRANCH  17  18
HETATM   18  C10 UNL     1       5.365   7.685   1.894  1.00  0.00     0.009 C 
HETATM   19  C11 UNL     1       4.329   7.832   3.018  1.00  0.00     0.020 C 
HETATM   20  C12 UNL     1       4.715   8.169   0.582  1.00  0.00     0.020 C 
BRANCH  18  21
HETATM   21  C13 UNL     1       5.777   6.191   1.755  1.00  0.00     0.192 C 
BRANCH  21  22
HETATM   22  O4  UNL     1       5.374   5.416   2.866  1.00  0.00    -0.296 OA
BRANCH  22  23
HETATM   23  P1  UNL     1       6.416   4.758   3.892  1.00  0.00     0.401 P 
HETATM   24  O5  UNL     1       7.538   5.664   4.291  1.00  0.00    -0.631 OA
BRANCH  23  25
HETATM   25  O6  UNL     1       6.903   3.371   3.236  1.00  0.00    -0.307 OA
HETATM   26  H23 UNL     1       7.210   2.744   3.903  1.00  0.00     0.222 HD
ENDBRANCH  23  25
BRANCH  23  27
HETATM   27  O7  UNL     1       5.525   4.232   5.101  1.00  0.00    -0.195 OA
BRANCH  27  28
HETATM   28  P2  UNL     1       6.086   3.054   6.015  1.00  0.00     0.401 P 
HETATM   29  O8  UNL     1       5.841   1.657   5.545  1.00  0.00    -0.631 OA
BRANCH  28  30
HETATM   30  O9  UNL     1       7.630   3.423   6.182  1.00  0.00    -0.307 OA
HETATM   31  H24 UNL     1       7.824   4.010   6.953  1.00  0.00     0.222 HD
ENDBRANCH  28  30
BRANCH  28  32
HETATM   32  O10 UNL     1       5.541   3.405   7.474  1.00  0.00    -0.294 OA
BRANCH  32  33
HETATM   33  C14 UNL     1       4.633   2.544   8.111  1.00  0.00     0.215 C 
BRANCH  33  34
HETATM   34  C15 UNL     1       4.771   2.810   9.609  1.00  0.00     0.180 C 
HETATM   35  C16 UNL     1       3.521   3.511  10.125  1.00  0.00     0.197 C 
HETATM   36  C17 UNL     1       4.015   4.854  10.629  1.00  0.00     0.199 C 
HETATM   37  C18 UNL     1       5.479   4.557  10.960  1.00  0.00     0.262 C 
HETATM   38  O11 UNL     1       5.897   3.635   9.929  1.00  0.00    -0.353 OA
BRANCH  35  39
HETATM   39  O13 UNL     1       2.969   2.716  11.169  1.00  0.00    -0.286 OA
BRANCH  39  40
HETATM   40  P3  UNL     1       1.507   2.131  10.889  1.00  0.00     0.391 P 
HETATM   41  O14 UNL     1       1.327   1.595   9.506  1.00  0.00    -0.632 OA
BRANCH  40  42
HETATM   42  O15 UNL     1       0.599   3.373  11.327  1.00  0.00    -0.307 OA
HETATM   43  H36 UNL     1       1.051   4.225  11.121  1.00  0.00     0.222 HD
ENDBRANCH  40  42
BRANCH  40  44
HETATM   44  O16 UNL     1       1.338   1.114  12.100  1.00  0.00    -0.307 OA
HETATM   45  H37 UNL     1       0.595   1.342  12.682  1.00  0.00     0.222 HD
ENDBRANCH  40  44
ENDBRANCH  39  40
ENDBRANCH  35  39
BRANCH  36  46
HETATM   46  O12 UNL     1       3.183   5.319  11.695  1.00  0.00    -0.388 OA
HETATM   47  H35 UNL     1       2.784   6.168  11.386  1.00  0.00     0.210 HD
ENDBRANCH  36  46
BRANCH  37  48
HETATM   48  N3  UNL     1       6.315   5.739  10.895  1.00  0.00    -0.297 N 
HETATM   49  C19 UNL     1       6.775   6.491  11.951  1.00  0.00     0.188 A 
HETATM   50  N4  UNL     1       7.616   7.426  11.568  1.00  0.00    -0.346 N 
HETATM   51  C20 UNL     1       7.711   7.270  10.197  1.00  0.00     0.116 A 
HETATM   52  H4  UNL     1       8.093   8.113  12.152  1.00  0.00     0.167 HD
HETATM   53  C21 UNL     1       8.473   7.925   9.213  1.00  0.00     0.109 A 
HETATM   54  C23 UNL     1       6.880   6.253   9.762  1.00  0.00     0.142 A 
HETATM   55  N5  UNL     1       8.333   7.540   7.921  1.00  0.00    -0.341 N 
HETATM   56  C22 UNL     1       7.466   6.548   7.641  1.00  0.00     0.183 A 
HETATM   57  H5  UNL     1       8.872   7.990   7.181  1.00  0.00     0.167 HD
HETATM   58  N6  UNL     1       6.694   5.844   8.494  1.00  0.00    -0.336 N 
HETATM   59  H6  UNL     1       6.053   5.100   8.216  1.00  0.00     0.168 HD
BRANCH  53  60
HETATM   60  N7  UNL     1       9.355   8.956   9.494  1.00  0.00    -0.287 NA
HETATM   61  H33 UNL     1      10.262   8.866   9.041  1.00  0.00     0.125 HD
HETATM   62  H34 UNL     1       9.358   9.218  10.471  1.00  0.00     0.125 HD
ENDBRANCH  53  60
ENDBRANCH  37  48
ENDBRANCH  33  34
ENDBRANCH  32  33
ENDBRANCH  28  32
ENDBRANCH  27  28
ENDBRANCH  23  27
ENDBRANCH  22  23
ENDBRANCH  21  22
ENDBRANCH  18  21
ENDBRANCH  17  18
BRANCH  17  63
HETATM   63  O17 UNL     1       6.899   8.431   3.614  1.00  0.00    -0.385 OA
HETATM   64  H38 UNL     1       7.239   7.550   3.846  1.00  0.00     0.210 HD
ENDBRANCH  17  63
ENDBRANCH  14  17
ENDBRANCH  12  13
ENDBRANCH  11  12
ENDBRANCH   8  11
ENDBRANCH   6   7
ENDBRANCH   5   6
ENDBRANCH   4   5
ENDBRANCH   2   4
TORSDOF 27
ENDMDL
MODEL 6
REMARK VINA RESULT:      -6.9      4.851      7.034
REMARK  27 active torsions:
REMARK  status: ('A' for Active; 'I' for Inactive)
REMARK    1  A    between atoms: C2_2  and  S1_4 
REMARK    2  A    between atoms: S1_4  and  C3_5 
REMARK    3  A    between atoms: C3_5  and  C4_6 
REMARK    4  A    between atoms: C4_6  and  N1_7 
REMARK       I    between atoms: N1_7  and  C5_8 
REMARK    5  A    between atoms: C5_8  and  C6_10 
REMARK    6  A    between atoms: C6_10  and  C7_11 
REMARK    7  A    between atoms: C7_11  and  N2_12 
REMARK       I    between atoms: N2_12  and  C8_13 
REMARK    8  A    between atoms: C8_13  and  C9_15 
REMARK    9  A    between atoms: C9_15  and  C10_16 
REMARK   10  A    between atoms: C9_15  and  O17_54 
REMARK   11  A    between atoms: C10_16  and  C13_19 
REMARK   12  A    between atoms: C13_19  and  O4_20 
REMARK   13  A    between atoms: O4_20  and  P1_21 
REMARK   14  A    between atoms: P1_21  and  O6_23 
REMARK   15  A    between atoms: P1_21  and  O7_24 
REMARK   16  A    between atoms: O7_24  and  P2_25 
REMARK   17  A    between atoms: P2_25  and  O9_27 
REMARK   18  A    between atoms: P2_25  and  O10_28 
REMARK   19  A    between atoms: O10_28  and  C14_29 
REMARK   20  A    between atoms: C14_29  and  C15_30 
REMARK   21  A    between atoms: C16_31  and  O13_49 
REMARK   22  A    between atoms: C17_32  and  O12_48 
REMARK   23  A    between atoms: C18_33  and  N3_35 
REMARK   24  A    between atoms: C21_40  and  N7_47 
REMARK   25  A    between atoms: O13_49  and  P3_50 
REMARK   26  A    between atoms: P3_50  and  O15_52 
REMARK   27  A    between atoms: P3_50  and  O16_53 
ROOT
HETATM    1  C1  UNL     1       5.204  14.234  -9.351  1.00  0.00     0.104 C 
HETATM    2  C2  UNL     1       4.508  13.431  -8.295  1.00  0.00     0.182 C 
HETATM    3  O1  UNL     1       3.500  12.762  -8.512  1.00  0.00    -0.286 OA
ENDROOT
BRANCH   2   4
HETATM    4  S1  UNL     1       5.229  13.555  -6.696  1.00  0.00    -0.091 SA
BRANCH   4   5
HETATM    5  C3  UNL     1       4.606  12.019  -5.940  1.00  0.00     0.102 C 
BRANCH   5   6
HETATM    6  C4  UNL     1       4.890  11.967  -4.438  1.00  0.00     0.133 C 
BRANCH   6   7
HETATM    7  N1  UNL     1       6.221  12.431  -4.104  1.00  0.00    -0.360 N 
HETATM    8  C5  UNL     1       7.298  11.576  -4.065  1.00  0.00     0.219 C 
HETATM    9  O2  UNL     1       7.186  10.366  -4.229  1.00  0.00    -0.274 OA
HETATM   10  H8  UNL     1       6.358  13.412  -3.902  1.00  0.00     0.162 HD
BRANCH   8  11
HETATM   11  C6  UNL     1       8.604  12.271  -3.751  1.00  0.00     0.122 C 
BRANCH  11  12
HETATM   12  C7  UNL     1       9.337  11.609  -2.585  1.00  0.00     0.132 C 
BRANCH  12  13
HETATM   13  N2  UNL     1       8.459  10.848  -1.721  1.00  0.00    -0.358 N 
HETATM   14  C8  UNL     1       8.530  10.999  -0.348  1.00  0.00     0.247 C 
HETATM   15  O3  UNL     1       9.399  11.675   0.189  1.00  0.00    -0.271 OA
HETATM   16  H13 UNL     1       7.552  10.613  -2.117  1.00  0.00     0.162 HD
BRANCH  14  17
HETATM   17  C9  UNL     1       7.429  10.271   0.438  1.00  0.00     0.219 C 
BRANCH  17  18
HETATM   18  C10 UNL     1       7.832   8.868   0.960  1.00  0.00     0.009 C 
HETATM   19  C11 UNL     1       8.002   7.853  -0.180  1.00  0.00     0.020 C 
HETATM   20  C12 UNL     1       9.155   8.918   1.752  1.00  0.00     0.020 C 
BRANCH  18  21
HETATM   21  C13 UNL     1       6.677   8.412   1.897  1.00  0.00     0.192 C 
BRANCH  21  22
HETATM   22  O4  UNL     1       6.898   8.781   3.243  1.00  0.00    -0.296 OA
BRANCH  22  23
HETATM   23  P1  UNL     1       5.778   8.635   4.381  1.00  0.00     0.401 P 
HETATM   24  O5  UNL     1       4.394   8.422   3.854  1.00  0.00    -0.631 OA
BRANCH  23  25
HETATM   25  O6  UNL     1       5.917   9.921   5.339  1.00  0.00    -0.307 OA
HETATM   26  H23 UNL     1       5.090  10.416   5.403  1.00  0.00     0.222 HD
ENDBRANCH  23  25
BRANCH  23  27
HETATM   27  O7  UNL     1       6.310   7.480   5.336  1.00  0.00    -0.195 OA
BRANCH  27  28
HETATM   28  P2  UNL     1       7.384   7.840   6.457  1.00  0.00     0.401 P 
HETATM   29  O8  UNL     1       8.449   8.819   6.084  1.00  0.00    -0.631 OA
BRANCH  28  30
HETATM   30  O9  UNL     1       6.483   8.298   7.693  1.00  0.00    -0.307 OA
HETATM   31  H24 UNL     1       6.966   8.837   8.367  1.00  0.00     0.222 HD
ENDBRANCH  28  30
BRANCH  28  32
HETATM   32  O10 UNL     1       7.893   6.418   6.975  1.00  0.00    -0.294 OA
BRANCH  32  33
HETATM   33  C14 UNL     1       8.615   5.575   6.116  1.00  0.00     0.215 C 
BRANCH  33  34
HETATM   34  C15 UNL     1       7.830   4.266   6.044  1.00  0.00     0.180 C 
HETATM   35  C16 UNL     1       6.630   4.435   5.122  1.00  0.00     0.197 C 
HETATM   36  C17 UNL     1       5.425   4.206   6.014  1.00  0.00     0.199 C 
HETATM   37  C18 UNL     1       6.005   3.326   7.123  1.00  0.00     0.262 C 
HETATM   38  O11 UNL     1       7.342   3.837   7.321  1.00  0.00    -0.353 OA
BRANCH  35  39
HETATM   39  O13 UNL     1       6.727   3.459   4.090  1.00  0.00    -0.286 OA
BRANCH  39  40
HETATM   40  P3  UNL     1       6.446   3.991   2.609  1.00  0.00     0.391 P 
HETATM   41  O14 UNL     1       5.054   4.495   2.404  1.00  0.00    -0.632 OA
BRANCH  40  42
HETATM   42  O15 UNL     1       6.913   2.730   1.743  1.00  0.00    -0.307 OA
HETATM   43  H36 UNL     1       6.284   2.564   1.001  1.00  0.00     0.222 HD
ENDBRANCH  40  42
BRANCH  40  44
HETATM   44  O16 UNL     1       7.639   5.025   2.414  1.00  0.00    -0.307 OA
HETATM   45  H37 UNL     1       8.435   4.615   2.040  1.00  0.00     0.222 HD
ENDBRANCH  40  44
ENDBRANCH  39  40
ENDBRANCH  35  39
BRANCH  36  46
HETATM   46  O12 UNL     1       4.338   3.673   5.252  1.00  0.00    -0.388 OA
HETATM   47  H35 UNL     1       4.333   4.161   4.395  1.00  0.00     0.210 HD
ENDBRANCH  36  46
BRANCH  37  48
HETATM   48  N3  UNL     1       5.272   3.442   8.367  1.00  0.00    -0.297 N 
HETATM   49  C19 UNL     1       4.347   2.560   8.873  1.00  0.00     0.188 A 
HETATM   50  N4  UNL     1       3.955   2.888  10.084  1.00  0.00    -0.346 N 
HETATM   51  C20 UNL     1       4.666   4.037  10.382  1.00  0.00     0.116 A 
HETATM   52  H4  UNL     1       3.278   2.403  10.674  1.00  0.00     0.167 HD
HETATM   53  C21 UNL     1       4.729   4.848  11.528  1.00  0.00     0.109 A 
HETATM   54  C23 UNL     1       5.456   4.414   9.311  1.00  0.00     0.142 A 
HETATM   55  N5  UNL     1       5.533   5.940  11.507  1.00  0.00    -0.341 N 
HETATM   56  C22 UNL     1       6.230   6.197  10.382  1.00  0.00     0.183 A 
HETATM   57  H5  UNL     1       5.608   6.550  12.321  1.00  0.00     0.167 HD
HETATM   58  N6  UNL     1       6.256   5.492   9.233  1.00  0.00    -0.336 N 
HETATM   59  H6  UNL     1       6.808   5.743   8.413  1.00  0.00     0.168 HD
BRANCH  53  60
HETATM   60  N7  UNL     1       4.004   4.596  12.681  1.00  0.00    -0.287 NA
HETATM   61  H33 UNL     1       3.566   5.419  13.089  1.00  0.00     0.125 HD
HETATM   62  H34 UNL     1       4.479   3.971  13.318  1.00  0.00     0.125 HD
ENDBRANCH  53  60
ENDBRANCH  37  48
ENDBRANCH  33  34
ENDBRANCH  32  33
ENDBRANCH  28  32
ENDBRANCH  27  28
ENDBRANCH  23  27
ENDBRANCH  22  23
ENDBRANCH  21  22
ENDBRANCH  18  21
ENDBRANCH  17  18
BRANCH  17  63
HETATM   63  O17 UNL     1       7.010  11.068   1.552  1.00  0.00    -0.385 OA
HETATM   64  H38 UNL     1       7.786  11.549   1.887  1.00  0.00     0.210 HD
ENDBRANCH  17  63
ENDBRANCH  14  17
ENDBRANCH  12  13
ENDBRANCH  11  12
ENDBRANCH   8  11
ENDBRANCH   6   7
ENDBRANCH   5   6
ENDBRANCH   4   5
ENDBRANCH   2   4
TORSDOF 27
ENDMDL
MODEL 7
REMARK VINA RESULT:      -6.6     12.379     16.811
REMARK  27 active torsions:
REMARK  status: ('A' for Active; 'I' for Inactive)
REMARK    1  A    between atoms: C2_2  and  S1_4 
REMARK    2  A    between atoms: S1_4  and  C3_5 
REMARK    3  A    between atoms: C3_5  and  C4_6 
REMARK    4  A    between atoms: C4_6  and  N1_7 
REMARK       I    between atoms: N1_7  and  C5_8 
REMARK    5  A    between atoms: C5_8  and  C6_10 
REMARK    6  A    between atoms: C6_10  and  C7_11 
REMARK    7  A    between atoms: C7_11  and  N2_12 
REMARK       I    between atoms: N2_12  and  C8_13 
REMARK    8  A    between atoms: C8_13  and  C9_15 
REMARK    9  A    between atoms: C9_15  and  C10_16 
REMARK   10  A    between atoms: C9_15  and  O17_54 
REMARK   11  A    between atoms: C10_16  and  C13_19 
REMARK   12  A    between atoms: C13_19  and  O4_20 
REMARK   13  A    between atoms: O4_20  and  P1_21 
REMARK   14  A    between atoms: P1_21  and  O6_23 
REMARK   15  A    between atoms: P1_21  and  O7_24 
REMARK   16  A    between atoms: O7_24  and  P2_25 
REMARK   17  A    between atoms: P2_25  and  O9_27 
REMARK   18  A    between atoms: P2_25  and  O10_28 
REMARK   19  A    between atoms: O10_28  and  C14_29 
REMARK   20  A    between atoms: C14_29  and  C15_30 
REMARK   21  A    between atoms: C16_31  and  O13_49 
REMARK   22  A    between atoms: C17_32  and  O12_48 
REMARK   23  A    between atoms: C18_33  and  N3_35 
REMARK   24  A    between atoms: C21_40  and  N7_47 
REMARK   25  A    between atoms: O13_49  and  P3_50 
REMARK   26  A    between atoms: P3_50  and  O15_52 
REMARK   27  A    between atoms: P3_50  and  O16_53 
ROOT
HETATM    1  C1  UNL     1       7.595   6.698 -11.334  1.00  0.00     0.104 C 
HETATM    2  C2  UNL     1       6.859   6.103 -10.172  1.00  0.00     0.182 C 
HETATM    3  O1  UNL     1       6.889   6.579  -9.040  1.00  0.00    -0.286 OA
ENDROOT
BRANCH   2   4
HETATM    4  S1  UNL     1       5.973   4.632 -10.551  1.00  0.00    -0.091 SA
BRANCH   4   5
HETATM    5  C3  UNL     1       4.364   5.339 -11.034  1.00  0.00     0.102 C 
BRANCH   5   6
HETATM    6  C4  UNL     1       3.197   4.453 -10.592  1.00  0.00     0.133 C 
BRANCH   6   7
HETATM    7  N1  UNL     1       2.537   4.951  -9.403  1.00  0.00    -0.360 N 
HETATM    8  C5  UNL     1       1.204   4.710  -9.161  1.00  0.00     0.219 C 
HETATM    9  O2  UNL     1       0.480   4.136  -9.966  1.00  0.00    -0.274 OA
HETATM   10  H8  UNL     1       3.076   5.482  -8.733  1.00  0.00     0.162 HD
BRANCH   8  11
HETATM   11  C6  UNL     1       0.725   5.268  -7.838  1.00  0.00     0.122 C 
BRANCH  11  12
HETATM   12  C7  UNL     1       1.861   5.381  -6.821  1.00  0.00     0.132 C 
BRANCH  12  13
HETATM   13  N2  UNL     1       1.979   6.705  -6.247  1.00  0.00    -0.358 N 
HETATM   14  C8  UNL     1       2.827   7.637  -6.816  1.00  0.00     0.247 C 
HETATM   15  O3  UNL     1       3.586   7.354  -7.735  1.00  0.00    -0.271 OA
HETATM   16  H13 UNL     1       1.145   7.057  -5.782  1.00  0.00     0.162 HD
BRANCH  14  17
HETATM   17  C9  UNL     1       2.725   9.049  -6.220  1.00  0.00     0.219 C 
BRANCH  17  18
HETATM   18  C10 UNL     1       3.658   9.304  -5.007  1.00  0.00     0.009 C 
HETATM   19  C11 UNL     1       3.099   8.698  -3.711  1.00  0.00     0.020 C 
HETATM   20  C12 UNL     1       5.063   8.713  -5.241  1.00  0.00     0.020 C 
BRANCH  18  21
HETATM   21  C13 UNL     1       3.756  10.849  -4.861  1.00  0.00     0.192 C 
BRANCH  21  22
HETATM   22  O4  UNL     1       4.837  11.391  -5.592  1.00  0.00    -0.296 OA
BRANCH  22  23
HETATM   23  P1  UNL     1       5.597  12.734  -5.156  1.00  0.00     0.401 P 
HETATM   24  O5  UNL     1       6.666  12.527  -4.130  1.00  0.00    -0.631 OA
BRANCH  23  25
HETATM   25  O6  UNL     1       4.463  13.786  -4.710  1.00  0.00    -0.307 OA
HETATM   26  H23 UNL     1       3.574  13.467  -4.913  1.00  0.00     0.222 HD
ENDBRANCH  23  25
BRANCH  23  27
HETATM   27  O7  UNL     1       6.100  13.382  -6.519  1.00  0.00    -0.195 OA
BRANCH  27  28
HETATM   28  P2  UNL     1       5.022  13.853  -7.593  1.00  0.00     0.401 P 
HETATM   29  O8  UNL     1       3.712  13.135  -7.596  1.00  0.00    -0.631 OA
BRANCH  28  30
HETATM   30  O9  UNL     1       4.902  15.423  -7.328  1.00  0.00    -0.307 OA
HETATM   31  H24 UNL     1       5.565  15.776  -6.685  1.00  0.00     0.222 HD
ENDBRANCH  28  30
BRANCH  28  32
HETATM   32  O10 UNL     1       5.824  13.849  -8.974  1.00  0.00    -0.294 OA
BRANCH  32  33
HETATM   33  C14 UNL     1       5.144  13.618 -10.180  1.00  0.00     0.215 C 
BRANCH  33  34
HETATM   34  C15 UNL     1       5.593  12.242 -10.667  1.00  0.00     0.180 C 
HETATM   35  C16 UNL     1       4.764  11.159  -9.990  1.00  0.00     0.197 C 
HETATM   36  C17 UNL     1       5.768  10.347  -9.194  1.00  0.00     0.199 C 
HETATM   37  C18 UNL     1       7.067  10.596  -9.964  1.00  0.00     0.262 C 
HETATM   38  O11 UNL     1       6.972  11.973 -10.388  1.00  0.00    -0.353 OA
BRANCH  35  39
HETATM   39  O13 UNL     1       4.134  10.386 -11.006  1.00  0.00    -0.286 OA
BRANCH  39  40
HETATM   40  P3  UNL     1       2.550  10.221 -10.863  1.00  0.00     0.391 P 
HETATM   41  O14 UNL     1       1.812  10.343 -12.158  1.00  0.00    -0.632 OA
BRANCH  40  42
HETATM   42  O15 UNL     1       2.237  11.304  -9.728  1.00  0.00    -0.307 OA
HETATM   43  H36 UNL     1       1.388  11.770  -9.915  1.00  0.00     0.222 HD
ENDBRANCH  40  42
BRANCH  40  44
HETATM   44  O16 UNL     1       2.446   8.839 -10.084  1.00  0.00    -0.307 OA
HETATM   45  H37 UNL     1       1.710   8.287 -10.393  1.00  0.00     0.222 HD
ENDBRANCH  40  44
ENDBRANCH  39  40
ENDBRANCH  35  39
BRANCH  36  46
HETATM   46  O12 UNL     1       5.325   8.993  -9.072  1.00  0.00    -0.388 OA
HETATM   47  H35 UNL     1       6.124   8.459  -8.846  1.00  0.00     0.210 HD
ENDBRANCH  36  46
BRANCH  37  48
HETATM   48  N3  UNL     1       8.245  10.444  -9.133  1.00  0.00    -0.297 N 
HETATM   49  C19 UNL     1       9.059   9.340  -9.040  1.00  0.00     0.188 A 
HETATM   50  N4  UNL     1      10.118   9.563  -8.293  1.00  0.00    -0.346 N 
HETATM   51  C20 UNL     1       9.986  10.879  -7.885  1.00  0.00     0.116 A 
HETATM   52  H4  UNL     1      10.870   8.913  -8.064  1.00  0.00     0.167 HD
HETATM   53  C21 UNL     1      10.801  11.723  -7.111  1.00  0.00     0.109 A 
HETATM   54  C23 UNL     1       8.810  11.424  -8.366  1.00  0.00     0.142 A 
HETATM   55  N5  UNL     1      10.382  12.990  -6.873  1.00  0.00    -0.341 N 
HETATM   56  C22 UNL     1       9.198  13.378  -7.388  1.00  0.00     0.183 A 
HETATM   57  H5  UNL     1      10.948  13.633  -6.318  1.00  0.00     0.167 HD
HETATM   58  N6  UNL     1       8.341  12.666  -8.147  1.00  0.00    -0.336 N 
HETATM   59  H6  UNL     1       7.455  13.021  -8.507  1.00  0.00     0.168 HD
BRANCH  53  60
HETATM   60  N7  UNL     1      12.012  11.325  -6.567  1.00  0.00    -0.287 NA
HETATM   61  H33 UNL     1      12.276  10.368  -6.789  1.00  0.00     0.125 HD
HETATM   62  H34 UNL     1      12.129  11.619  -5.606  1.00  0.00     0.125 HD
ENDBRANCH  53  60
ENDBRANCH  37  48
ENDBRANCH  33  34
ENDBRANCH  32  33
ENDBRANCH  28  32
ENDBRANCH  27  28
ENDBRANCH  23  27
ENDBRANCH  22  23
ENDBRANCH  21  22
ENDBRANCH  18  21
ENDBRANCH  17  18
BRANCH  17  63
HETATM   63  O17 UNL     1       3.007  10.030  -7.224  1.00  0.00    -0.385 OA
HETATM   64  H38 UNL     1       3.894  10.389  -7.054  1.00  0.00     0.210 HD
ENDBRANCH  17  63
ENDBRANCH  14  17
ENDBRANCH  12  13
ENDBRANCH  11  12
ENDBRANCH   8  11
ENDBRANCH   6   7
ENDBRANCH   5   6
ENDBRANCH   4   5
ENDBRANCH   2   4
TORSDOF 27
ENDMDL
MODEL 8
REMARK VINA RESULT:      -6.6      4.228      8.625
REMARK  27 active torsions:
REMARK  status: ('A' for Active; 'I' for Inactive)
REMARK    1  A    between atoms: C2_2  and  S1_4 
REMARK    2  A    between atoms: S1_4  and  C3_5 
REMARK    3  A    between atoms: C3_5  and  C4_6 
REMARK    4  A    between atoms: C4_6  and  N1_7 
REMARK       I    between atoms: N1_7  and  C5_8 
REMARK    5  A    between atoms: C5_8  and  C6_10 
REMARK    6  A    between atoms: C6_10  and  C7_11 
REMARK    7  A    between atoms: C7_11  and  N2_12 
REMARK       I    between atoms: N2_12  and  C8_13 
REMARK    8  A    between atoms: C8_13  and  C9_15 
REMARK    9  A    between atoms: C9_15  and  C10_16 
REMARK   10  A    between atoms: C9_15  and  O17_54 
REMARK   11  A    between atoms: C10_16  and  C13_19 
REMARK   12  A    between atoms: C13_19  and  O4_20 
REMARK   13  A    between atoms: O4_20  and  P1_21 
REMARK   14  A    between atoms: P1_21  and  O6_23 
REMARK   15  A    between atoms: P1_21  and  O7_24 
REMARK   16  A    between atoms: O7_24  and  P2_25 
REMARK   17  A    between atoms: P2_25  and  O9_27 
REMARK   18  A    between atoms: P2_25  and  O10_28 
REMARK   19  A    between atoms: O10_28  and  C14_29 
REMARK   20  A    between atoms: C14_29  and  C15_30 
REMARK   21  A    between atoms: C16_31  and  O13_49 
REMARK   22  A    between atoms: C17_32  and  O12_48 
REMARK   23  A    between atoms: C18_33  and  N3_35 
REMARK   24  A    between atoms: C21_40  and  N7_47 
REMARK   25  A    between atoms: O13_49  and  P3_50 
REMARK   26  A    between atoms: P3_50  and  O15_52 
REMARK   27  A    between atoms: P3_50  and  O16_53 
ROOT
HETATM    1  C1  UNL     1      12.209   6.080  12.797  1.00  0.00     0.104 C 
HETATM    2  C2  UNL     1      10.907   5.381  13.045  1.00  0.00     0.182 C 
HETATM    3  O1  UNL     1       9.874   5.642  12.433  1.00  0.00    -0.286 OA
ENDROOT
BRANCH   2   4
HETATM    4  S1  UNL     1      10.964   4.174  14.322  1.00  0.00    -0.091 SA
BRANCH   4   5
HETATM    5  C3  UNL     1       9.923   4.982  15.580  1.00  0.00     0.102 C 
BRANCH   5   6
HETATM    6  C4  UNL     1       8.576   4.276  15.744  1.00  0.00     0.133 C 
BRANCH   6   7
HETATM    7  N1  UNL     1       7.983   3.900  14.477  1.00  0.00    -0.360 N 
HETATM    8  C5  UNL     1       7.246   2.747  14.336  1.00  0.00     0.219 C 
HETATM    9  O2  UNL     1       7.114   1.934  15.243  1.00  0.00    -0.274 OA
HETATM   10  H8  UNL     1       8.112   4.509  13.680  1.00  0.00     0.162 HD
BRANCH   8  11
HETATM   11  C6  UNL     1       6.670   2.570  12.947  1.00  0.00     0.122 C 
BRANCH  11  12
HETATM   12  C7  UNL     1       5.165   2.311  12.983  1.00  0.00     0.132 C 
BRANCH  12  13
HETATM   13  N2  UNL     1       4.573   2.221  11.665  1.00  0.00    -0.358 N 
HETATM   14  C8  UNL     1       3.219   1.980  11.524  1.00  0.00     0.247 C 
HETATM   15  O3  UNL     1       2.500   1.719  12.480  1.00  0.00    -0.271 OA
HETATM   16  H13 UNL     1       5.024   2.780  10.943  1.00  0.00     0.162 HD
BRANCH  14  17
HETATM   17  C9  UNL     1       2.692   2.085  10.085  1.00  0.00     0.219 C 
BRANCH  17  18
HETATM   18  C10 UNL     1       2.742   0.758   9.283  1.00  0.00     0.009 C 
HETATM   19  C11 UNL     1       3.232  -0.418  10.141  1.00  0.00     0.020 C 
HETATM   20  C12 UNL     1       1.356   0.387   8.717  1.00  0.00     0.020 C 
BRANCH  18  21
HETATM   21  C13 UNL     1       3.737   1.003   8.113  1.00  0.00     0.192 C 
BRANCH  21  22
HETATM   22  O4  UNL     1       4.702   1.988   8.425  1.00  0.00    -0.296 OA
BRANCH  22  23
HETATM   23  P1  UNL     1       5.450   2.859   7.305  1.00  0.00     0.401 P 
HETATM   24  O5  UNL     1       6.813   3.329   7.705  1.00  0.00    -0.631 OA
BRANCH  23  25
HETATM   25  O6  UNL     1       4.447   4.049   6.895  1.00  0.00    -0.307 OA
HETATM   26  H23 UNL     1       4.025   3.889   6.041  1.00  0.00     0.222 HD
ENDBRANCH  23  25
BRANCH  23  27
HETATM   27  O7  UNL     1       5.415   1.959   5.993  1.00  0.00    -0.195 OA
BRANCH  27  28
HETATM   28  P2  UNL     1       6.369   2.337   4.775  1.00  0.00     0.401 P 
HETATM   29  O8  UNL     1       7.814   1.986   4.914  1.00  0.00    -0.631 OA
BRANCH  28  30
HETATM   30  O9  UNL     1       5.651   1.656   3.522  1.00  0.00    -0.307 OA
HETATM   31  H24 UNL     1       4.890   1.072   3.761  1.00  0.00     0.222 HD
ENDBRANCH  28  30
BRANCH  28  32
HETATM   32  O10 UNL     1       6.049   3.876   4.496  1.00  0.00    -0.294 OA
BRANCH  32  33
HETATM   33  C14 UNL     1       7.098   4.799   4.364  1.00  0.00     0.215 C 
BRANCH  33  34
HETATM   34  C15 UNL     1       6.587   6.114   4.951  1.00  0.00     0.180 C 
HETATM   35  C16 UNL     1       7.578   7.231   4.653  1.00  0.00     0.197 C 
HETATM   36  C17 UNL     1       8.047   7.702   6.016  1.00  0.00     0.199 C 
HETATM   37  C18 UNL     1       6.871   7.313   6.915  1.00  0.00     0.262 C 
HETATM   38  O11 UNL     1       6.407   6.058   6.371  1.00  0.00    -0.353 OA
BRANCH  35  39
HETATM   39  O13 UNL     1       6.889   8.253   3.940  1.00  0.00    -0.286 OA
BRANCH  39  40
HETATM   40  P3  UNL     1       7.492   8.618   2.505  1.00  0.00     0.391 P 
HETATM   41  O14 UNL     1       6.665   9.596   1.735  1.00  0.00    -0.632 OA
BRANCH  40  42
HETATM   42  O15 UNL     1       7.684   7.157   1.881  1.00  0.00    -0.307 OA
HETATM   43  H36 UNL     1       7.277   7.105   0.983  1.00  0.00     0.222 HD
ENDBRANCH  40  42
BRANCH  40  44
HETATM   44  O16 UNL     1       8.975   9.046   2.886  1.00  0.00    -0.307 OA
HETATM   45  H37 UNL     1       9.044   9.981   3.137  1.00  0.00     0.222 HD
ENDBRANCH  40  44
ENDBRANCH  39  40
ENDBRANCH  35  39
BRANCH  36  46
HETATM   46  O12 UNL     1       8.406   9.086   5.966  1.00  0.00    -0.388 OA
HETATM   47  H35 UNL     1       8.863   9.285   6.818  1.00  0.00     0.210 HD
ENDBRANCH  36  46
BRANCH  37  48
HETATM   48  N3  UNL     1       7.269   7.105   8.293  1.00  0.00    -0.297 N 
HETATM   49  C19 UNL     1       8.426   7.537   8.898  1.00  0.00     0.188 A 
HETATM   50  N4  UNL     1       8.432   7.297  10.192  1.00  0.00    -0.346 N 
HETATM   51  C20 UNL     1       7.216   6.684  10.438  1.00  0.00     0.116 A 
HETATM   52  H4  UNL     1       9.168   7.515  10.863  1.00  0.00     0.167 HD
HETATM   53  C21 UNL     1       6.602   6.224  11.616  1.00  0.00     0.109 A 
HETATM   54  C23 UNL     1       6.502   6.524   9.264  1.00  0.00     0.142 A 
HETATM   55  N5  UNL     1       5.380   5.645  11.527  1.00  0.00    -0.341 N 
HETATM   56  C22 UNL     1       4.813   5.534  10.310  1.00  0.00     0.183 A 
HETATM   57  H5  UNL     1       4.902   5.302  12.361  1.00  0.00     0.167 HD
HETATM   58  N6  UNL     1       5.298   5.944   9.119  1.00  0.00    -0.336 N 
HETATM   59  H6  UNL     1       4.815   5.829   8.228  1.00  0.00     0.168 HD
BRANCH  53  60
HETATM   60  N7  UNL     1       7.187   6.322  12.869  1.00  0.00    -0.287 NA
HETATM   61  H33 UNL     1       7.880   7.063  12.950  1.00  0.00     0.125 HD
HETATM   62  H34 UNL     1       7.433   5.423  13.261  1.00  0.00     0.125 HD
ENDBRANCH  53  60
ENDBRANCH  37  48
ENDBRANCH  33  34
ENDBRANCH  32  33
ENDBRANCH  28  32
ENDBRANCH  27  28
ENDBRANCH  23  27
ENDBRANCH  22  23
ENDBRANCH  21  22
ENDBRANCH  18  21
ENDBRANCH  17  18
BRANCH  17  63
HETATM   63  O17 UNL     1       1.343   2.565  10.087  1.00  0.00    -0.385 OA
HETATM   64  H38 UNL     1       1.328   3.426   9.637  1.00  0.00     0.210 HD
ENDBRANCH  17  63
ENDBRANCH  14  17
ENDBRANCH  12  13
ENDBRANCH  11  12
ENDBRANCH   8  11
ENDBRANCH   6   7
ENDBRANCH   5   6
ENDBRANCH   4   5
ENDBRANCH   2   4
TORSDOF 27
ENDMDL
MODEL 9
REMARK VINA RESULT:      -6.5      8.287     11.502
REMARK  27 active torsions:
REMARK  status: ('A' for Active; 'I' for Inactive)
REMARK    1  A    between atoms: C2_2  and  S1_4 
REMARK    2  A    between atoms: S1_4  and  C3_5 
REMARK    3  A    between atoms: C3_5  and  C4_6 
REMARK    4  A    between atoms: C4_6  and  N1_7 
REMARK       I    between atoms: N1_7  and  C5_8 
REMARK    5  A    between atoms: C5_8  and  C6_10 
REMARK    6  A    between atoms: C6_10  and  C7_11 
REMARK    7  A    between atoms: C7_11  and  N2_12 
REMARK       I    between atoms: N2_12  and  C8_13 
REMARK    8  A    between atoms: C8_13  and  C9_15 
REMARK    9  A    between atoms: C9_15  and  C10_16 
REMARK   10  A    between atoms: C9_15  and  O17_54 
REMARK   11  A    between atoms: C10_16  and  C13_19 
REMARK   12  A    between atoms: C13_19  and  O4_20 
REMARK   13  A    between atoms: O4_20  and  P1_21 
REMARK   14  A    between atoms: P1_21  and  O6_23 
REMARK   15  A    between atoms: P1_21  and  O7_24 
REMARK   16  A    between atoms: O7_24  and  P2_25 
REMARK   17  A    between atoms: P2_25  and  O9_27 
REMARK   18  A    between atoms: P2_25  and  O10_28 
REMARK   19  A    between atoms: O10_28  and  C14_29 
REMARK   20  A    between atoms: C14_29  and  C15_30 
REMARK   21  A    between atoms: C16_31  and  O13_49 
REMARK   22  A    between atoms: C17_32  and  O12_48 
REMARK   23  A    between atoms: C18_33  and  N3_35 
REMARK   24  A    between atoms: C21_40  and  N7_47 
REMARK   25  A    between atoms: O13_49  and  P3_50 
REMARK   26  A    between atoms: P3_50  and  O15_52 
REMARK   27  A    between atoms: P3_50  and  O16_53 
ROOT
HETATM    1  C1  UNL     1       6.600   4.004  -9.797  1.00  0.00     0.104 C 
HETATM    2  C2  UNL     1       5.190   4.090  -9.296  1.00  0.00     0.182 C 
HETATM    3  O1  UNL     1       4.891   4.564  -8.202  1.00  0.00    -0.286 OA
ENDROOT
BRANCH   2   4
HETATM    4  S1  UNL     1       3.989   3.417 -10.389  1.00  0.00    -0.091 SA
BRANCH   4   5
HETATM    5  C3  UNL     1       2.944   4.883 -10.665  1.00  0.00     0.102 C 
BRANCH   5   6
HETATM    6  C4  UNL     1       1.781   4.949  -9.674  1.00  0.00     0.133 C 
BRANCH   6   7
HETATM    7  N1  UNL     1       2.015   5.890  -8.598  1.00  0.00    -0.360 N 
HETATM    8  C5  UNL     1       1.407   5.753  -7.372  1.00  0.00     0.219 C 
HETATM    9  O2  UNL     1       0.574   4.884  -7.141  1.00  0.00    -0.274 OA
HETATM   10  H8  UNL     1       2.650   6.661  -8.755  1.00  0.00     0.162 HD
BRANCH   8  11
HETATM   11  C6  UNL     1       1.830   6.808  -6.372  1.00  0.00     0.122 C 
BRANCH  11  12
HETATM   12  C7  UNL     1       3.212   7.376  -6.692  1.00  0.00     0.132 C 
BRANCH  12  13
HETATM   13  N2  UNL     1       3.200   8.807  -6.915  1.00  0.00    -0.358 N 
HETATM   14  C8  UNL     1       3.233   9.312  -8.202  1.00  0.00     0.247 C 
HETATM   15  O3  UNL     1       3.392   8.593  -9.180  1.00  0.00    -0.271 OA
HETATM   16  H13 UNL     1       2.708   9.355  -6.212  1.00  0.00     0.162 HD
BRANCH  14  17
HETATM   17  C9  UNL     1       3.036  10.832  -8.303  1.00  0.00     0.219 C 
BRANCH  17  18
HETATM   18  C10 UNL     1       4.348  11.640  -8.480  1.00  0.00     0.009 C 
HETATM   19  C11 UNL     1       5.105  11.240  -9.756  1.00  0.00     0.020 C 
HETATM   20  C12 UNL     1       4.074  13.156  -8.545  1.00  0.00     0.020 C 
BRANCH  18  21
HETATM   21  C13 UNL     1       5.220  11.317  -7.233  1.00  0.00     0.192 C 
BRANCH  21  22
HETATM   22  O4  UNL     1       4.532  11.548  -6.021  1.00  0.00    -0.296 OA
BRANCH  22  23
HETATM   23  P1  UNL     1       5.146  12.421  -4.824  1.00  0.00     0.401 P 
HETATM   24  O5  UNL     1       4.750  13.863  -4.853  1.00  0.00    -0.631 OA
BRANCH  23  25
HETATM   25  O6  UNL     1       6.738  12.183  -4.844  1.00  0.00    -0.307 OA
HETATM   26  H23 UNL     1       7.205  12.817  -4.285  1.00  0.00     0.222 HD
ENDBRANCH  23  25
BRANCH  23  27
HETATM   27  O7  UNL     1       4.735  11.645  -3.497  1.00  0.00    -0.195 OA
BRANCH  27  28
HETATM   28  P2  UNL     1       4.683  10.053  -3.520  1.00  0.00     0.401 P 
HETATM   29  O8  UNL     1       3.354   9.422  -3.779  1.00  0.00    -0.631 OA
BRANCH  28  30
HETATM   30  O9  UNL     1       5.807   9.665  -4.587  1.00  0.00    -0.307 OA
HETATM   31  H24 UNL     1       5.450   9.350  -5.453  1.00  0.00     0.222 HD
ENDBRANCH  28  30
BRANCH  28  32
HETATM   32  O10 UNL     1       5.407   9.623  -2.163  1.00  0.00    -0.294 OA
BRANCH  32  33
HETATM   33  C14 UNL     1       4.660   9.057  -1.118  1.00  0.00     0.215 C 
BRANCH  33  34
HETATM   34  C15 UNL     1       5.612   8.936   0.070  1.00  0.00     0.180 C 
HETATM   35  C16 UNL     1       7.049   8.849  -0.427  1.00  0.00     0.197 C 
HETATM   36  C17 UNL     1       7.535   7.490   0.038  1.00  0.00     0.199 C 
HETATM   37  C18 UNL     1       6.638   7.223   1.249  1.00  0.00     0.262 C 
HETATM   38  O11 UNL     1       5.358   7.778   0.874  1.00  0.00    -0.353 OA
BRANCH  35  39
HETATM   39  O13 UNL     1       7.786   9.914   0.164  1.00  0.00    -0.286 OA
BRANCH  39  40
HETATM   40  P3  UNL     1       8.748  10.719  -0.827  1.00  0.00     0.391 P 
HETATM   41  O14 UNL     1       9.804   9.873  -1.461  1.00  0.00    -0.632 OA
BRANCH  40  42
HETATM   42  O15 UNL     1       9.228  11.912   0.126  1.00  0.00    -0.307 OA
HETATM   43  H36 UNL     1      10.186  12.103  -0.011  1.00  0.00     0.222 HD
ENDBRANCH  40  42
BRANCH  40  44
HETATM   44  O16 UNL     1       7.694  11.425  -1.786  1.00  0.00    -0.307 OA
HETATM   45  H37 UNL     1       6.811  11.491  -1.390  1.00  0.00     0.222 HD
ENDBRANCH  40  44
ENDBRANCH  39  40
ENDBRANCH  35  39
BRANCH  36  46
HETATM   46  O12 UNL     1       8.948   7.517   0.260  1.00  0.00    -0.388 OA
HETATM   47  H35 UNL     1       9.185   6.643   0.652  1.00  0.00     0.210 HD
ENDBRANCH  36  46
BRANCH  37  48
HETATM   48  N3  UNL     1       6.472   5.809   1.518  1.00  0.00    -0.297 N 
HETATM   49  C19 UNL     1       7.060   4.761   0.849  1.00  0.00     0.188 A 
HETATM   50  N4  UNL     1       6.807   3.602   1.416  1.00  0.00    -0.346 N 
HETATM   51  C20 UNL     1       6.020   3.914   2.511  1.00  0.00     0.116 A 
HETATM   52  H4  UNL     1       7.120   2.679   1.117  1.00  0.00     0.167 HD
HETATM   53  C21 UNL     1       5.460   3.132   3.536  1.00  0.00     0.109 A 
HETATM   54  C23 UNL     1       5.773   5.274   2.563  1.00  0.00     0.142 A 
HETATM   55  N5  UNL     1       4.710   3.745   4.484  1.00  0.00    -0.341 N 
HETATM   56  C22 UNL     1       4.534   5.078   4.395  1.00  0.00     0.183 A 
HETATM   57  H5  UNL     1       4.291   3.211   5.245  1.00  0.00     0.167 HD
HETATM   58  N6  UNL     1       5.025   5.928   3.470  1.00  0.00    -0.336 N 
HETATM   59  H6  UNL     1       4.853   6.934   3.459  1.00  0.00     0.168 HD
BRANCH  53  60
HETATM   60  N7  UNL     1       5.626   1.759   3.624  1.00  0.00    -0.287 NA
HETATM   61  H33 UNL     1       5.387   1.365   4.532  1.00  0.00     0.125 HD
HETATM   62  H34 UNL     1       6.486   1.437   3.201  1.00  0.00     0.125 HD
ENDBRANCH  53  60
ENDBRANCH  37  48
ENDBRANCH  33  34
ENDBRANCH  32  33
ENDBRANCH  28  32
ENDBRANCH  27  28
ENDBRANCH  23  27
ENDBRANCH  22  23
ENDBRANCH  21  22
ENDBRANCH  18  21
ENDBRANCH  17  18
BRANCH  17  63
HETATM   63  O17 UNL     1       2.159  11.144  -9.391  1.00  0.00    -0.385 OA
HETATM   64  H38 UNL     1       2.652  11.687 -10.029  1.00  0.00     0.210 HD
ENDBRANCH  17  63
ENDBRANCH  14  17
ENDBRANCH  12  13
ENDBRANCH  11  12
ENDBRANCH   8  11
ENDBRANCH   6   7
ENDBRANCH   5   6
ENDBRANCH   4   5
ENDBRANCH   2   4
TORSDOF 27
ENDMDL
MODEL 10
REMARK VINA RESULT:      -6.5      7.291     11.778
REMARK  27 active torsions:
REMARK  status: ('A' for Active; 'I' for Inactive)
REMARK    1  A    between atoms: C2_2  and  S1_4 
REMARK    2  A    between atoms: S1_4  and  C3_5 
REMARK    3  A    between atoms: C3_5  and  C4_6 
REMARK    4  A    between atoms: C4_6  and  N1_7 
REMARK       I    between atoms: N1_7  and  C5_8 
REMARK    5  A    between atoms: C5_8  and  C6_10 
REMARK    6  A    between atoms: C6_10  and  C7_11 
REMARK    7  A    between atoms: C7_11  and  N2_12 
REMARK       I    between atoms: N2_12  and  C8_13 
REMARK    8  A    between atoms: C8_13  and  C9_15 
REMARK    9  A    between atoms: C9_15  and  C10_16 
REMARK   10  A    between atoms: C9_15  and  O17_54 
REMARK   11  A    between atoms: C10_16  and  C13_19 
REMARK   12  A    between atoms: C13_19  and  O4_20 
REMARK   13  A    between atoms: O4_20  and  P1_21 
REMARK   14  A    between atoms: P1_21  and  O6_23 
REMARK   15  A    between atoms: P1_21  and  O7_24 
REMARK   16  A    between atoms: O7_24  and  P2_25 
REMARK   17  A    between atoms: P2_25  and  O9_27 
REMARK   18  A    between atoms: P2_25  and  O10_28 
REMARK   19  A    between atoms: O10_28  and  C14_29 
REMARK   20  A    between atoms: C14_29  and  C15_30 
REMARK   21  A    between atoms: C16_31  and  O13_49 
REMARK   22  A    between atoms: C17_32  and  O12_48 
REMARK   23  A    between atoms: C18_33  and  N3_35 
REMARK   24  A    between atoms: C21_40  and  N7_47 
REMARK   25  A    between atoms: O13_49  and  P3_50 
REMARK   26  A    between atoms: P3_50  and  O15_52 
REMARK   27  A    between atoms: P3_50  and  O16_53 
ROOT
HETATM    1  C1  UNL     1      14.822   8.320   4.181  1.00  0.00     0.104 C 
HETATM    2  C2  UNL     1      14.417   8.955   2.885  1.00  0.00     0.182 C 
HETATM    3  O1  UNL     1      14.484   8.379   1.802  1.00  0.00    -0.286 OA
ENDROOT
BRANCH   2   4
HETATM    4  S1  UNL     1      13.869  10.619   3.033  1.00  0.00    -0.091 SA
BRANCH   4   5
HETATM    5  C3  UNL     1      12.768  10.727   1.586  1.00  0.00     0.102 C 
BRANCH   5   6
HETATM    6  C4  UNL     1      11.374  10.173   1.888  1.00  0.00     0.133 C 
BRANCH   6   7
HETATM    7  N1  UNL     1      11.293   8.737   1.715  1.00  0.00    -0.360 N 
HETATM    8  C5  UNL     1      10.880   7.908   2.731  1.00  0.00     0.219 C 
HETATM    9  O2  UNL     1      10.635   8.318   3.860  1.00  0.00    -0.274 OA
HETATM   10  H8  UNL     1      11.541   8.341   0.818  1.00  0.00     0.162 HD
BRANCH   8  11
HETATM   11  C6  UNL     1      10.813   6.451   2.326  1.00  0.00     0.122 C 
BRANCH  11  12
HETATM   12  C7  UNL     1       9.503   6.116   1.614  1.00  0.00     0.132 C 
BRANCH  12  13
HETATM   13  N2  UNL     1       8.333   6.564   2.339  1.00  0.00    -0.358 N 
HETATM   14  C8  UNL     1       7.081   6.073   2.013  1.00  0.00     0.247 C 
HETATM   15  O3  UNL     1       6.898   5.349   1.043  1.00  0.00    -0.271 OA
HETATM   16  H13 UNL     1       8.492   6.825   3.310  1.00  0.00     0.162 HD
BRANCH  14  17
HETATM   17  C9  UNL     1       5.956   6.492   2.971  1.00  0.00     0.219 C 
BRANCH  17  18
HETATM   18  C10 UNL     1       5.318   7.869   2.650  1.00  0.00     0.009 C 
HETATM   19  C11 UNL     1       4.660   7.893   1.262  1.00  0.00     0.020 C 
HETATM   20  C12 UNL     1       4.247   8.252   3.691  1.00  0.00     0.020 C 
BRANCH  18  21
HETATM   21  C13 UNL     1       6.483   8.900   2.693  1.00  0.00     0.192 C 
BRANCH  21  22
HETATM   22  O4  UNL     1       6.367   9.885   1.686  1.00  0.00    -0.296 OA
BRANCH  22  23
HETATM   23  P1  UNL     1       7.409  10.019   0.475  1.00  0.00     0.401 P 
HETATM   24  O5  UNL     1       8.453   8.948   0.444  1.00  0.00    -0.631 OA
BRANCH  23  25
HETATM   25  O6  UNL     1       8.010  11.511   0.542  1.00  0.00    -0.307 OA
HETATM   26  H23 UNL     1       7.918  11.976  -0.300  1.00  0.00     0.222 HD
ENDBRANCH  23  25
BRANCH  23  27
HETATM   27  O7  UNL     1       6.508  10.108  -0.833  1.00  0.00    -0.195 OA
BRANCH  27  28
HETATM   28  P2  UNL     1       7.221  10.239  -2.252  1.00  0.00     0.401 P 
HETATM   29  O8  UNL     1       8.201  11.355  -2.417  1.00  0.00    -0.631 OA
BRANCH  28  30
HETATM   30  O9  UNL     1       7.843   8.787  -2.485  1.00  0.00    -0.307 OA
HETATM   31  H24 UNL     1       8.765   8.683  -2.145  1.00  0.00     0.222 HD
ENDBRANCH  28  30
BRANCH  28  32
HETATM   32  O10 UNL     1       6.013  10.212  -3.296  1.00  0.00    -0.294 OA
BRANCH  32  33
HETATM   33  C14 UNL     1       5.744   9.045  -4.029  1.00  0.00     0.215 C 
BRANCH  33  34
HETATM   34  C15 UNL     1       5.319   9.505  -5.422  1.00  0.00     0.180 C 
HETATM   35  C16 UNL     1       4.261  10.594  -5.305  1.00  0.00     0.197 C 
HETATM   36  C17 UNL     1       3.030  10.008  -5.970  1.00  0.00     0.199 C 
HETATM   37  C18 UNL     1       3.640   8.989  -6.936  1.00  0.00     0.262 C 
HETATM   38  O11 UNL     1       4.769   8.448  -6.216  1.00  0.00    -0.353 OA
BRANCH  35  39
HETATM   39  O13 UNL     1       4.740  11.750  -5.985  1.00  0.00    -0.286 OA
BRANCH  39  40
HETATM   40  P3  UNL     1       5.055  13.014  -5.058  1.00  0.00     0.391 P 
HETATM   41  O14 UNL     1       4.660  14.320  -5.666  1.00  0.00    -0.632 OA
BRANCH  40  42
HETATM   42  O15 UNL     1       6.608  12.780  -4.751  1.00  0.00    -0.307 OA
HETATM   43  H36 UNL     1       6.989  12.113  -5.370  1.00  0.00     0.222 HD
ENDBRANCH  40  42
BRANCH  40  44
HETATM   44  O16 UNL     1       4.350  12.591  -3.697  1.00  0.00    -0.307 OA
HETATM   45  H37 UNL     1       4.147  11.643  -3.658  1.00  0.00     0.222 HD
ENDBRANCH  40  44
ENDBRANCH  39  40
ENDBRANCH  35  39
BRANCH  36  46
HETATM   46  O12 UNL     1       2.228  11.049  -6.534  1.00  0.00    -0.388 OA
HETATM   47  H35 UNL     1       1.718  10.638  -7.272  1.00  0.00     0.210 HD
ENDBRANCH  36  46
BRANCH  37  48
HETATM   48  N3  UNL     1       2.728   7.909  -7.253  1.00  0.00    -0.297 N 
HETATM   49  C19 UNL     1       1.792   7.339  -6.422  1.00  0.00     0.188 A 
HETATM   50  N4  UNL     1       1.034   6.466  -7.048  1.00  0.00    -0.346 N 
HETATM   51  C20 UNL     1       1.497   6.474  -8.352  1.00  0.00     0.116 A 
HETATM   52  H4  UNL     1       0.273   5.908  -6.660  1.00  0.00     0.167 HD
HETATM   53  C21 UNL     1       1.083   5.799  -9.514  1.00  0.00     0.109 A 
HETATM   54  C23 UNL     1       2.572   7.334  -8.484  1.00  0.00     0.142 A 
HETATM   55  N5  UNL     1       1.763   6.016 -10.666  1.00  0.00    -0.341 N 
HETATM   56  C22 UNL     1       2.808   6.866 -10.640  1.00  0.00     0.183 A 
HETATM   57  H5  UNL     1       1.490   5.547 -11.530  1.00  0.00     0.167 HD
HETATM   58  N6  UNL     1       3.289   7.572  -9.596  1.00  0.00    -0.336 N 
HETATM   59  H6  UNL     1       4.089   8.202  -9.644  1.00  0.00     0.168 HD
BRANCH  53  60
HETATM   60  N7  UNL     1       0.019   4.913  -9.542  1.00  0.00    -0.287 NA
HETATM   61  H33 UNL     1      -0.795   5.251 -10.052  1.00  0.00     0.125 HD
HETATM   62  H34 UNL     1      -0.155   4.475  -8.647  1.00  0.00     0.125 HD
ENDBRANCH  53  60
ENDBRANCH  37  48
ENDBRANCH  33  34
ENDBRANCH  32  33
ENDBRANCH  28  32
ENDBRANCH  27  28
ENDBRANCH  23  27
ENDBRANCH  22  23
ENDBRANCH  21  22
ENDBRANCH  18  21
ENDBRANCH  17  18
BRANCH  17  63
HETATM   63  O17 UNL     1       4.921   5.503   2.978  1.00  0.00    -0.385 OA
HETATM   64  H38 UNL     1       4.076   5.952   3.145  1.00  0.00     0.210 HD
ENDBRANCH  17  63
ENDBRANCH  14  17
ENDBRANCH  12  13
ENDBRANCH  11  12
ENDBRANCH   8  11
ENDBRANCH   6   7
ENDBRANCH   5   6
ENDBRANCH   4   5
ENDBRANCH   2   4
TORSDOF 27
ENDMDL
MODEL 11
REMARK VINA RESULT:      -6.5      7.481     10.543
REMARK  27 active torsions:
REMARK  status: ('A' for Active; 'I' for Inactive)
REMARK    1  A    between atoms: C2_2  and  S1_4 
REMARK    2  A    between atoms: S1_4  and  C3_5 
REMARK    3  A    between atoms: C3_5  and  C4_6 
REMARK    4  A    between atoms: C4_6  and  N1_7 
REMARK       I    between atoms: N1_7  and  C5_8 
REMARK    5  A    between atoms: C5_8  and  C6_10 
REMARK    6  A    between atoms: C6_10  and  C7_11 
REMARK    7  A    between atoms: C7_11  and  N2_12 
REMARK       I    between atoms: N2_12  and  C8_13 
REMARK    8  A    between atoms: C8_13  and  C9_15 
REMARK    9  A    between atoms: C9_15  and  C10_16 
REMARK   10  A    between atoms: C9_15  and  O17_54 
REMARK   11  A    between atoms: C10_16  and  C13_19 
REMARK   12  A    between atoms: C13_19  and  O4_20 
REMARK   13  A    between atoms: O4_20  and  P1_21 
REMARK   14  A    between atoms: P1_21  and  O6_23 
REMARK   15  A    between atoms: P1_21  and  O7_24 
REMARK   16  A    between atoms: O7_24  and  P2_25 
REMARK   17  A    between atoms: P2_25  and  O9_27 
REMARK   18  A    between atoms: P2_25  and  O10_28 
REMARK   19  A    between atoms: O10_28  and  C14_29 
REMARK   20  A    between atoms: C14_29  and  C15_30 
REMARK   21  A    between atoms: C16_31  and  O13_49 
REMARK   22  A    between atoms: C17_32  and  O12_48 
REMARK   23  A    between atoms: C18_33  and  N3_35 
REMARK   24  A    between atoms: C21_40  and  N7_47 
REMARK   25  A    between atoms: O13_49  and  P3_50 
REMARK   26  A    between atoms: P3_50  and  O15_52 
REMARK   27  A    between atoms: P3_50  and  O16_53 
ROOT
HETATM    1  C1  UNL     1       5.727   3.662  -9.974  1.00  0.00     0.104 C 
HETATM    2  C2  UNL     1       4.585   2.708 -10.151  1.00  0.00     0.182 C 
HETATM    3  O1  UNL     1       4.628   1.532  -9.798  1.00  0.00    -0.286 OA
ENDROOT
BRANCH   2   4
HETATM    4  S1  UNL     1       3.179   3.399 -10.950  1.00  0.00    -0.091 SA
BRANCH   4   5
HETATM    5  C3  UNL     1       3.210   5.084 -10.257  1.00  0.00     0.102 C 
BRANCH   5   6
HETATM    6  C4  UNL     1       1.802   5.664 -10.106  1.00  0.00     0.133 C 
BRANCH   6   7
HETATM    7  N1  UNL     1       1.613   6.352  -8.845  1.00  0.00    -0.360 N 
HETATM    8  C5  UNL     1       0.484   7.094  -8.588  1.00  0.00     0.219 C 
HETATM    9  O2  UNL     1      -0.386   7.286  -9.430  1.00  0.00    -0.274 OA
HETATM   10  H8  UNL     1       2.330   6.274  -8.136  1.00  0.00     0.162 HD
BRANCH   8  11
HETATM   11  C6  UNL     1       0.458   7.683  -7.194  1.00  0.00     0.122 C 
BRANCH  11  12
HETATM   12  C7  UNL     1       1.642   7.208  -6.352  1.00  0.00     0.132 C 
BRANCH  12  13
HETATM   13  N2  UNL     1       2.168   8.238  -5.481  1.00  0.00    -0.358 N 
HETATM   14  C8  UNL     1       3.023   9.203  -5.979  1.00  0.00     0.247 C 
HETATM   15  O3  UNL     1       3.458   9.160  -7.123  1.00  0.00    -0.271 OA
HETATM   16  H13 UNL     1       1.565   8.506  -4.706  1.00  0.00     0.162 HD
BRANCH  14  17
HETATM   17  C9  UNL     1       3.364  10.333  -4.996  1.00  0.00     0.219 C 
BRANCH  17  18
HETATM   18  C10 UNL     1       4.557  10.027  -4.053  1.00  0.00     0.009 C 
HETATM   19  C11 UNL     1       4.094   9.524  -2.678  1.00  0.00     0.020 C 
HETATM   20  C12 UNL     1       5.495   8.962  -4.657  1.00  0.00     0.020 C 
BRANCH  18  21
HETATM   21  C13 UNL     1       5.325  11.369  -3.888  1.00  0.00     0.192 C 
BRANCH  21  22
HETATM   22  O4  UNL     1       6.661  11.285  -4.343  1.00  0.00    -0.296 OA
BRANCH  22  23
HETATM   23  P1  UNL     1       7.922  11.608  -3.407  1.00  0.00     0.401 P 
HETATM   24  O5  UNL     1       8.118  13.064  -3.125  1.00  0.00    -0.631 OA
BRANCH  23  25
HETATM   25  O6  UNL     1       9.198  10.900  -4.086  1.00  0.00    -0.307 OA
HETATM   26  H23 UNL     1       9.886  10.696  -3.438  1.00  0.00     0.222 HD
ENDBRANCH  23  25
BRANCH  23  27
HETATM   27  O7  UNL     1       7.717  10.702  -2.115  1.00  0.00    -0.195 OA
BRANCH  27  28
HETATM   28  P2  UNL     1       8.547   9.348  -1.984  1.00  0.00     0.401 P 
HETATM   29  O8  UNL     1       8.567   8.449  -3.177  1.00  0.00    -0.631 OA
BRANCH  28  30
HETATM   30  O9  UNL     1       9.991   9.847  -1.520  1.00  0.00    -0.307 OA
HETATM   31  H24 UNL     1       9.979  10.431  -0.723  1.00  0.00     0.222 HD
ENDBRANCH  28  30
BRANCH  28  32
HETATM   32  O10 UNL     1       8.011   8.697  -0.628  1.00  0.00    -0.294 OA
BRANCH  32  33
HETATM   33  C14 UNL     1       6.646   8.406  -0.480  1.00  0.00     0.215 C 
BRANCH  33  34
HETATM   34  C15 UNL     1       6.360   8.454   1.020  1.00  0.00     0.180 C 
HETATM   35  C16 UNL     1       7.671   8.505   1.794  1.00  0.00     0.197 C 
HETATM   36  C17 UNL     1       7.676   7.235   2.623  1.00  0.00     0.199 C 
HETATM   37  C18 UNL     1       6.182   6.932   2.760  1.00  0.00     0.262 C 
HETATM   38  O11 UNL     1       5.622   7.318   1.485  1.00  0.00    -0.353 OA
BRANCH  35  39
HETATM   39  O13 UNL     1       7.660   9.675   2.604  1.00  0.00    -0.286 OA
BRANCH  39  40
HETATM   40  P3  UNL     1       8.569  10.882   2.083  1.00  0.00     0.391 P 
HETATM   41  O14 UNL     1       7.825  11.888   1.265  1.00  0.00    -0.632 OA
BRANCH  40  42
HETATM   42  O15 UNL     1       9.754  10.078   1.370  1.00  0.00    -0.307 OA
HETATM   43  H36 UNL     1      10.496  10.685   1.135  1.00  0.00     0.222 HD
ENDBRANCH  40  42
BRANCH  40  44
HETATM   44  O16 UNL     1       9.236  11.382   3.437  1.00  0.00    -0.307 OA
HETATM   45  H37 UNL     1       8.899  12.245   3.726  1.00  0.00     0.222 HD
ENDBRANCH  40  44
ENDBRANCH  39  40
ENDBRANCH  35  39
BRANCH  36  46
HETATM   46  O12 UNL     1       8.418   7.433   3.829  1.00  0.00    -0.388 OA
HETATM   47  H35 UNL     1       9.198   7.988   3.587  1.00  0.00     0.210 HD
ENDBRANCH  36  46
BRANCH  37  48
HETATM   48  N3  UNL     1       5.917   5.523   2.977  1.00  0.00    -0.297 N 
HETATM   49  C19 UNL     1       5.774   4.547   2.019  1.00  0.00     0.188 A 
HETATM   50  N4  UNL     1       5.668   3.346   2.544  1.00  0.00    -0.346 N 
HETATM   51  C20 UNL     1       5.751   3.553   3.909  1.00  0.00     0.116 A 
HETATM   52  H4  UNL     1       5.550   2.459   2.053  1.00  0.00     0.167 HD
HETATM   53  C21 UNL     1       5.746   2.676   5.008  1.00  0.00     0.109 A 
HETATM   54  C23 UNL     1       5.866   4.901   4.193  1.00  0.00     0.142 A 
HETATM   55  N5  UNL     1       5.835   3.198   6.256  1.00  0.00    -0.341 N 
HETATM   56  C22 UNL     1       5.918   4.538   6.382  1.00  0.00     0.183 A 
HETATM   57  H5  UNL     1       5.838   2.593   7.077  1.00  0.00     0.167 HD
HETATM   58  N6  UNL     1       5.940   5.471   5.409  1.00  0.00    -0.336 N 
HETATM   59  H6  UNL     1       6.005   6.476   5.573  1.00  0.00     0.168 HD
BRANCH  53  60
HETATM   60  N7  UNL     1       5.646   1.299   4.884  1.00  0.00    -0.287 NA
HETATM   61  H33 UNL     1       6.276   0.894   4.196  1.00  0.00     0.125 HD
HETATM   62  H34 UNL     1       4.689   0.973   4.873  1.00  0.00     0.125 HD
ENDBRANCH  53  60
ENDBRANCH  37  48
ENDBRANCH  33  34
ENDBRANCH  32  33
ENDBRANCH  28  32
ENDBRANCH  27  28
ENDBRANCH  23  27
ENDBRANCH  22  23
ENDBRANCH  21  22
ENDBRANCH  18  21
ENDBRANCH  17  18
BRANCH  17  63
HETATM   63  O17 UNL     1       3.647  11.540  -5.711  1.00  0.00    -0.385 OA
HETATM   64  H38 UNL     1       4.392  11.367  -6.311  1.00  0.00     0.210 HD
ENDBRANCH  17  63
ENDBRANCH  14  17
ENDBRANCH  12  13
ENDBRANCH  11  12
ENDBRANCH   8  11
ENDBRANCH   6   7
ENDBRANCH   5   6
ENDBRANCH   4   5
ENDBRANCH   2   4
TORSDOF 27
ENDMDL
MODEL 12
REMARK VINA RESULT:      -6.3      7.881     11.223
REMARK  27 active torsions:
REMARK  status: ('A' for Active; 'I' for Inactive)
REMARK    1  A    between atoms: C2_2  and  S1_4 
REMARK    2  A    between atoms: S1_4  and  C3_5 
REMARK    3  A    between atoms: C3_5  and  C4_6 
REMARK    4  A    between atoms: C4_6  and  N1_7 
REMARK       I    between atoms: N1_7  and  C5_8 
REMARK    5  A    between atoms: C5_8  and  C6_10 
REMARK    6  A    between atoms: C6_10  and  C7_11 
REMARK    7  A    between atoms: C7_11  and  N2_12 
REMARK       I    between atoms: N2_12  and  C8_13 
REMARK    8  A    between atoms: C8_13  and  C9_15 
REMARK    9  A    between atoms: C9_15  and  C10_16 
REMARK   10  A    between atoms: C9_15  and  O17_54 
REMARK   11  A    between atoms: C10_16  and  C13_19 
REMARK   12  A    between atoms: C13_19  and  O4_20 
REMARK   13  A    between atoms: O4_20  and  P1_21 
REMARK   14  A    between atoms: P1_21  and  O6_23 
REMARK   15  A    between atoms: P1_21  and  O7_24 
REMARK   16  A    between atoms: O7_24  and  P2_25 
REMARK   17  A    between atoms: P2_25  and  O9_27 
REMARK   18  A    between atoms: P2_25  and  O10_28 
REMARK   19  A    between atoms: O10_28  and  C14_29 
REMARK   20  A    between atoms: C14_29  and  C15_30 
REMARK   21  A    between atoms: C16_31  and  O13_49 
REMARK   22  A    between atoms: C17_32  and  O12_48 
REMARK   23  A    between atoms: C18_33  and  N3_35 
REMARK   24  A    between atoms: C21_40  and  N7_47 
REMARK   25  A    between atoms: O13_49  and  P3_50 
REMARK   26  A    between atoms: P3_50  and  O15_52 
REMARK   27  A    between atoms: P3_50  and  O16_53 
ROOT
HETATM    1  C1  UNL     1      13.562   9.735  -1.166  1.00  0.00     0.104 C 
HETATM    2  C2  UNL     1      12.814  10.649  -2.088  1.00  0.00     0.182 C 
HETATM    3  O1  UNL     1      12.355  10.289  -3.169  1.00  0.00    -0.286 OA
ENDROOT
BRANCH   2   4
HETATM    4  S1  UNL     1      12.679  12.306  -1.513  1.00  0.00    -0.091 SA
BRANCH   4   5
HETATM    5  C3  UNL     1      11.024  12.250  -0.753  1.00  0.00     0.102 C 
BRANCH   5   6
HETATM    6  C4  UNL     1       9.918  12.521  -1.774  1.00  0.00     0.133 C 
BRANCH   6   7
HETATM    7  N1  UNL     1      10.436  12.927  -3.065  1.00  0.00    -0.360 N 
HETATM    8  C5  UNL     1       9.615  13.086  -4.157  1.00  0.00     0.219 C 
HETATM    9  O2  UNL     1       8.419  12.818  -4.128  1.00  0.00    -0.274 OA
HETATM   10  H8  UNL     1      11.427  13.105  -3.157  1.00  0.00     0.162 HD
BRANCH   8  11
HETATM   11  C6  UNL     1      10.346  13.569  -5.391  1.00  0.00     0.122 C 
BRANCH  11  12
HETATM   12  C7  UNL     1       9.740  12.999  -6.673  1.00  0.00     0.132 C 
BRANCH  12  13
HETATM   13  N2  UNL     1       8.653  13.802  -7.193  1.00  0.00    -0.358 N 
HETATM   14  C8  UNL     1       8.506  13.977  -8.556  1.00  0.00     0.247 C 
HETATM   15  O3  UNL     1       9.337  13.570  -9.359  1.00  0.00    -0.271 OA
HETATM   16  H13 UNL     1       7.806  13.811  -6.628  1.00  0.00     0.162 HD
BRANCH  14  17
HETATM   17  C9  UNL     1       7.217  14.698  -8.978  1.00  0.00     0.219 C 
BRANCH  17  18
HETATM   18  C10 UNL     1       6.181  13.795  -9.698  1.00  0.00     0.009 C 
HETATM   19  C11 UNL     1       5.831  14.319 -11.098  1.00  0.00     0.020 C 
HETATM   20  C12 UNL     1       6.698  12.350  -9.847  1.00  0.00     0.020 C 
BRANCH  18  21
HETATM   21  C13 UNL     1       4.909  13.807  -8.802  1.00  0.00     0.192 C 
BRANCH  21  22
HETATM   22  O4  UNL     1       4.817  12.660  -7.982  1.00  0.00    -0.296 OA
BRANCH  22  23
HETATM   23  P1  UNL     1       5.002  12.710  -6.390  1.00  0.00     0.401 P 
HETATM   24  O5  UNL     1       4.706  14.045  -5.782  1.00  0.00    -0.631 OA
BRANCH  23  25
HETATM   25  O6  UNL     1       6.484  12.168  -6.076  1.00  0.00    -0.307 OA
HETATM   26  H23 UNL     1       6.656  12.112  -5.127  1.00  0.00     0.222 HD
ENDBRANCH  23  25
BRANCH  23  27
HETATM   27  O7  UNL     1       4.111  11.515  -5.835  1.00  0.00    -0.195 OA
BRANCH  27  28
HETATM   28  P2  UNL     1       4.331  11.023  -4.335  1.00  0.00     0.401 P 
HETATM   29  O8  UNL     1       4.706  12.062  -3.330  1.00  0.00    -0.631 OA
BRANCH  28  30
HETATM   30  O9  UNL     1       2.973  10.252  -4.000  1.00  0.00    -0.307 OA
HETATM   31  H24 UNL     1       2.259  10.383  -4.670  1.00  0.00     0.222 HD
ENDBRANCH  28  30
BRANCH  28  32
HETATM   32  O10 UNL     1       5.340   9.793  -4.477  1.00  0.00    -0.294 OA
BRANCH  32  33
HETATM   33  C14 UNL     1       5.729   9.069  -3.339  1.00  0.00     0.215 C 
BRANCH  33  34
HETATM   34  C15 UNL     1       6.938   9.802  -2.760  1.00  0.00     0.180 C 
HETATM   35  C16 UNL     1       8.153   8.885  -2.778  1.00  0.00     0.197 C 
HETATM   36  C17 UNL     1       8.532   8.720  -1.318  1.00  0.00     0.199 C 
HETATM   37  C18 UNL     1       7.968   9.998  -0.692  1.00  0.00     0.262 C 
HETATM   38  O11 UNL     1       6.736  10.233  -1.409  1.00  0.00    -0.353 OA
BRANCH  35  39
HETATM   39  O13 UNL     1       9.179   9.526  -3.529  1.00  0.00    -0.286 OA
BRANCH  39  40
HETATM   40  P3  UNL     1       9.260   9.118  -5.072  1.00  0.00     0.391 P 
HETATM   41  O14 UNL     1       9.074   7.656  -5.320  1.00  0.00    -0.632 OA
BRANCH  40  42
HETATM   42  O15 UNL     1      10.665   9.766  -5.480  1.00  0.00    -0.307 OA
HETATM   43  H36 UNL     1      11.357   9.068  -5.572  1.00  0.00     0.222 HD
ENDBRANCH  40  42
BRANCH  40  44
HETATM   44  O16 UNL     1       8.202  10.115  -5.717  1.00  0.00    -0.307 OA
HETATM   45  H37 UNL     1       7.411  10.232  -5.167  1.00  0.00     0.222 HD
ENDBRANCH  40  44
ENDBRANCH  39  40
ENDBRANCH  35  39
BRANCH  36  46
HETATM   46  O12 UNL     1       9.938   8.492  -1.192  1.00  0.00    -0.388 OA
HETATM   47  H35 UNL     1      10.071   7.518  -1.285  1.00  0.00     0.210 HD
ENDBRANCH  36  46
BRANCH  37  48
HETATM   48  N3  UNL     1       7.665   9.841   0.716  1.00  0.00    -0.297 N 
HETATM   49  C19 UNL     1       8.334  10.403   1.778  1.00  0.00     0.188 A 
HETATM   50  N4  UNL     1       7.734  10.170   2.925  1.00  0.00    -0.346 N 
HETATM   51  C20 UNL     1       6.618   9.424   2.590  1.00  0.00     0.116 A 
HETATM   52  H4  UNL     1       8.026  10.472   3.855  1.00  0.00     0.167 HD
HETATM   53  C21 UNL     1       5.558   8.902   3.351  1.00  0.00     0.109 A 
HETATM   54  C23 UNL     1       6.584   9.180   1.229  1.00  0.00     0.142 A 
HETATM   55  N5  UNL     1       4.596   8.187   2.717  1.00  0.00    -0.341 N 
HETATM   56  C22 UNL     1       4.705   8.009   1.386  1.00  0.00     0.183 A 
HETATM   57  H5  UNL     1       3.809   7.795   3.235  1.00  0.00     0.167 HD
HETATM   58  N6  UNL     1       5.665   8.466   0.556  1.00  0.00    -0.336 N 
HETATM   59  H6  UNL     1       5.690   8.294  -0.450  1.00  0.00     0.168 HD
BRANCH  53  60
HETATM   60  N7  UNL     1       5.448   9.070   4.722  1.00  0.00    -0.287 NA
HETATM   61  H33 UNL     1       5.634  10.017   5.044  1.00  0.00     0.125 HD
HETATM   62  H34 UNL     1       5.875   8.318   5.247  1.00  0.00     0.125 HD
ENDBRANCH  53  60
ENDBRANCH  37  48
ENDBRANCH  33  34
ENDBRANCH  32  33
ENDBRANCH  28  32
ENDBRANCH  27  28
ENDBRANCH  23  27
ENDBRANCH  22  23
ENDBRANCH  21  22
ENDBRANCH  18  21
ENDBRANCH  17  18
BRANCH  17  63
HETATM   63  O17 UNL     1       6.588  15.291  -7.837  1.00  0.00    -0.385 OA
HETATM   64  H38 UNL     1       6.042  14.612  -7.406  1.00  0.00     0.210 HD
ENDBRANCH  17  63
ENDBRANCH  14  17
ENDBRANCH  12  13
ENDBRANCH  11  12
ENDBRANCH   8  11
ENDBRANCH   6   7
ENDBRANCH   5   6
ENDBRANCH   4   5
ENDBRANCH   2   4
TORSDOF 27
ENDMDL
MODEL 13
REMARK VINA RESULT:      -6.3      7.399      9.904
REMARK  27 active torsions:
REMARK  status: ('A' for Active; 'I' for Inactive)
REMARK    1  A    between atoms: C2_2  and  S1_4 
REMARK    2  A    between atoms: S1_4  and  C3_5 
REMARK    3  A    between atoms: C3_5  and  C4_6 
REMARK    4  A    between atoms: C4_6  and  N1_7 
REMARK       I    between atoms: N1_7  and  C5_8 
REMARK    5  A    between atoms: C5_8  and  C6_10 
REMARK    6  A    between atoms: C6_10  and  C7_11 
REMARK    7  A    between atoms: C7_11  and  N2_12 
REMARK       I    between atoms: N2_12  and  C8_13 
REMARK    8  A    between atoms: C8_13  and  C9_15 
REMARK    9  A    between atoms: C9_15  and  C10_16 
REMARK   10  A    between atoms: C9_15  and  O17_54 
REMARK   11  A    between atoms: C10_16  and  C13_19 
REMARK   12  A    between atoms: C13_19  and  O4_20 
REMARK   13  A    between atoms: O4_20  and  P1_21 
REMARK   14  A    between atoms: P1_21  and  O6_23 
REMARK   15  A    between atoms: P1_21  and  O7_24 
REMARK   16  A    between atoms: O7_24  and  P2_25 
REMARK   17  A    between atoms: P2_25  and  O9_27 
REMARK   18  A    between atoms: P2_25  and  O10_28 
REMARK   19  A    between atoms: O10_28  and  C14_29 
REMARK   20  A    between atoms: C14_29  and  C15_30 
REMARK   21  A    between atoms: C16_31  and  O13_49 
REMARK   22  A    between atoms: C17_32  and  O12_48 
REMARK   23  A    between atoms: C18_33  and  N3_35 
REMARK   24  A    between atoms: C21_40  and  N7_47 
REMARK   25  A    between atoms: O13_49  and  P3_50 
REMARK   26  A    between atoms: P3_50  and  O15_52 
REMARK   27  A    between atoms: P3_50  and  O16_53 
ROOT
HETATM    1  C1  UNL     1      11.804  10.602  -7.833  1.00  0.00     0.104 C 
HETATM    2  C2  UNL     1      10.890  11.321  -6.888  1.00  0.00     0.182 C 
HETATM    3  O1  UNL     1      11.224  11.662  -5.756  1.00  0.00    -0.286 OA
ENDROOT
BRANCH   2   4
HETATM    4  S1  UNL     1       9.273  11.605  -7.517  1.00  0.00    -0.091 SA
BRANCH   4   5
HETATM    5  C3  UNL     1       8.328  11.681  -5.961  1.00  0.00     0.102 C 
BRANCH   5   6
HETATM    6  C4  UNL     1       7.307  12.820  -5.969  1.00  0.00     0.133 C 
BRANCH   6   7
HETATM    7  N1  UNL     1       6.187  12.561  -6.850  1.00  0.00    -0.360 N 
HETATM    8  C5  UNL     1       4.977  13.195  -6.688  1.00  0.00     0.219 C 
HETATM    9  O2  UNL     1       4.747  13.948  -5.750  1.00  0.00    -0.274 OA
HETATM   10  H8  UNL     1       6.306  11.902  -7.608  1.00  0.00     0.162 HD
BRANCH   8  11
HETATM   11  C6  UNL     1       3.960  12.825  -7.747  1.00  0.00     0.122 C 
BRANCH  11  12
HETATM   12  C7  UNL     1       4.097  11.367  -8.185  1.00  0.00     0.132 C 
BRANCH  12  13
HETATM   13  N2  UNL     1       3.054  10.514  -7.655  1.00  0.00    -0.358 N 
HETATM   14  C8  UNL     1       2.144   9.915  -8.506  1.00  0.00     0.247 C 
HETATM   15  O3  UNL     1       2.108  10.168  -9.703  1.00  0.00    -0.271 OA
HETATM   16  H13 UNL     1       3.288  10.017  -6.798  1.00  0.00     0.162 HD
BRANCH  14  17
HETATM   17  C9  UNL     1       1.206   8.901  -7.835  1.00  0.00     0.219 C 
BRANCH  17  18
HETATM   18  C10 UNL     1       1.848   7.515  -7.560  1.00  0.00     0.009 C 
HETATM   19  C11 UNL     1       0.933   6.359  -7.989  1.00  0.00     0.020 C 
HETATM   20  C12 UNL     1       3.192   7.358  -8.300  1.00  0.00     0.020 C 
BRANCH  18  21
HETATM   21  C13 UNL     1       2.084   7.452  -6.024  1.00  0.00     0.192 C 
BRANCH  21  22
HETATM   22  O4  UNL     1       3.248   8.151  -5.629  1.00  0.00    -0.296 OA
BRANCH  22  23
HETATM   23  P1  UNL     1       3.305   9.078  -4.322  1.00  0.00     0.401 P 
HETATM   24  O5  UNL     1       2.426   8.615  -3.204  1.00  0.00    -0.631 OA
BRANCH  23  25
HETATM   25  O6  UNL     1       3.001  10.583  -4.807  1.00  0.00    -0.307 OA
HETATM   26  H23 UNL     1       2.275  10.619  -5.442  1.00  0.00     0.222 HD
ENDBRANCH  23  25
BRANCH  23  27
HETATM   27  O7  UNL     1       4.850   9.177  -3.956  1.00  0.00    -0.195 OA
BRANCH  27  28
HETATM   28  P2  UNL     1       5.295  10.100  -2.736  1.00  0.00     0.401 P 
HETATM   29  O8  UNL     1       6.412  11.060  -2.985  1.00  0.00    -0.631 OA
BRANCH  28  30
HETATM   30  O9  UNL     1       3.929  10.793  -2.284  1.00  0.00    -0.307 OA
HETATM   31  H24 UNL     1       3.481  11.306  -2.999  1.00  0.00     0.222 HD
ENDBRANCH  28  30
BRANCH  28  32
HETATM   32  O10 UNL     1       5.514   9.071  -1.534  1.00  0.00    -0.294 OA
BRANCH  32  33
HETATM   33  C14 UNL     1       6.794   8.891  -0.988  1.00  0.00     0.215 C 
BRANCH  33  34
HETATM   34  C15 UNL     1       6.601   8.767   0.522  1.00  0.00     0.180 C 
HETATM   35  C16 UNL     1       7.957   8.709   1.212  1.00  0.00     0.197 C 
HETATM   36  C17 UNL     1       7.988   7.351   1.887  1.00  0.00     0.199 C 
HETATM   37  C18 UNL     1       6.499   7.053   2.081  1.00  0.00     0.262 C 
HETATM   38  O11 UNL     1       5.870   7.594   0.898  1.00  0.00    -0.353 OA
BRANCH  35  39
HETATM   39  O13 UNL     1       8.020   9.777   2.152  1.00  0.00    -0.286 OA
BRANCH  39  40
HETATM   40  P3  UNL     1       8.818  11.075   1.669  1.00  0.00     0.391 P 
HETATM   41  O14 UNL     1       9.696  10.835   0.484  1.00  0.00    -0.632 OA
BRANCH  40  42
HETATM   42  O15 UNL     1       9.522  11.520   3.035  1.00  0.00    -0.307 OA
HETATM   43  H36 UNL     1      10.495  11.623   2.908  1.00  0.00     0.222 HD
ENDBRANCH  40  42
BRANCH  40  44
HETATM   44  O16 UNL     1       7.638  12.130   1.510  1.00  0.00    -0.307 OA
HETATM   45  H37 UNL     1       7.186  12.318   2.347  1.00  0.00     0.222 HD
ENDBRANCH  40  44
ENDBRANCH  39  40
ENDBRANCH  35  39
BRANCH  36  46
HETATM   46  O12 UNL     1       8.806   7.398   3.059  1.00  0.00    -0.388 OA
HETATM   47  H35 UNL     1       9.417   8.164   2.941  1.00  0.00     0.210 HD
ENDBRANCH  36  46
BRANCH  37  48
HETATM   48  N3  UNL     1       6.220   5.633   2.149  1.00  0.00    -0.297 N 
HETATM   49  C19 UNL     1       6.503   4.683   1.196  1.00  0.00     0.188 A 
HETATM   50  N4  UNL     1       6.240   3.464   1.613  1.00  0.00    -0.346 N 
HETATM   51  C20 UNL     1       5.767   3.631   2.902  1.00  0.00     0.116 A 
HETATM   52  H4  UNL     1       6.358   2.590   1.100  1.00  0.00     0.167 HD
HETATM   53  C21 UNL     1       5.359   2.721   3.893  1.00  0.00     0.109 A 
HETATM   54  C23 UNL     1       5.713   4.972   3.233  1.00  0.00     0.142 A 
HETATM   55  N5  UNL     1       4.927   3.206   5.082  1.00  0.00    -0.341 N 
HETATM   56  C22 UNL     1       4.906   4.543   5.256  1.00  0.00     0.183 A 
HETATM   57  H5  UNL     1       4.626   2.577   5.826  1.00  0.00     0.167 HD
HETATM   58  N6  UNL     1       5.279   5.506   4.389  1.00  0.00    -0.336 N 
HETATM   59  H6  UNL     1       5.238   6.507   4.584  1.00  0.00     0.168 HD
BRANCH  53  60
HETATM   60  N7  UNL     1       5.364   1.346   3.714  1.00  0.00    -0.287 NA
HETATM   61  H33 UNL     1       5.389   1.051   2.740  1.00  0.00     0.125 HD
HETATM   62  H34 UNL     1       4.712   0.867   4.319  1.00  0.00     0.125 HD
ENDBRANCH  53  60
ENDBRANCH  37  48
ENDBRANCH  33  34
ENDBRANCH  32  33
ENDBRANCH  28  32
ENDBRANCH  27  28
ENDBRANCH  23  27
ENDBRANCH  22  23
ENDBRANCH  21  22
ENDBRANCH  18  21
ENDBRANCH  17  18
BRANCH  17  63
HETATM   63  O17 UNL     1       0.714   9.427  -6.598  1.00  0.00    -0.385 OA
HETATM   64  H38 UNL     1      -0.256   9.369  -6.610  1.00  0.00     0.210 HD
ENDBRANCH  17  63
ENDBRANCH  14  17
ENDBRANCH  12  13
ENDBRANCH  11  12
ENDBRANCH   8  11
ENDBRANCH   6   7
ENDBRANCH   5   6
ENDBRANCH   4   5
ENDBRANCH   2   4
TORSDOF 27
ENDMDL
MODEL 14
REMARK VINA RESULT:      -6.3     10.836     14.616
REMARK  27 active torsions:
REMARK  status: ('A' for Active; 'I' for Inactive)
REMARK    1  A    between atoms: C2_2  and  S1_4 
REMARK    2  A    between atoms: S1_4  and  C3_5 
REMARK    3  A    between atoms: C3_5  and  C4_6 
REMARK    4  A    between atoms: C4_6  and  N1_7 
REMARK       I    between atoms: N1_7  and  C5_8 
REMARK    5  A    between atoms: C5_8  and  C6_10 
REMARK    6  A    between atoms: C6_10  and  C7_11 
REMARK    7  A    between atoms: C7_11  and  N2_12 
REMARK       I    between atoms: N2_12  and  C8_13 
REMARK    8  A    between atoms: C8_13  and  C9_15 
REMARK    9  A    between atoms: C9_15  and  C10_16 
REMARK   10  A    between atoms: C9_15  and  O17_54 
REMARK   11  A    between atoms: C10_16  and  C13_19 
REMARK   12  A    between atoms: C13_19  and  O4_20 
REMARK   13  A    between atoms: O4_20  and  P1_21 
REMARK   14  A    between atoms: P1_21  and  O6_23 
REMARK   15  A    between atoms: P1_21  and  O7_24 
REMARK   16  A    between atoms: O7_24  and  P2_25 
REMARK   17  A    between atoms: P2_25  and  O9_27 
REMARK   18  A    between atoms: P2_25  and  O10_28 
REMARK   19  A    between atoms: O10_28  and  C14_29 
REMARK   20  A    between atoms: C14_29  and  C15_30 
REMARK   21  A    between atoms: C16_31  and  O13_49 
REMARK   22  A    between atoms: C17_32  and  O12_48 
REMARK   23  A    between atoms: C18_33  and  N3_35 
REMARK   24  A    between atoms: C21_40  and  N7_47 
REMARK   25  A    between atoms: O13_49  and  P3_50 
REMARK   26  A    between atoms: P3_50  and  O15_52 
REMARK   27  A    between atoms: P3_50  and  O16_53 
ROOT
HETATM    1  C1  UNL     1      11.394  11.275 -10.832  1.00  0.00     0.104 C 
HETATM    2  C2  UNL     1      10.147  11.093 -10.022  1.00  0.00     0.182 C 
HETATM    3  O1  UNL     1      10.108  11.235  -8.802  1.00  0.00    -0.286 OA
ENDROOT
BRANCH   2   4
HETATM    4  S1  UNL     1       8.738  10.615 -10.958  1.00  0.00    -0.091 SA
BRANCH   4   5
HETATM    5  C3  UNL     1       7.407  11.261  -9.894  1.00  0.00     0.102 C 
BRANCH   5   6
HETATM    6  C4  UNL     1       6.242  11.819 -10.713  1.00  0.00     0.133 C 
BRANCH   6   7
HETATM    7  N1  UNL     1       4.967  11.247 -10.334  1.00  0.00    -0.360 N 
HETATM    8  C5  UNL     1       3.904  12.034  -9.956  1.00  0.00     0.219 C 
HETATM    9  O2  UNL     1       3.992  13.251  -9.840  1.00  0.00    -0.274 OA
HETATM   10  H8  UNL     1       4.859  10.242 -10.356  1.00  0.00     0.162 HD
BRANCH   8  11
HETATM   11  C6  UNL     1       2.650  11.243  -9.653  1.00  0.00     0.122 C 
BRANCH  11  12
HETATM   12  C7  UNL     1       2.896   9.736  -9.717  1.00  0.00     0.132 C 
BRANCH  12  13
HETATM   13  N2  UNL     1       2.054   8.984  -8.811  1.00  0.00    -0.358 N 
HETATM   14  C8  UNL     1       1.418   7.834  -9.243  1.00  0.00     0.247 C 
HETATM   15  O3  UNL     1       1.442   7.477 -10.414  1.00  0.00    -0.271 OA
HETATM   16  H13 UNL     1       2.318   9.029  -7.829  1.00  0.00     0.162 HD
BRANCH  14  17
HETATM   17  C9  UNL     1       0.704   7.040  -8.139  1.00  0.00     0.219 C 
BRANCH  17  18
HETATM   18  C10 UNL     1       1.641   6.165  -7.267  1.00  0.00     0.009 C 
HETATM   19  C11 UNL     1       1.037   4.783  -6.975  1.00  0.00     0.020 C 
HETATM   20  C12 UNL     1       3.009   5.951  -7.947  1.00  0.00     0.020 C 
BRANCH  18  21
HETATM   21  C13 UNL     1       1.834   6.943  -5.934  1.00  0.00     0.192 C 
BRANCH  21  22
HETATM   22  O4  UNL     1       2.849   7.922  -6.023  1.00  0.00    -0.296 OA
BRANCH  22  23
HETATM   23  P1  UNL     1       2.706   9.386  -5.386  1.00  0.00     0.401 P 
HETATM   24  O5  UNL     1       1.292   9.850  -5.230  1.00  0.00    -0.631 OA
BRANCH  23  25
HETATM   25  O6  UNL     1       3.619  10.371  -6.273  1.00  0.00    -0.307 OA
HETATM   26  H23 UNL     1       3.092  11.035  -6.735  1.00  0.00     0.222 HD
ENDBRANCH  23  25
BRANCH  23  27
HETATM   27  O7  UNL     1       3.540   9.328  -4.032  1.00  0.00    -0.195 OA
BRANCH  27  28
HETATM   28  P2  UNL     1       4.549  10.514  -3.698  1.00  0.00     0.401 P 
HETATM   29  O8  UNL     1       4.105  11.898  -4.043  1.00  0.00    -0.631 OA
BRANCH  28  30
HETATM   30  O9  UNL     1       4.867  10.299  -2.148  1.00  0.00    -0.307 OA
HETATM   31  H24 UNL     1       4.137  10.582  -1.543  1.00  0.00     0.222 HD
ENDBRANCH  28  30
BRANCH  28  32
HETATM   32  O10 UNL     1       5.929  10.041  -4.348  1.00  0.00    -0.294 OA
BRANCH  32  33
HETATM   33  C14 UNL     1       6.754   9.135  -3.664  1.00  0.00     0.215 C 
BRANCH  33  34
HETATM   34  C15 UNL     1       8.112   9.821  -3.518  1.00  0.00     0.180 C 
HETATM   35  C16 UNL     1       8.045  10.868  -2.415  1.00  0.00     0.197 C 
HETATM   36  C17 UNL     1       8.326  12.184  -3.116  1.00  0.00     0.199 C 
HETATM   37  C18 UNL     1       9.138  11.734  -4.332  1.00  0.00     0.262 C 
HETATM   38  O11 UNL     1       8.538  10.478  -4.717  1.00  0.00    -0.353 OA
BRANCH  35  39
HETATM   39  O13 UNL     1       9.040  10.553  -1.446  1.00  0.00    -0.286 OA
BRANCH  39  40
HETATM   40  P3  UNL     1       8.510  10.369   0.051  1.00  0.00     0.391 P 
HETATM   41  O14 UNL     1       9.295   9.380   0.851  1.00  0.00    -0.632 OA
BRANCH  40  42
HETATM   42  O15 UNL     1       6.966  10.048  -0.215  1.00  0.00    -0.307 OA
HETATM   43  H36 UNL     1       6.727  10.238  -1.153  1.00  0.00     0.222 HD
ENDBRANCH  40  42
BRANCH  40  44
HETATM   44  O16 UNL     1       8.484  11.875   0.563  1.00  0.00    -0.307 OA
HETATM   45  H37 UNL     1       9.154  12.053   1.242  1.00  0.00     0.222 HD
ENDBRANCH  40  44
ENDBRANCH  39  40
ENDBRANCH  35  39
BRANCH  36  46
HETATM   46  O12 UNL     1       8.948  13.103  -2.214  1.00  0.00    -0.388 OA
HETATM   47  H35 UNL     1       9.911  12.889  -2.220  1.00  0.00     0.210 HD
ENDBRANCH  36  46
BRANCH  37  48
HETATM   48  N3  UNL     1       9.036  12.660  -5.443  1.00  0.00    -0.297 N 
HETATM   49  C19 UNL     1      10.070  13.239  -6.141  1.00  0.00     0.188 A 
HETATM   50  N4  UNL     1       9.647  13.933  -7.174  1.00  0.00    -0.346 N 
HETATM   51  C20 UNL     1       8.270  13.793  -7.149  1.00  0.00     0.116 A 
HETATM   52  H4  UNL     1      10.208  14.457  -7.846  1.00  0.00     0.167 HD
HETATM   53  C21 UNL     1       7.250  14.254  -7.998  1.00  0.00     0.109 A 
HETATM   54  C23 UNL     1       7.876  13.039  -6.058  1.00  0.00     0.142 A 
HETATM   55  N5  UNL     1       5.964  13.952  -7.692  1.00  0.00    -0.341 N 
HETATM   56  C22 UNL     1       5.727  13.226  -6.581  1.00  0.00     0.183 A 
HETATM   57  H5  UNL     1       5.197  14.265  -8.287  1.00  0.00     0.167 HD
HETATM   58  N6  UNL     1       6.618  12.726  -5.701  1.00  0.00    -0.336 N 
HETATM   59  H6  UNL     1       6.371  12.181  -4.874  1.00  0.00     0.168 HD
BRANCH  53  60
HETATM   60  N7  UNL     1       7.488  15.012  -9.134  1.00  0.00    -0.287 NA
HETATM   61  H33 UNL     1       7.391  14.500 -10.008  1.00  0.00     0.125 HD
HETATM   62  H34 UNL     1       8.296  15.613  -9.045  1.00  0.00     0.125 HD
ENDBRANCH  53  60
ENDBRANCH  37  48
ENDBRANCH  33  34
ENDBRANCH  32  33
ENDBRANCH  28  32
ENDBRANCH  27  28
ENDBRANCH  23  27
ENDBRANCH  22  23
ENDBRANCH  21  22
ENDBRANCH  18  21
ENDBRANCH  17  18
BRANCH  17  63
HETATM   63  O17 UNL     1      -0.017   7.930  -7.280  1.00  0.00    -0.385 OA
HETATM   64  H38 UNL     1      -0.888   8.095  -7.678  1.00  0.00     0.210 HD
ENDBRANCH  17  63
ENDBRANCH  14  17
ENDBRANCH  12  13
ENDBRANCH  11  12
ENDBRANCH   8  11
ENDBRANCH   6   7
ENDBRANCH   5   6
ENDBRANCH   4   5
ENDBRANCH   2   4
TORSDOF 27
ENDMDL
MODEL 15
REMARK VINA RESULT:      -6.2      8.062     13.265
REMARK  27 active torsions:
REMARK  status: ('A' for Active; 'I' for Inactive)
REMARK    1  A    between atoms: C2_2  and  S1_4 
REMARK    2  A    between atoms: S1_4  and  C3_5 
REMARK    3  A    between atoms: C3_5  and  C4_6 
REMARK    4  A    between atoms: C4_6  and  N1_7 
REMARK       I    between atoms: N1_7  and  C5_8 
REMARK    5  A    between atoms: C5_8  and  C6_10 
REMARK    6  A    between atoms: C6_10  and  C7_11 
REMARK    7  A    between atoms: C7_11  and  N2_12 
REMARK       I    between atoms: N2_12  and  C8_13 
REMARK    8  A    between atoms: C8_13  and  C9_15 
REMARK    9  A    between atoms: C9_15  and  C10_16 
REMARK   10  A    between atoms: C9_15  and  O17_54 
REMARK   11  A    between atoms: C10_16  and  C13_19 
REMARK   12  A    between atoms: C13_19  and  O4_20 
REMARK   13  A    between atoms: O4_20  and  P1_21 
REMARK   14  A    between atoms: P1_21  and  O6_23 
REMARK   15  A    between atoms: P1_21  and  O7_24 
REMARK   16  A    between atoms: O7_24  and  P2_25 
REMARK   17  A    between atoms: P2_25  and  O9_27 
REMARK   18  A    between atoms: P2_25  and  O10_28 
REMARK   19  A    between atoms: O10_28  and  C14_29 
REMARK   20  A    between atoms: C14_29  and  C15_30 
REMARK   21  A    between atoms: C16_31  and  O13_49 
REMARK   22  A    between atoms: C17_32  and  O12_48 
REMARK   23  A    between atoms: C18_33  and  N3_35 
REMARK   24  A    between atoms: C21_40  and  N7_47 
REMARK   25  A    between atoms: O13_49  and  P3_50 
REMARK   26  A    between atoms: P3_50  and  O15_52 
REMARK   27  A    between atoms: P3_50  and  O16_53 
ROOT
HETATM    1  C1  UNL     1       5.977   3.343   2.305  1.00  0.00     0.104 C 
HETATM    2  C2  UNL     1       6.456   2.053   2.899  1.00  0.00     0.182 C 
HETATM    3  O1  UNL     1       6.961   1.151   2.234  1.00  0.00    -0.286 OA
ENDROOT
BRANCH   2   4
HETATM    4  S1  UNL     1       6.201   1.914   4.633  1.00  0.00    -0.091 SA
BRANCH   4   5
HETATM    5  C3  UNL     1       7.520   3.013   5.244  1.00  0.00     0.102 C 
BRANCH   5   6
HETATM    6  C4  UNL     1       7.175   3.615   6.607  1.00  0.00     0.133 C 
BRANCH   6   7
HETATM    7  N1  UNL     1       7.531   5.016   6.706  1.00  0.00    -0.360 N 
HETATM    8  C5  UNL     1       6.764   6.000   6.126  1.00  0.00     0.219 C 
HETATM    9  O2  UNL     1       5.788   5.752   5.429  1.00  0.00    -0.274 OA
HETATM   10  H8  UNL     1       8.362   5.271   7.222  1.00  0.00     0.162 HD
BRANCH   8  11
HETATM   11  C6  UNL     1       7.280   7.397   6.395  1.00  0.00     0.122 C 
BRANCH  11  12
HETATM   12  C7  UNL     1       6.319   8.469   5.884  1.00  0.00     0.132 C 
BRANCH  12  13
HETATM   13  N2  UNL     1       6.551   8.826   4.500  1.00  0.00    -0.358 N 
HETATM   14  C8  UNL     1       5.498   8.868   3.605  1.00  0.00     0.247 C 
HETATM   15  O3  UNL     1       4.370   8.498   3.908  1.00  0.00    -0.271 OA
HETATM   16  H13 UNL     1       7.327   9.464   4.336  1.00  0.00     0.162 HD
BRANCH  14  17
HETATM   17  C9  UNL     1       5.851   9.430   2.220  1.00  0.00     0.219 C 
BRANCH  17  18
HETATM   18  C10 UNL     1       5.917   8.367   1.092  1.00  0.00     0.009 C 
HETATM   19  C11 UNL     1       5.999   6.938   1.649  1.00  0.00     0.020 C 
HETATM   20  C12 UNL     1       4.686   8.447   0.167  1.00  0.00     0.020 C 
BRANCH  18  21
HETATM   21  C13 UNL     1       7.205   8.686   0.280  1.00  0.00     0.192 C 
BRANCH  21  22
HETATM   22  O4  UNL     1       7.378  10.072   0.067  1.00  0.00    -0.296 OA
BRANCH  22  23
HETATM   23  P1  UNL     1       8.417  10.667  -1.000  1.00  0.00     0.401 P 
HETATM   24  O5  UNL     1       9.597   9.784  -1.262  1.00  0.00    -0.631 OA
BRANCH  23  25
HETATM   25  O6  UNL     1       8.810  12.143  -0.494  1.00  0.00    -0.307 OA
HETATM   26  H23 UNL     1       9.713  12.381  -0.738  1.00  0.00     0.222 HD
ENDBRANCH  23  25
BRANCH  23  27
HETATM   27  O7  UNL     1       7.540  11.003  -2.284  1.00  0.00    -0.195 OA
BRANCH  27  28
HETATM   28  P2  UNL     1       8.229  11.745  -3.514  1.00  0.00     0.401 P 
HETATM   29  O8  UNL     1       8.460  13.215  -3.374  1.00  0.00    -0.631 OA
BRANCH  28  30
HETATM   30  O9  UNL     1       9.560  10.897  -3.755  1.00  0.00    -0.307 OA
HETATM   31  H24 UNL     1       9.784  10.278  -3.018  1.00  0.00     0.222 HD
ENDBRANCH  28  30
BRANCH  28  32
HETATM   32  O10 UNL     1       7.359  11.293  -4.774  1.00  0.00    -0.294 OA
BRANCH  32  33
HETATM   33  C14 UNL     1       6.379  12.151  -5.296  1.00  0.00     0.215 C 
BRANCH  33  34
HETATM   34  C15 UNL     1       6.292  11.841  -6.789  1.00  0.00     0.180 C 
HETATM   35  C16 UNL     1       5.587  12.982  -7.512  1.00  0.00     0.197 C 
HETATM   36  C17 UNL     1       4.338  12.352  -8.099  1.00  0.00     0.199 C 
HETATM   37  C18 UNL     1       4.749  10.884  -8.232  1.00  0.00     0.262 C 
HETATM   38  O11 UNL     1       5.570  10.637  -7.069  1.00  0.00    -0.353 OA
BRANCH  35  39
HETATM   39  O13 UNL     1       6.464  13.474  -8.520  1.00  0.00    -0.286 OA
BRANCH  39  40
HETATM   40  P3  UNL     1       6.524  15.065  -8.664  1.00  0.00     0.391 P 
HETATM   41  O14 UNL     1       7.867  15.648  -8.361  1.00  0.00    -0.632 OA
BRANCH  40  42
HETATM   42  O15 UNL     1       5.301  15.497  -7.728  1.00  0.00    -0.307 OA
HETATM   43  H36 UNL     1       4.842  14.702  -7.365  1.00  0.00     0.222 HD
ENDBRANCH  40  42
BRANCH  40  44
HETATM   44  O16 UNL     1       5.946  15.270 -10.132  1.00  0.00    -0.307 OA
HETATM   45  H37 UNL     1       6.295  16.065 -10.566  1.00  0.00     0.222 HD
ENDBRANCH  40  44
ENDBRANCH  39  40
ENDBRANCH  35  39
BRANCH  36  46
HETATM   46  O12 UNL     1       3.952  13.037  -9.294  1.00  0.00    -0.388 OA
HETATM   47  H35 UNL     1       4.703  12.937  -9.926  1.00  0.00     0.210 HD
ENDBRANCH  36  46
BRANCH  37  48
HETATM   48  N3  UNL     1       3.614   9.983  -8.202  1.00  0.00    -0.297 N 
HETATM   49  C19 UNL     1       2.819   9.612  -9.261  1.00  0.00     0.188 A 
HETATM   50  N4  UNL     1       1.950   8.682  -8.930  1.00  0.00    -0.346 N 
HETATM   51  C20 UNL     1       2.197   8.434  -7.591  1.00  0.00     0.116 A 
HETATM   52  H4  UNL     1       1.251   8.241  -9.527  1.00  0.00     0.167 HD
HETATM   53  C21 UNL     1       1.641   7.528  -6.671  1.00  0.00     0.109 A 
HETATM   54  C23 UNL     1       3.199   9.262  -7.117  1.00  0.00     0.142 A 
HETATM   55  N5  UNL     1       2.100   7.535  -5.396  1.00  0.00    -0.341 N 
HETATM   56  C22 UNL     1       3.066   8.416  -5.070  1.00  0.00     0.183 A 
HETATM   57  H5  UNL     1       1.723   6.889  -4.701  1.00  0.00     0.167 HD
HETATM   58  N6  UNL     1       3.678   9.320  -5.862  1.00  0.00    -0.336 N 
HETATM   59  H6  UNL     1       4.407   9.962  -5.551  1.00  0.00     0.168 HD
BRANCH  53  60
HETATM   60  N7  UNL     1       0.637   6.631  -6.998  1.00  0.00    -0.287 NA
HETATM   61  H33 UNL     1      -0.306   6.997  -6.885  1.00  0.00     0.125 HD
HETATM   62  H34 UNL     1       0.809   5.700  -6.642  1.00  0.00     0.125 HD
ENDBRANCH  53  60
ENDBRANCH  37  48
ENDBRANCH  33  34
ENDBRANCH  32  33
ENDBRANCH  28  32
ENDBRANCH  27  28
ENDBRANCH  23  27
ENDBRANCH  22  23
ENDBRANCH  21  22
ENDBRANCH  18  21
ENDBRANCH  17  18
BRANCH  17  63
HETATM   63  O17 UNL     1       4.906  10.437   1.841  1.00  0.00    -0.385 OA
HETATM   64  H38 UNL     1       4.534  10.823   2.652  1.00  0.00     0.210 HD
ENDBRANCH  17  63
ENDBRANCH  14  17
ENDBRANCH  12  13
ENDBRANCH  11  12
ENDBRANCH   8  11
ENDBRANCH   6   7
ENDBRANCH   5   6
ENDBRANCH   4   5
ENDBRANCH   2   4
TORSDOF 27
ENDMDL
MODEL 16
REMARK VINA RESULT:      -6.2      7.500     11.056
REMARK  27 active torsions:
REMARK  status: ('A' for Active; 'I' for Inactive)
REMARK    1  A    between atoms: C2_2  and  S1_4 
REMARK    2  A    between atoms: S1_4  and  C3_5 
REMARK    3  A    between atoms: C3_5  and  C4_6 
REMARK    4  A    between atoms: C4_6  and  N1_7 
REMARK       I    between atoms: N1_7  and  C5_8 
REMARK    5  A    between atoms: C5_8  and  C6_10 
REMARK    6  A    between atoms: C6_10  and  C7_11 
REMARK    7  A    between atoms: C7_11  and  N2_12 
REMARK       I    between atoms: N2_12  and  C8_13 
REMARK    8  A    between atoms: C8_13  and  C9_15 
REMARK    9  A    between atoms: C9_15  and  C10_16 
REMARK   10  A    between atoms: C9_15  and  O17_54 
REMARK   11  A    between atoms: C10_16  and  C13_19 
REMARK   12  A    between atoms: C13_19  and  O4_20 
REMARK   13  A    between atoms: O4_20  and  P1_21 
REMARK   14  A    between atoms: P1_21  and  O6_23 
REMARK   15  A    between atoms: P1_21  and  O7_24 
REMARK   16  A    between atoms: O7_24  and  P2_25 
REMARK   17  A    between atoms: P2_25  and  O9_27 
REMARK   18  A    between atoms: P2_25  and  O10_28 
REMARK   19  A    between atoms: O10_28  and  C14_29 
REMARK   20  A    between atoms: C14_29  and  C15_30 
REMARK   21  A    between atoms: C16_31  and  O13_49 
REMARK   22  A    between atoms: C17_32  and  O12_48 
REMARK   23  A    between atoms: C18_33  and  N3_35 
REMARK   24  A    between atoms: C21_40  and  N7_47 
REMARK   25  A    between atoms: O13_49  and  P3_50 
REMARK   26  A    between atoms: P3_50  and  O15_52 
REMARK   27  A    between atoms: P3_50  and  O16_53 
ROOT
HETATM    1  C1  UNL     1       5.430   3.974  -9.804  1.00  0.00     0.104 C 
HETATM    2  C2  UNL     1       4.430   2.904 -10.120  1.00  0.00     0.182 C 
HETATM    3  O1  UNL     1       4.555   1.736  -9.761  1.00  0.00    -0.286 OA
ENDROOT
BRANCH   2   4
HETATM    4  S1  UNL     1       3.068   3.450 -11.090  1.00  0.00    -0.091 SA
BRANCH   4   5
HETATM    5  C3  UNL     1       2.766   5.081 -10.336  1.00  0.00     0.102 C 
BRANCH   5   6
HETATM    6  C4  UNL     1       1.363   5.179  -9.733  1.00  0.00     0.133 C 
BRANCH   6   7
HETATM    7  N1  UNL     1       1.336   5.942  -8.502  1.00  0.00    -0.360 N 
HETATM    8  C5  UNL     1       0.531   7.048  -8.354  1.00  0.00     0.219 C 
HETATM    9  O2  UNL     1      -0.145   7.500  -9.271  1.00  0.00    -0.274 OA
HETATM   10  H8  UNL     1       1.920   5.645  -7.732  1.00  0.00     0.162 HD
BRANCH   8  11
HETATM   11  C6  UNL     1       0.610   7.666  -6.975  1.00  0.00     0.122 C 
BRANCH  11  12
HETATM   12  C7  UNL     1       1.823   7.162  -6.192  1.00  0.00     0.132 C 
BRANCH  12  13
HETATM   13  N2  UNL     1       2.360   8.150  -5.281  1.00  0.00    -0.358 N 
HETATM   14  C8  UNL     1       3.183   9.158  -5.751  1.00  0.00     0.247 C 
HETATM   15  O3  UNL     1       3.580   9.187  -6.909  1.00  0.00    -0.271 OA
HETATM   16  H13 UNL     1       1.779   8.363  -4.473  1.00  0.00     0.162 HD
BRANCH  14  17
HETATM   17  C9  UNL     1       3.537  10.236  -4.716  1.00  0.00     0.219 C 
BRANCH  17  18
HETATM   18  C10 UNL     1       4.770   9.901  -3.835  1.00  0.00     0.009 C 
HETATM   19  C11 UNL     1       4.366   9.337  -2.466  1.00  0.00     0.020 C 
HETATM   20  C12 UNL     1       5.691   8.872  -4.521  1.00  0.00     0.020 C 
BRANCH  18  21
HETATM   21  C13 UNL     1       5.533  11.243  -3.643  1.00  0.00     0.192 C 
BRANCH  21  22
HETATM   22  O4  UNL     1       6.748  11.279  -4.364  1.00  0.00    -0.296 OA
BRANCH  22  23
HETATM   23  P1  UNL     1       8.146  11.691  -3.695  1.00  0.00     0.401 P 
HETATM   24  O5  UNL     1       8.024  12.691  -2.589  1.00  0.00    -0.631 OA
BRANCH  23  25
HETATM   25  O6  UNL     1       9.115  12.160  -4.892  1.00  0.00    -0.307 OA
HETATM   26  H23 UNL     1       8.711  12.024  -5.759  1.00  0.00     0.222 HD
ENDBRANCH  23  25
BRANCH  23  27
HETATM   27  O7  UNL     1       8.821  10.313  -3.274  1.00  0.00    -0.195 OA
BRANCH  27  28
HETATM   28  P2  UNL     1      10.189  10.344  -2.458  1.00  0.00     0.401 P 
HETATM   29  O8  UNL     1      11.206   9.305  -2.804  1.00  0.00    -0.631 OA
BRANCH  28  30
HETATM   30  O9  UNL     1      10.699  11.844  -2.654  1.00  0.00    -0.307 OA
HETATM   31  H24 UNL     1      11.665  11.967  -2.486  1.00  0.00     0.222 HD
ENDBRANCH  28  30
BRANCH  28  32
HETATM   32  O10 UNL     1       9.728  10.387  -0.930  1.00  0.00    -0.294 OA
BRANCH  32  33
HETATM   33  C14 UNL     1       8.978   9.329  -0.393  1.00  0.00     0.215 C 
BRANCH  33  34
HETATM   34  C15 UNL     1       8.773   9.658   1.085  1.00  0.00     0.180 C 
HETATM   35  C16 UNL     1      10.000   9.235   1.882  1.00  0.00     0.197 C 
HETATM   36  C17 UNL     1       9.487   8.181   2.845  1.00  0.00     0.199 C 
HETATM   37  C18 UNL     1       8.008   8.554   2.975  1.00  0.00     0.262 C 
HETATM   38  O11 UNL     1       7.635   8.998   1.652  1.00  0.00    -0.353 OA
BRANCH  35  39
HETATM   39  O13 UNL     1      10.503  10.382   2.559  1.00  0.00    -0.286 OA
BRANCH  39  40
HETATM   40  P3  UNL     1      12.040  10.724   2.286  1.00  0.00     0.391 P 
HETATM   41  O14 UNL     1      12.656  11.602   3.326  1.00  0.00    -0.632 OA
BRANCH  40  42
HETATM   42  O15 UNL     1      11.959  11.291   0.792  1.00  0.00    -0.307 OA
HETATM   43  H36 UNL     1      11.217  11.935   0.703  1.00  0.00     0.222 HD
ENDBRANCH  40  42
BRANCH  40  44
HETATM   44  O16 UNL     1      12.656   9.272   2.089  1.00  0.00    -0.307 OA
HETATM   45  H37 UNL     1      12.586   8.722   2.885  1.00  0.00     0.222 HD
ENDBRANCH  40  44
ENDBRANCH  39  40
ENDBRANCH  35  39
BRANCH  36  46
HETATM   46  O12 UNL     1      10.271   8.179   4.041  1.00  0.00    -0.388 OA
HETATM   47  H35 UNL     1       9.956   8.942   4.581  1.00  0.00     0.210 HD
ENDBRANCH  36  46
BRANCH  37  48
HETATM   48  N3  UNL     1       7.179   7.422   3.337  1.00  0.00    -0.297 N 
HETATM   49  C19 UNL     1       6.402   7.288   4.465  1.00  0.00     0.188 A 
HETATM   50  N4  UNL     1       5.670   6.196   4.439  1.00  0.00    -0.346 N 
HETATM   51  C20 UNL     1       5.983   5.595   3.233  1.00  0.00     0.116 A 
HETATM   52  H4  UNL     1       5.016   5.866   5.148  1.00  0.00     0.167 HD
HETATM   53  C21 UNL     1       5.514   4.432   2.597  1.00  0.00     0.109 A 
HETATM   54  C23 UNL     1       6.946   6.323   2.558  1.00  0.00     0.142 A 
HETATM   55  N5  UNL     1       6.037   4.094   1.394  1.00  0.00    -0.341 N 
HETATM   56  C22 UNL     1       6.989   4.888   0.866  1.00  0.00     0.183 A 
HETATM   57  H5  UNL     1       5.719   3.259   0.901  1.00  0.00     0.167 HD
HETATM   58  N6  UNL     1       7.509   6.024   1.374  1.00  0.00    -0.336 N 
HETATM   59  H6  UNL     1       8.233   6.582   0.921  1.00  0.00     0.168 HD
BRANCH  53  60
HETATM   60  N7  UNL     1       4.546   3.604   3.142  1.00  0.00    -0.287 NA
HETATM   61  H33 UNL     1       4.293   3.830   4.102  1.00  0.00     0.125 HD
HETATM   62  H34 UNL     1       4.696   2.627   2.929  1.00  0.00     0.125 HD
ENDBRANCH  53  60
ENDBRANCH  37  48
ENDBRANCH  33  34
ENDBRANCH  32  33
ENDBRANCH  28  32
ENDBRANCH  27  28
ENDBRANCH  23  27
ENDBRANCH  22  23
ENDBRANCH  21  22
ENDBRANCH  18  21
ENDBRANCH  17  18
BRANCH  17  63
HETATM   63  O17 UNL     1       3.772  11.488  -5.370  1.00  0.00    -0.385 OA
HETATM   64  H38 UNL     1       4.732  11.635  -5.404  1.00  0.00     0.210 HD
ENDBRANCH  17  63
ENDBRANCH  14  17
ENDBRANCH  12  13
ENDBRANCH  11  12
ENDBRANCH   8  11
ENDBRANCH   6   7
ENDBRANCH   5   6
ENDBRANCH   4   5
ENDBRANCH   2   4
TORSDOF 27
ENDMDL
MODEL 17
REMARK VINA RESULT:      -6.2      4.213      6.275
REMARK  27 active torsions:
REMARK  status: ('A' for Active; 'I' for Inactive)
REMARK    1  A    between atoms: C2_2  and  S1_4 
REMARK    2  A    between atoms: S1_4  and  C3_5 
REMARK    3  A    between atoms: C3_5  and  C4_6 
REMARK    4  A    between atoms: C4_6  and  N1_7 
REMARK       I    between atoms: N1_7  and  C5_8 
REMARK    5  A    between atoms: C5_8  and  C6_10 
REMARK    6  A    between atoms: C6_10  and  C7_11 
REMARK    7  A    between atoms: C7_11  and  N2_12 
REMARK       I    between atoms: N2_12  and  C8_13 
REMARK    8  A    between atoms: C8_13  and  C9_15 
REMARK    9  A    between atoms: C9_15  and  C10_16 
REMARK   10  A    between atoms: C9_15  and  O17_54 
REMARK   11  A    between atoms: C10_16  and  C13_19 
REMARK   12  A    between atoms: C13_19  and  O4_20 
REMARK   13  A    between atoms: O4_20  and  P1_21 
REMARK   14  A    between atoms: P1_21  and  O6_23 
REMARK   15  A    between atoms: P1_21  and  O7_24 
REMARK   16  A    between atoms: O7_24  and  P2_25 
REMARK   17  A    between atoms: P2_25  and  O9_27 
REMARK   18  A    between atoms: P2_25  and  O10_28 
REMARK   19  A    between atoms: O10_28  and  C14_29 
REMARK   20  A    between atoms: C14_29  and  C15_30 
REMARK   21  A    between atoms: C16_31  and  O13_49 
REMARK   22  A    between atoms: C17_32  and  O12_48 
REMARK   23  A    between atoms: C18_33  and  N3_35 
REMARK   24  A    between atoms: C21_40  and  N7_47 
REMARK   25  A    between atoms: O13_49  and  P3_50 
REMARK   26  A    between atoms: P3_50  and  O15_52 
REMARK   27  A    between atoms: P3_50  and  O16_53 
ROOT
HETATM    1  C1  UNL     1       9.252  13.558  -6.807  1.00  0.00     0.104 C 
HETATM    2  C2  UNL     1       8.557  12.909  -5.650  1.00  0.00     0.182 C 
HETATM    3  O1  UNL     1       8.778  13.205  -4.478  1.00  0.00    -0.286 OA
ENDROOT
BRANCH   2   4
HETATM    4  S1  UNL     1       7.417  11.649  -6.102  1.00  0.00    -0.091 SA
BRANCH   4   5
HETATM    5  C3  UNL     1       5.843  12.485  -5.721  1.00  0.00     0.102 C 
BRANCH   5   6
HETATM    6  C4  UNL     1       5.303  12.083  -4.347  1.00  0.00     0.133 C 
BRANCH   6   7
HETATM    7  N1  UNL     1       6.299  11.427  -3.524  1.00  0.00    -0.360 N 
HETATM    8  C5  UNL     1       6.068  10.200  -2.948  1.00  0.00     0.219 C 
HETATM    9  O2  UNL     1       4.987   9.627  -3.025  1.00  0.00    -0.274 OA
HETATM   10  H8  UNL     1       7.189  11.885  -3.380  1.00  0.00     0.162 HD
BRANCH   8  11
HETATM   11  C6  UNL     1       7.255   9.667  -2.175  1.00  0.00     0.122 C 
BRANCH  11  12
HETATM   12  C7  UNL     1       8.582  10.073  -2.817  1.00  0.00     0.132 C 
BRANCH  12  13
HETATM   13  N2  UNL     1       9.584  10.466  -1.848  1.00  0.00    -0.358 N 
HETATM   14  C8  UNL     1       9.365  11.552  -1.021  1.00  0.00     0.247 C 
HETATM   15  O3  UNL     1       8.391  12.283  -1.149  1.00  0.00    -0.271 OA
HETATM   16  H13 UNL     1      10.160   9.711  -1.483  1.00  0.00     0.162 HD
BRANCH  14  17
HETATM   17  C9  UNL     1      10.423  11.751   0.075  1.00  0.00     0.219 C 
BRANCH  17  18
HETATM   18  C10 UNL     1      10.404  10.672   1.190  1.00  0.00     0.009 C 
HETATM   19  C11 UNL     1      10.802   9.286   0.660  1.00  0.00     0.020 C 
HETATM   20  C12 UNL     1      11.364  11.034   2.342  1.00  0.00     0.020 C 
BRANCH  18  21
HETATM   21  C13 UNL     1       8.942  10.630   1.718  1.00  0.00     0.192 C 
BRANCH  21  22
HETATM   22  O4  UNL     1       8.881  10.473   3.121  1.00  0.00    -0.296 OA
BRANCH  22  23
HETATM   23  P1  UNL     1       8.646   9.054   3.830  1.00  0.00     0.401 P 
HETATM   24  O5  UNL     1       9.906   8.309   4.138  1.00  0.00    -0.631 OA
BRANCH  23  25
HETATM   25  O6  UNL     1       7.617   8.235   2.902  1.00  0.00    -0.307 OA
HETATM   26  H23 UNL     1       8.061   7.548   2.388  1.00  0.00     0.222 HD
ENDBRANCH  23  25
BRANCH  23  27
HETATM   27  O7  UNL     1       7.736   9.372   5.095  1.00  0.00    -0.195 OA
BRANCH  27  28
HETATM   28  P2  UNL     1       6.820   8.215   5.695  1.00  0.00     0.401 P 
HETATM   29  O8  UNL     1       6.412   8.348   7.126  1.00  0.00    -0.631 OA
BRANCH  28  30
HETATM   30  O9  UNL     1       5.595   8.149   4.673  1.00  0.00    -0.307 OA
HETATM   31  H24 UNL     1       5.599   7.351   4.089  1.00  0.00     0.222 HD
ENDBRANCH  28  30
BRANCH  28  32
HETATM   32  O10 UNL     1       7.595   6.872   5.312  1.00  0.00    -0.294 OA
BRANCH  32  33
HETATM   33  C14 UNL     1       8.255   6.135   6.307  1.00  0.00     0.215 C 
BRANCH  33  34
HETATM   34  C15 UNL     1       7.711   4.710   6.214  1.00  0.00     0.180 C 
HETATM   35  C16 UNL     1       6.524   4.673   5.262  1.00  0.00     0.197 C 
HETATM   36  C17 UNL     1       5.354   4.234   6.123  1.00  0.00     0.199 C 
HETATM   37  C18 UNL     1       6.051   3.461   7.245  1.00  0.00     0.262 C 
HETATM   38  O11 UNL     1       7.274   4.195   7.477  1.00  0.00    -0.353 OA
BRANCH  35  39
HETATM   39  O13 UNL     1       6.814   3.734   4.232  1.00  0.00    -0.286 OA
BRANCH  39  40
HETATM   40  P3  UNL     1       6.531   4.237   2.741  1.00  0.00     0.391 P 
HETATM   41  O14 UNL     1       5.121   4.676   2.510  1.00  0.00    -0.632 OA
BRANCH  40  42
HETATM   42  O15 UNL     1       7.066   2.988   1.897  1.00  0.00    -0.307 OA
HETATM   43  H36 UNL     1       6.316   2.509   1.470  1.00  0.00     0.222 HD
ENDBRANCH  40  42
BRANCH  40  44
HETATM   44  O16 UNL     1       7.679   5.321   2.551  1.00  0.00    -0.307 OA
HETATM   45  H37 UNL     1       7.342   6.231   2.554  1.00  0.00     0.222 HD
ENDBRANCH  40  44
ENDBRANCH  39  40
ENDBRANCH  35  39
BRANCH  36  46
HETATM   46  O12 UNL     1       4.396   3.524   5.334  1.00  0.00    -0.388 OA
HETATM   47  H35 UNL     1       4.069   4.161   4.655  1.00  0.00     0.210 HD
ENDBRANCH  36  46
BRANCH  37  48
HETATM   48  N3  UNL     1       5.279   3.443   8.471  1.00  0.00    -0.297 N 
HETATM   49  C19 UNL     1       5.350   4.339   9.512  1.00  0.00     0.188 A 
HETATM   50  N4  UNL     1       4.428   4.119  10.423  1.00  0.00    -0.346 N 
HETATM   51  C20 UNL     1       3.720   3.029   9.948  1.00  0.00     0.116 A 
HETATM   52  H4  UNL     1       4.269   4.636  11.288  1.00  0.00     0.167 HD
HETATM   53  C21 UNL     1       2.597   2.337  10.432  1.00  0.00     0.109 A 
HETATM   54  C23 UNL     1       4.262   2.576   8.758  1.00  0.00     0.142 A 
HETATM   55  N5  UNL     1       2.134   1.276   9.726  1.00  0.00    -0.341 N 
HETATM   56  C22 UNL     1       2.778   0.933   8.593  1.00  0.00     0.183 A 
HETATM   57  H5  UNL     1       1.318   0.752  10.044  1.00  0.00     0.167 HD
HETATM   58  N6  UNL     1       3.852   1.523   8.029  1.00  0.00    -0.336 N 
HETATM   59  H6  UNL     1       4.295   1.211   7.165  1.00  0.00     0.168 HD
BRANCH  53  60
HETATM   60  N7  UNL     1       1.939   2.676  11.604  1.00  0.00    -0.287 NA
HETATM   61  H33 UNL     1       2.540   2.718  12.424  1.00  0.00     0.125 HD
HETATM   62  H34 UNL     1       1.054   2.200  11.711  1.00  0.00     0.125 HD
ENDBRANCH  53  60
ENDBRANCH  37  48
ENDBRANCH  33  34
ENDBRANCH  32  33
ENDBRANCH  28  32
ENDBRANCH  27  28
ENDBRANCH  23  27
ENDBRANCH  22  23
ENDBRANCH  21  22
ENDBRANCH  18  21
ENDBRANCH  17  18
BRANCH  17  63
HETATM   63  O17 UNL     1      11.732  11.783  -0.505  1.00  0.00    -0.385 OA
HETATM   64  H38 UNL     1      12.374  11.936   0.209  1.00  0.00     0.210 HD
ENDBRANCH  17  63
ENDBRANCH  14  17
ENDBRANCH  12  13
ENDBRANCH  11  12
ENDBRANCH   8  11
ENDBRANCH   6   7
ENDBRANCH   5   6
ENDBRANCH   4   5
ENDBRANCH   2   4
TORSDOF 27
ENDMDL
MODEL 18
REMARK VINA RESULT:      -6.2      6.861      9.425
REMARK  27 active torsions:
REMARK  status: ('A' for Active; 'I' for Inactive)
REMARK    1  A    between atoms: C2_2  and  S1_4 
REMARK    2  A    between atoms: S1_4  and  C3_5 
REMARK    3  A    between atoms: C3_5  and  C4_6 
REMARK    4  A    between atoms: C4_6  and  N1_7 
REMARK       I    between atoms: N1_7  and  C5_8 
REMARK    5  A    between atoms: C5_8  and  C6_10 
REMARK    6  A    between atoms: C6_10  and  C7_11 
REMARK    7  A    between atoms: C7_11  and  N2_12 
REMARK       I    between atoms: N2_12  and  C8_13 
REMARK    8  A    between atoms: C8_13  and  C9_15 
REMARK    9  A    between atoms: C9_15  and  C10_16 
REMARK   10  A    between atoms: C9_15  and  O17_54 
REMARK   11  A    between atoms: C10_16  and  C13_19 
REMARK   12  A    between atoms: C13_19  and  O4_20 
REMARK   13  A    between atoms: O4_20  and  P1_21 
REMARK   14  A    between atoms: P1_21  and  O6_23 
REMARK   15  A    between atoms: P1_21  and  O7_24 
REMARK   16  A    between atoms: O7_24  and  P2_25 
REMARK   17  A    between atoms: P2_25  and  O9_27 
REMARK   18  A    between atoms: P2_25  and  O10_28 
REMARK   19  A    between atoms: O10_28  and  C14_29 
REMARK   20  A    between atoms: C14_29  and  C15_30 
REMARK   21  A    between atoms: C16_31  and  O13_49 
REMARK   22  A    between atoms: C17_32  and  O12_48 
REMARK   23  A    between atoms: C18_33  and  N3_35 
REMARK   24  A    between atoms: C21_40  and  N7_47 
REMARK   25  A    between atoms: O13_49  and  P3_50 
REMARK   26  A    between atoms: P3_50  and  O15_52 
REMARK   27  A    between atoms: P3_50  and  O16_53 
ROOT
HETATM    1  C1  UNL     1       6.956  15.069  -8.524  1.00  0.00     0.104 C 
HETATM    2  C2  UNL     1       6.262  14.040  -7.686  1.00  0.00     0.182 C 
HETATM    3  O1  UNL     1       5.610  14.316  -6.681  1.00  0.00    -0.286 OA
ENDROOT
BRANCH   2   4
HETATM    4  S1  UNL     1       6.487  12.385  -8.235  1.00  0.00    -0.091 SA
BRANCH   4   5
HETATM    5  C3  UNL     1       8.296  12.360  -8.452  1.00  0.00     0.102 C 
BRANCH   5   6
HETATM    6  C4  UNL     1       8.846  10.932  -8.494  1.00  0.00     0.133 C 
BRANCH   6   7
HETATM    7  N1  UNL     1       9.390  10.505  -7.221  1.00  0.00    -0.360 N 
HETATM    8  C5  UNL     1       9.782   9.205  -7.001  1.00  0.00     0.219 C 
HETATM    9  O2  UNL     1       9.623   8.318  -7.831  1.00  0.00    -0.274 OA
HETATM   10  H8  UNL     1       9.488  11.187  -6.480  1.00  0.00     0.162 HD
BRANCH   8  11
HETATM   11  C6  UNL     1      10.374   8.983  -5.626  1.00  0.00     0.122 C 
BRANCH  11  12
HETATM   12  C7  UNL     1      11.839   9.413  -5.558  1.00  0.00     0.132 C 
BRANCH  12  13
HETATM   13  N2  UNL     1      12.061  10.531  -4.666  1.00  0.00    -0.358 N 
HETATM   14  C8  UNL     1      11.980  11.827  -5.140  1.00  0.00     0.247 C 
HETATM   15  O3  UNL     1      11.840  12.078  -6.330  1.00  0.00    -0.271 OA
HETATM   16  H13 UNL     1      11.803  10.374  -3.694  1.00  0.00     0.162 HD
BRANCH  14  17
HETATM   17  C9  UNL     1      12.061  12.915  -4.058  1.00  0.00     0.219 C 
BRANCH  17  18
HETATM   18  C10 UNL     1      10.727  13.177  -3.310  1.00  0.00     0.009 C 
HETATM   19  C11 UNL     1      10.626  12.368  -2.008  1.00  0.00     0.020 C 
HETATM   20  C12 UNL     1      10.561  14.669  -2.956  1.00  0.00     0.020 C 
BRANCH  18  21
HETATM   21  C13 UNL     1       9.597  12.741  -4.286  1.00  0.00     0.192 C 
BRANCH  21  22
HETATM   22  O4  UNL     1       8.314  12.834  -3.700  1.00  0.00    -0.296 OA
BRANCH  22  23
HETATM   23  P1  UNL     1       7.120  11.824  -4.054  1.00  0.00     0.401 P 
HETATM   24  O5  UNL     1       7.405  10.921  -5.212  1.00  0.00    -0.631 OA
BRANCH  23  25
HETATM   25  O6  UNL     1       5.794  12.717  -4.238  1.00  0.00    -0.307 OA
HETATM   26  H23 UNL     1       5.991  13.582  -4.622  1.00  0.00     0.222 HD
ENDBRANCH  23  25
BRANCH  23  27
HETATM   27  O7  UNL     1       6.800  11.073  -2.688  1.00  0.00    -0.195 OA
BRANCH  27  28
HETATM   28  P2  UNL     1       5.511  10.141  -2.606  1.00  0.00     0.401 P 
HETATM   29  O8  UNL     1       4.181  10.819  -2.656  1.00  0.00    -0.631 OA
BRANCH  28  30
HETATM   30  O9  UNL     1       5.747   9.084  -3.780  1.00  0.00    -0.307 OA
HETATM   31  H24 UNL     1       6.572   8.549  -3.680  1.00  0.00     0.222 HD
ENDBRANCH  28  30
BRANCH  28  32
HETATM   32  O10 UNL     1       5.778   9.223  -1.327  1.00  0.00    -0.294 OA
BRANCH  32  33
HETATM   33  C14 UNL     1       4.698   8.726  -0.581  1.00  0.00     0.215 C 
BRANCH  33  34
HETATM   34  C15 UNL     1       5.188   8.624   0.863  1.00  0.00     0.180 C 
HETATM   35  C16 UNL     1       6.709   8.687   0.897  1.00  0.00     0.197 C 
HETATM   36  C17 UNL     1       7.136   7.351   1.476  1.00  0.00     0.199 C 
HETATM   37  C18 UNL     1       5.906   6.945   2.292  1.00  0.00     0.262 C 
HETATM   38  O11 UNL     1       4.787   7.408   1.504  1.00  0.00    -0.353 OA
BRANCH  35  39
HETATM   39  O13 UNL     1       7.087   9.778   1.729  1.00  0.00    -0.286 OA
BRANCH  39  40
HETATM   40  P3  UNL     1       8.322  10.648   1.207  1.00  0.00     0.391 P 
HETATM   41  O14 UNL     1       9.571  10.465   2.008  1.00  0.00    -0.632 OA
BRANCH  40  42
HETATM   42  O15 UNL     1       7.669  12.108   1.177  1.00  0.00    -0.307 OA
HETATM   43  H36 UNL     1       7.062  12.234   1.944  1.00  0.00     0.222 HD
ENDBRANCH  40  42
BRANCH  40  44
HETATM   44  O16 UNL     1       8.367  10.240  -0.330  1.00  0.00    -0.307 OA
HETATM   45  H37 UNL     1       7.543  10.446  -0.798  1.00  0.00     0.222 HD
ENDBRANCH  40  44
ENDBRANCH  39  40
ENDBRANCH  35  39
BRANCH  36  46
HETATM   46  O12 UNL     1       8.374   7.488   2.178  1.00  0.00    -0.388 OA
HETATM   47  H35 UNL     1       8.301   6.922   2.983  1.00  0.00     0.210 HD
ENDBRANCH  36  46
BRANCH  37  48
HETATM   48  N3  UNL     1       5.798   5.510   2.458  1.00  0.00    -0.297 N 
HETATM   49  C19 UNL     1       6.067   4.542   1.519  1.00  0.00     0.188 A 
HETATM   50  N4  UNL     1       5.994   3.328   2.019  1.00  0.00    -0.346 N 
HETATM   51  C20 UNL     1       5.666   3.518   3.350  1.00  0.00     0.116 A 
HETATM   52  H4  UNL     1       6.146   2.443   1.535  1.00  0.00     0.167 HD
HETATM   53  C21 UNL     1       5.485   2.629   4.423  1.00  0.00     0.109 A 
HETATM   54  C23 UNL     1       5.503   4.863   3.626  1.00  0.00     0.142 A 
HETATM   55  N5  UNL     1       5.149   3.134   5.635  1.00  0.00    -0.341 N 
HETATM   56  C22 UNL     1       5.001   4.469   5.751  1.00  0.00     0.183 A 
HETATM   57  H5  UNL     1       5.013   2.520   6.439  1.00  0.00     0.167 HD
HETATM   58  N6  UNL     1       5.156   5.414   4.803  1.00  0.00    -0.336 N 
HETATM   59  H6  UNL     1       5.028   6.415   4.956  1.00  0.00     0.168 HD
BRANCH  53  60
HETATM   60  N7  UNL     1       5.622   1.255   4.306  1.00  0.00    -0.287 NA
HETATM   61  H33 UNL     1       5.023   0.833   3.600  1.00  0.00     0.125 HD
HETATM   62  H34 UNL     1       5.673   0.785   5.200  1.00  0.00     0.125 HD
ENDBRANCH  53  60
ENDBRANCH  37  48
ENDBRANCH  33  34
ENDBRANCH  32  33
ENDBRANCH  28  32
ENDBRANCH  27  28
ENDBRANCH  23  27
ENDBRANCH  22  23
ENDBRANCH  21  22
ENDBRANCH  18  21
ENDBRANCH  17  18
BRANCH  17  63
HETATM   63  O17 UNL     1      13.064  12.578  -3.094  1.00  0.00    -0.385 OA
HETATM   64  H38 UNL     1      13.660  11.923  -3.495  1.00  0.00     0.210 HD
ENDBRANCH  17  63
ENDBRANCH  14  17
ENDBRANCH  12  13
ENDBRANCH  11  12
ENDBRANCH   8  11
ENDBRANCH   6   7
ENDBRANCH   5   6
ENDBRANCH   4   5
ENDBRANCH   2   4
TORSDOF 27
ENDMDL
MODEL 19
REMARK VINA RESULT:      -6.1      7.121     13.258
REMARK  27 active torsions:
REMARK  status: ('A' for Active; 'I' for Inactive)
REMARK    1  A    between atoms: C2_2  and  S1_4 
REMARK    2  A    between atoms: S1_4  and  C3_5 
REMARK    3  A    between atoms: C3_5  and  C4_6 
REMARK    4  A    between atoms: C4_6  and  N1_7 
REMARK       I    between atoms: N1_7  and  C5_8 
REMARK    5  A    between atoms: C5_8  and  C6_10 
REMARK    6  A    between atoms: C6_10  and  C7_11 
REMARK    7  A    between atoms: C7_11  and  N2_12 
REMARK       I    between atoms: N2_12  and  C8_13 
REMARK    8  A    between atoms: C8_13  and  C9_15 
REMARK    9  A    between atoms: C9_15  and  C10_16 
REMARK   10  A    between atoms: C9_15  and  O17_54 
REMARK   11  A    between atoms: C10_16  and  C13_19 
REMARK   12  A    between atoms: C13_19  and  O4_20 
REMARK   13  A    between atoms: O4_20  and  P1_21 
REMARK   14  A    between atoms: P1_21  and  O6_23 
REMARK   15  A    between atoms: P1_21  and  O7_24 
REMARK   16  A    between atoms: O7_24  and  P2_25 
REMARK   17  A    between atoms: P2_25  and  O9_27 
REMARK   18  A    between atoms: P2_25  and  O10_28 
REMARK   19  A    between atoms: O10_28  and  C14_29 
REMARK   20  A    between atoms: C14_29  and  C15_30 
REMARK   21  A    between atoms: C16_31  and  O13_49 
REMARK   22  A    between atoms: C17_32  and  O12_48 
REMARK   23  A    between atoms: C18_33  and  N3_35 
REMARK   24  A    between atoms: C21_40  and  N7_47 
REMARK   25  A    between atoms: O13_49  and  P3_50 
REMARK   26  A    between atoms: P3_50  and  O15_52 
REMARK   27  A    between atoms: P3_50  and  O16_53 
ROOT
HETATM    1  C1  UNL     1       6.539   3.411   2.374  1.00  0.00     0.104 C 
HETATM    2  C2  UNL     1       6.592   2.019   2.924  1.00  0.00     0.182 C 
HETATM    3  O1  UNL     1       6.869   1.035   2.243  1.00  0.00    -0.286 OA
ENDROOT
BRANCH   2   4
HETATM    4  S1  UNL     1       6.182   1.897   4.630  1.00  0.00    -0.091 SA
BRANCH   4   5
HETATM    5  C3  UNL     1       7.616   2.744   5.368  1.00  0.00     0.102 C 
BRANCH   5   6
HETATM    6  C4  UNL     1       7.191   3.794   6.397  1.00  0.00     0.133 C 
BRANCH   6   7
HETATM    7  N1  UNL     1       7.961   5.017   6.299  1.00  0.00    -0.360 N 
HETATM    8  C5  UNL     1       7.537   6.081   5.538  1.00  0.00     0.219 C 
HETATM    9  O2  UNL     1       6.533   6.033   4.838  1.00  0.00    -0.274 OA
HETATM   10  H8  UNL     1       8.830   5.087   6.812  1.00  0.00     0.162 HD
BRANCH   8  11
HETATM   11  C6  UNL     1       8.459   7.280   5.617  1.00  0.00     0.122 C 
BRANCH  11  12
HETATM   12  C7  UNL     1       7.724   8.586   5.316  1.00  0.00     0.132 C 
BRANCH  12  13
HETATM   13  N2  UNL     1       7.631   8.871   3.900  1.00  0.00    -0.358 N 
HETATM   14  C8  UNL     1       6.401   9.114   3.317  1.00  0.00     0.247 C 
HETATM   15  O3  UNL     1       5.351   8.982   3.933  1.00  0.00    -0.271 OA
HETATM   16  H13 UNL     1       8.439   9.338   3.494  1.00  0.00     0.162 HD
BRANCH  14  17
HETATM   17  C9  UNL     1       6.461   9.576   1.854  1.00  0.00     0.219 C 
BRANCH  17  18
HETATM   18  C10 UNL     1       6.159   8.464   0.815  1.00  0.00     0.009 C 
HETATM   19  C11 UNL     1       6.732   7.104   1.241  1.00  0.00     0.020 C 
HETATM   20  C12 UNL     1       4.642   8.292   0.596  1.00  0.00     0.020 C 
BRANCH  18  21
HETATM   21  C13 UNL     1       6.832   8.923  -0.510  1.00  0.00     0.192 C 
BRANCH  21  22
HETATM   22  O4  UNL     1       7.342  10.239  -0.426  1.00  0.00    -0.296 OA
BRANCH  22  23
HETATM   23  P1  UNL     1       8.644  10.720  -1.228  1.00  0.00     0.401 P 
HETATM   24  O5  UNL     1       8.912   9.948  -2.481  1.00  0.00    -0.631 OA
BRANCH  23  25
HETATM   25  O6  UNL     1       9.868  10.704  -0.182  1.00  0.00    -0.307 OA
HETATM   26  H23 UNL     1       9.781  11.396   0.486  1.00  0.00     0.222 HD
ENDBRANCH  23  25
BRANCH  23  27
HETATM   27  O7  UNL     1       8.441  12.284  -1.442  1.00  0.00    -0.195 OA
BRANCH  27  28
HETATM   28  P2  UNL     1       9.349  13.040  -2.511  1.00  0.00     0.401 P 
HETATM   29  O8  UNL     1       9.720  14.454  -2.204  1.00  0.00    -0.631 OA
BRANCH  28  30
HETATM   30  O9  UNL     1      10.599  12.062  -2.686  1.00  0.00    -0.307 OA
HETATM   31  H24 UNL     1      11.273  12.136  -1.968  1.00  0.00     0.222 HD
ENDBRANCH  28  30
BRANCH  28  32
HETATM   32  O10 UNL     1       8.593  12.802  -3.897  1.00  0.00    -0.294 OA
BRANCH  32  33
HETATM   33  C14 UNL     1       9.215  13.152  -5.105  1.00  0.00     0.215 C 
BRANCH  33  34
HETATM   34  C15 UNL     1       8.415  12.467  -6.212  1.00  0.00     0.180 C 
HETATM   35  C16 UNL     1       7.399  11.513  -5.598  1.00  0.00     0.197 C 
HETATM   36  C17 UNL     1       7.802  10.142  -6.107  1.00  0.00     0.199 C 
HETATM   37  C18 UNL     1       8.534  10.483  -7.407  1.00  0.00     0.262 C 
HETATM   38  O11 UNL     1       9.236  11.711  -7.109  1.00  0.00    -0.353 OA
BRANCH  35  39
HETATM   39  O13 UNL     1       6.104  11.895  -6.051  1.00  0.00    -0.286 OA
BRANCH  39  40
HETATM   40  P3  UNL     1       5.105  12.421  -4.920  1.00  0.00     0.391 P 
HETATM   41  O14 UNL     1       4.703  13.851  -5.089  1.00  0.00    -0.632 OA
BRANCH  40  42
HETATM   42  O15 UNL     1       5.918  12.032  -3.598  1.00  0.00    -0.307 OA
HETATM   43  H36 UNL     1       5.503  11.258  -3.149  1.00  0.00     0.222 HD
ENDBRANCH  40  42
BRANCH  40  44
HETATM   44  O16 UNL     1       3.958  11.322  -4.976  1.00  0.00    -0.307 OA
HETATM   45  H37 UNL     1       3.138  11.610  -4.544  1.00  0.00     0.222 HD
ENDBRANCH  40  44
ENDBRANCH  39  40
ENDBRANCH  35  39
BRANCH  36  46
HETATM   46  O12 UNL     1       6.656   9.292  -6.203  1.00  0.00    -0.388 OA
HETATM   47  H35 UNL     1       6.548   8.870  -5.318  1.00  0.00     0.210 HD
ENDBRANCH  36  46
BRANCH  37  48
HETATM   48  N3  UNL     1       9.503   9.472  -7.782  1.00  0.00    -0.297 N 
HETATM   49  C19 UNL     1       9.508   8.711  -8.927  1.00  0.00     0.188 A 
HETATM   50  N4  UNL     1      10.592   7.973  -9.031  1.00  0.00    -0.346 N 
HETATM   51  C20 UNL     1      11.329   8.276  -7.899  1.00  0.00     0.116 A 
HETATM   52  H4  UNL     1      10.836   7.324  -9.778  1.00  0.00     0.167 HD
HETATM   53  C21 UNL     1      12.591   7.858  -7.444  1.00  0.00     0.109 A 
HETATM   54  C23 UNL     1      10.648   9.174  -7.098  1.00  0.00     0.142 A 
HETATM   55  N5  UNL     1      13.046   8.337  -6.261  1.00  0.00    -0.341 N 
HETATM   56  C22 UNL     1      12.261   9.190  -5.574  1.00  0.00     0.183 A 
HETATM   57  H5  UNL     1      13.959   8.059  -5.900  1.00  0.00     0.167 HD
HETATM   58  N6  UNL     1      11.045   9.666  -5.911  1.00  0.00    -0.336 N 
HETATM   59  H6  UNL     1      10.500  10.314  -5.342  1.00  0.00     0.168 HD
BRANCH  53  60
HETATM   60  N7  UNL     1      13.396   6.969  -8.140  1.00  0.00    -0.287 NA
HETATM   61  H33 UNL     1      14.374   7.247  -8.198  1.00  0.00     0.125 HD
HETATM   62  H34 UNL     1      12.967   6.631  -8.990  1.00  0.00     0.125 HD
ENDBRANCH  53  60
ENDBRANCH  37  48
ENDBRANCH  33  34
ENDBRANCH  32  33
ENDBRANCH  28  32
ENDBRANCH  27  28
ENDBRANCH  23  27
ENDBRANCH  22  23
ENDBRANCH  21  22
ENDBRANCH  18  21
ENDBRANCH  17  18
BRANCH  17  63
HETATM   63  O17 UNL     1       5.547  10.657   1.641  1.00  0.00    -0.385 OA
HETATM   64  H38 UNL     1       4.780  10.523   2.223  1.00  0.00     0.210 HD
ENDBRANCH  17  63
ENDBRANCH  14  17
ENDBRANCH  12  13
ENDBRANCH  11  12
ENDBRANCH   8  11
ENDBRANCH   6   7
ENDBRANCH   5   6
ENDBRANCH   4   5
ENDBRANCH   2   4
TORSDOF 27
ENDMDL
MODEL 20
REMARK VINA RESULT:      -6.1     12.502     14.913
REMARK  27 active torsions:
REMARK  status: ('A' for Active; 'I' for Inactive)
REMARK    1  A    between atoms: C2_2  and  S1_4 
REMARK    2  A    between atoms: S1_4  and  C3_5 
REMARK    3  A    between atoms: C3_5  and  C4_6 
REMARK    4  A    between atoms: C4_6  and  N1_7 
REMARK       I    between atoms: N1_7  and  C5_8 
REMARK    5  A    between atoms: C5_8  and  C6_10 
REMARK    6  A    between atoms: C6_10  and  C7_11 
REMARK    7  A    between atoms: C7_11  and  N2_12 
REMARK       I    between atoms: N2_12  and  C8_13 
REMARK    8  A    between atoms: C8_13  and  C9_15 
REMARK    9  A    between atoms: C9_15  and  C10_16 
REMARK   10  A    between atoms: C9_15  and  O17_54 
REMARK   11  A    between atoms: C10_16  and  C13_19 
REMARK   12  A    between atoms: C13_19  and  O4_20 
REMARK   13  A    between atoms: O4_20  and  P1_21 
REMARK   14  A    between atoms: P1_21  and  O6_23 
REMARK   15  A    between atoms: P1_21  and  O7_24 
REMARK   16  A    between atoms: O7_24  and  P2_25 
REMARK   17  A    between atoms: P2_25  and  O9_27 
REMARK   18  A    between atoms: P2_25  and  O10_28 
REMARK   19  A    between atoms: O10_28  and  C14_29 
REMARK   20  A    between atoms: C14_29  and  C15_30 
REMARK   21  A    between atoms: C16_31  and  O13_49 
REMARK   22  A    between atoms: C17_32  and  O12_48 
REMARK   23  A    between atoms: C18_33  and  N3_35 
REMARK   24  A    between atoms: C21_40  and  N7_47 
REMARK   25  A    between atoms: O13_49  and  P3_50 
REMARK   26  A    between atoms: P3_50  and  O15_52 
REMARK   27  A    between atoms: P3_50  and  O16_53 
ROOT
HETATM    1  C1  UNL     1       8.060  14.409  -8.625  1.00  0.00     0.104 C 
HETATM    2  C2  UNL     1       7.735  13.521  -7.463  1.00  0.00     0.182 C 
HETATM    3  O1  UNL     1       7.520  13.944  -6.330  1.00  0.00    -0.286 OA
ENDROOT
BRANCH   2   4
HETATM    4  S1  UNL     1       7.727  11.804  -7.843  1.00  0.00    -0.091 SA
BRANCH   4   5
HETATM    5  C3  UNL     1       7.964  11.871  -9.648  1.00  0.00     0.102 C 
BRANCH   5   6
HETATM    6  C4  UNL     1       9.243  11.152 -10.082  1.00  0.00     0.133 C 
BRANCH   6   7
HETATM    7  N1  UNL     1       9.388   9.848  -9.469  1.00  0.00    -0.360 N 
HETATM    8  C5  UNL     1      10.463   9.539  -8.669  1.00  0.00     0.219 C 
HETATM    9  O2  UNL     1      11.398  10.312  -8.493  1.00  0.00    -0.274 OA
HETATM   10  H8  UNL     1       8.672   9.152  -9.630  1.00  0.00     0.162 HD
BRANCH   8  11
HETATM   11  C6  UNL     1      10.394   8.145  -8.083  1.00  0.00     0.122 C 
BRANCH  11  12
HETATM   12  C7  UNL     1       9.189   7.974  -7.158  1.00  0.00     0.132 C 
BRANCH  12  13
HETATM   13  N2  UNL     1       8.188   7.075  -7.691  1.00  0.00    -0.358 N 
HETATM   14  C8  UNL     1       6.978   7.569  -8.144  1.00  0.00     0.247 C 
HETATM   15  O3  UNL     1       6.661   8.744  -8.006  1.00  0.00    -0.271 OA
HETATM   16  H13 UNL     1       8.548   6.238  -8.145  1.00  0.00     0.162 HD
BRANCH  14  17
HETATM   17  C9  UNL     1       6.082   6.537  -8.845  1.00  0.00     0.219 C 
BRANCH  17  18
HETATM   18  C10 UNL     1       6.371   6.358 -10.359  1.00  0.00     0.009 C 
HETATM   19  C11 UNL     1       6.689   7.693 -11.048  1.00  0.00     0.020 C 
HETATM   20  C12 UNL     1       7.558   5.404 -10.599  1.00  0.00     0.020 C 
BRANCH  18  21
HETATM   21  C13 UNL     1       5.076   5.749 -10.970  1.00  0.00     0.192 C 
BRANCH  21  22
HETATM   22  O4  UNL     1       4.898   4.393 -10.615  1.00  0.00    -0.296 OA
BRANCH  22  23
HETATM   23  P1  UNL     1       3.456   3.697 -10.530  1.00  0.00     0.401 P 
HETATM   24  O5  UNL     1       3.426   2.450  -9.703  1.00  0.00    -0.631 OA
BRANCH  23  25
HETATM   25  O6  UNL     1       2.953   3.485 -12.044  1.00  0.00    -0.307 OA
HETATM   26  H23 UNL     1       2.829   2.551 -12.257  1.00  0.00     0.222 HD
ENDBRANCH  23  25
BRANCH  23  27
HETATM   27  O7  UNL     1       2.474   4.846 -10.036  1.00  0.00    -0.195 OA
BRANCH  27  28
HETATM   28  P2  UNL     1       2.260   5.057  -8.471  1.00  0.00     0.401 P 
HETATM   29  O8  UNL     1       0.973   4.569  -7.892  1.00  0.00    -0.631 OA
BRANCH  28  30
HETATM   30  O9  UNL     1       3.559   4.384  -7.830  1.00  0.00    -0.307 OA
HETATM   31  H24 UNL     1       4.150   3.942  -8.487  1.00  0.00     0.222 HD
ENDBRANCH  28  30
BRANCH  28  32
HETATM   32  O10 UNL     1       2.587   6.603  -8.241  1.00  0.00    -0.294 OA
BRANCH  32  33
HETATM   33  C14 UNL     1       2.626   7.127  -6.939  1.00  0.00     0.215 C 
BRANCH  33  34
HETATM   34  C15 UNL     1       2.148   8.574  -7.047  1.00  0.00     0.180 C 
HETATM   35  C16 UNL     1       2.538   9.146  -8.404  1.00  0.00     0.197 C 
HETATM   36  C17 UNL     1       3.475  10.295  -8.082  1.00  0.00     0.199 C 
HETATM   37  C18 UNL     1       3.036  10.682  -6.668  1.00  0.00     0.262 C 
HETATM   38  O11 UNL     1       2.707   9.424  -6.039  1.00  0.00    -0.353 OA
BRANCH  35  39
HETATM   39  O13 UNL     1       1.351   9.587  -9.055  1.00  0.00    -0.286 OA
BRANCH  39  40
HETATM   40  P3  UNL     1       0.930   8.759 -10.356  1.00  0.00     0.391 P 
HETATM   41  O14 UNL     1       0.337   9.600 -11.440  1.00  0.00    -0.632 OA
BRANCH  40  42
HETATM   42  O15 UNL     1       0.004   7.628  -9.705  1.00  0.00    -0.307 OA
HETATM   43  H36 UNL     1      -0.900   7.648 -10.101  1.00  0.00     0.222 HD
ENDBRANCH  40  42
BRANCH  40  44
HETATM   44  O16 UNL     1       2.277   7.979 -10.683  1.00  0.00    -0.307 OA
HETATM   45  H37 UNL     1       3.057   8.386 -10.272  1.00  0.00     0.222 HD
ENDBRANCH  40  44
ENDBRANCH  39  40
ENDBRANCH  35  39
BRANCH  36  46
HETATM   46  O12 UNL     1       3.391  11.301  -9.094  1.00  0.00    -0.388 OA
HETATM   47  H35 UNL     1       3.994  12.030  -8.813  1.00  0.00     0.210 HD
ENDBRANCH  36  46
BRANCH  37  48
HETATM   48  N3  UNL     1       4.095  11.319  -5.911  1.00  0.00    -0.297 N 
HETATM   49  C19 UNL     1       4.224  12.658  -5.626  1.00  0.00     0.188 A 
HETATM   50  N4  UNL     1       5.227  12.900  -4.811  1.00  0.00    -0.346 N 
HETATM   51  C20 UNL     1       5.773  11.656  -4.551  1.00  0.00     0.116 A 
HETATM   52  H4  UNL     1       5.535  13.803  -4.451  1.00  0.00     0.167 HD
HETATM   53  C21 UNL     1       6.832  11.233  -3.729  1.00  0.00     0.109 A 
HETATM   54  C23 UNL     1       5.106  10.672  -5.257  1.00  0.00     0.142 A 
HETATM   55  N5  UNL     1       7.140   9.913  -3.694  1.00  0.00    -0.341 N 
HETATM   56  C22 UNL     1       6.416   9.069  -4.456  1.00  0.00     0.183 A 
HETATM   57  H5  UNL     1       7.899   9.568  -3.107  1.00  0.00     0.167 HD
HETATM   58  N6  UNL     1       5.380   9.355  -5.271  1.00  0.00    -0.336 N 
HETATM   59  H6  UNL     1       4.872   8.665  -5.824  1.00  0.00     0.168 HD
BRANCH  53  60
HETATM   60  N7  UNL     1       7.589  12.098  -2.955  1.00  0.00    -0.287 NA
HETATM   61  H33 UNL     1       8.595  11.972  -3.047  1.00  0.00     0.125 HD
HETATM   62  H34 UNL     1       7.228  12.207  -2.017  1.00  0.00     0.125 HD
ENDBRANCH  53  60
ENDBRANCH  37  48
ENDBRANCH  33  34
ENDBRANCH  32  33
ENDBRANCH  28  32
ENDBRANCH  27  28
ENDBRANCH  23  27
ENDBRANCH  22  23
ENDBRANCH  21  22
ENDBRANCH  18  21
ENDBRANCH  17  18
BRANCH  17  63
HETATM   63  O17 UNL     1       6.206   5.262  -8.205  1.00  0.00    -0.385 OA
HETATM   64  H38 UNL     1       6.484   5.411  -7.286  1.00  0.00     0.210 HD
ENDBRANCH  17  63
ENDBRANCH  14  17
ENDBRANCH  12  13
ENDBRANCH  11  12
ENDBRANCH   8  11
ENDBRANCH   6   7
ENDBRANCH   5   6
ENDBRANCH   4   5
ENDBRANCH   2   4
TORSDOF 27
ENDMDL
