MODEL 1
REMARK VINA RESULT:      -3.5      0.000      0.000
REMARK  2 active torsions:
REMARK  status: ('A' for Active; 'I' for Inactive)
REMARK    1  A    between atoms: C3_3  and  O1_8 
REMARK    2  A    between atoms: C6_6  and  N1_7 
ROOT
HETATM    1  C1  UNL     1     -17.286  -5.159  -3.988  1.00  0.00     0.026 A 
HETATM    2  C2  UNL     1     -17.560  -6.438  -3.497  1.00  0.00     0.038 A 
HETATM    3  C3  UNL     1     -16.766  -6.974  -2.493  1.00  0.00     0.065 A 
HETATM    4  C4  UNL     1     -15.711  -6.242  -1.959  1.00  0.00     0.038 A 
HETATM    5  C5  UNL     1     -15.442  -4.963  -2.456  1.00  0.00     0.026 A 
HETATM    6  C6  UNL     1     -16.194  -4.430  -3.508  1.00  0.00     0.005 A 
ENDROOT
BRANCH   6   7
HETATM    7  N1  UNL     1     -15.995  -3.107  -3.917  1.00  0.00    -0.303 NA
HETATM    8  H5  UNL     1     -15.041  -2.782  -3.797  1.00  0.00     0.124 HD
HETATM    9  H6  UNL     1     -16.675  -2.454  -3.541  1.00  0.00     0.124 HD
ENDBRANCH   6   7
BRANCH   3  10
HETATM   10  O1  UNL     1     -17.066  -8.223  -2.039  1.00  0.00    -0.361 OA
HETATM   11  H7  UNL     1     -17.595  -8.679  -2.714  1.00  0.00     0.217 HD
ENDBRANCH   3  10
TORSDOF 2
ENDMDL
MODEL 2
REMARK VINA RESULT:      -3.4     13.576     13.950
REMARK  2 active torsions:
REMARK  status: ('A' for Active; 'I' for Inactive)
REMARK    1  A    between atoms: C3_3  and  O1_8 
REMARK    2  A    between atoms: C6_6  and  N1_7 
ROOT
HETATM    1  C1  UNL     1      -8.913   3.292  -9.832  1.00  0.00     0.026 A 
HETATM    2  C2  UNL     1      -8.163   2.115  -9.881  1.00  0.00     0.038 A 
HETATM    3  C3  UNL     1      -6.993   2.014  -9.140  1.00  0.00     0.065 A 
HETATM    4  C4  UNL     1      -6.570   3.068  -8.338  1.00  0.00     0.038 A 
HETATM    5  C5  UNL     1      -7.326   4.243  -8.295  1.00  0.00     0.026 A 
HETATM    6  C6  UNL     1      -8.475   4.386  -9.079  1.00  0.00     0.005 A 
ENDROOT
BRANCH   6   7
HETATM    7  N1  UNL     1      -9.288   5.517  -8.940  1.00  0.00    -0.303 NA
HETATM    8  H5  UNL     1      -9.641   5.651  -7.997  1.00  0.00     0.124 HD
HETATM    9  H6  UNL     1     -10.019   5.586  -9.640  1.00  0.00     0.124 HD
ENDBRANCH   6   7
BRANCH   3  10
HETATM   10  O1  UNL     1      -6.291   0.849  -9.212  1.00  0.00    -0.361 OA
HETATM   11  H7  UNL     1      -6.919   0.109  -9.238  1.00  0.00     0.217 HD
ENDBRANCH   3  10
TORSDOF 2
ENDMDL
MODEL 3
REMARK VINA RESULT:      -3.4     13.680     14.164
REMARK  2 active torsions:
REMARK  status: ('A' for Active; 'I' for Inactive)
REMARK    1  A    between atoms: C3_3  and  O1_8 
REMARK    2  A    between atoms: C6_6  and  N1_7 
ROOT
HETATM    1  C1  UNL     1      -6.628   3.108  -8.323  1.00  0.00     0.026 A 
HETATM    2  C2  UNL     1      -7.195   2.128  -9.142  1.00  0.00     0.038 A 
HETATM    3  C3  UNL     1      -8.343   2.416  -9.865  1.00  0.00     0.065 A 
HETATM    4  C4  UNL     1      -8.927   3.676  -9.794  1.00  0.00     0.038 A 
HETATM    5  C5  UNL     1      -8.356   4.651  -8.971  1.00  0.00     0.026 A 
HETATM    6  C6  UNL     1      -7.232   4.362  -8.190  1.00  0.00     0.005 A 
ENDROOT
BRANCH   6   7
HETATM    7  N1  UNL     1      -6.599   5.377  -7.464  1.00  0.00    -0.303 NA
HETATM    8  H5  UNL     1      -7.080   6.270  -7.506  1.00  0.00     0.124 HD
HETATM    9  H6  UNL     1      -5.607   5.463  -7.658  1.00  0.00     0.124 HD
ENDBRANCH   6   7
BRANCH   3  10
HETATM   10  O1  UNL     1      -8.864   1.435 -10.654  1.00  0.00    -0.361 OA
HETATM   11  H7  UNL     1      -8.671   1.648 -11.581  1.00  0.00     0.217 HD
ENDBRANCH   3  10
TORSDOF 2
ENDMDL
MODEL 4
REMARK VINA RESULT:      -3.4     13.710     14.188
REMARK  2 active torsions:
REMARK  status: ('A' for Active; 'I' for Inactive)
REMARK    1  A    between atoms: C3_3  and  O1_8 
REMARK    2  A    between atoms: C6_6  and  N1_7 
ROOT
HETATM    1  C1  UNL     1      -8.809   3.403  -9.825  1.00  0.00     0.026 A 
HETATM    2  C2  UNL     1      -8.268   4.391  -9.000  1.00  0.00     0.038 A 
HETATM    3  C3  UNL     1      -7.141   4.111  -8.240  1.00  0.00     0.065 A 
HETATM    4  C4  UNL     1      -6.536   2.861  -8.306  1.00  0.00     0.038 A 
HETATM    5  C5  UNL     1      -7.084   1.876  -9.133  1.00  0.00     0.026 A 
HETATM    6  C6  UNL     1      -8.253   2.121  -9.861  1.00  0.00     0.005 A 
ENDROOT
BRANCH   6   7
HETATM    7  N1  UNL     1      -8.725   1.172 -10.775  1.00  0.00    -0.303 NA
HETATM    8  H5  UNL     1      -9.241   1.575 -11.551  1.00  0.00     0.124 HD
HETATM    9  H6  UNL     1      -9.218   0.397 -10.344  1.00  0.00     0.124 HD
ENDBRANCH   6   7
BRANCH   3  10
HETATM   10  O1  UNL     1      -6.641   5.102  -7.450  1.00  0.00    -0.361 OA
HETATM   11  H7  UNL     1      -7.373   5.497  -6.948  1.00  0.00     0.217 HD
ENDBRANCH   3  10
TORSDOF 2
ENDMDL
MODEL 5
REMARK VINA RESULT:      -3.3     14.166     14.619
REMARK  2 active torsions:
REMARK  status: ('A' for Active; 'I' for Inactive)
REMARK    1  A    between atoms: C3_3  and  O1_8 
REMARK    2  A    between atoms: C6_6  and  N1_7 
ROOT
HETATM    1  C1  UNL     1      -7.529   2.808  -9.272  1.00  0.00     0.026 A 
HETATM    2  C2  UNL     1      -6.810   3.555  -8.335  1.00  0.00     0.038 A 
HETATM    3  C3  UNL     1      -7.228   4.838  -8.012  1.00  0.00     0.065 A 
HETATM    4  C4  UNL     1      -8.365   5.382  -8.600  1.00  0.00     0.038 A 
HETATM    5  C5  UNL     1      -9.078   4.629  -9.537  1.00  0.00     0.026 A 
HETATM    6  C6  UNL     1      -8.640   3.357  -9.920  1.00  0.00     0.005 A 
ENDROOT
BRANCH   6   7
HETATM    7  N1  UNL     1      -9.424   2.566 -10.767  1.00  0.00    -0.303 NA
HETATM    8  H5  UNL     1      -9.930   3.098 -11.469  1.00  0.00     0.124 HD
HETATM    9  H6  UNL     1     -10.021   1.907 -10.278  1.00  0.00     0.124 HD
ENDBRANCH   6   7
BRANCH   3  10
HETATM   10  O1  UNL     1      -6.501   5.533  -7.092  1.00  0.00    -0.361 OA
HETATM   11  H7  UNL     1      -7.035   6.279  -6.775  1.00  0.00     0.217 HD
ENDBRANCH   3  10
TORSDOF 2
ENDMDL
MODEL 6
REMARK VINA RESULT:      -3.3     13.795     14.204
REMARK  2 active torsions:
REMARK  status: ('A' for Active; 'I' for Inactive)
REMARK    1  A    between atoms: C3_3  and  O1_8 
REMARK    2  A    between atoms: C6_6  and  N1_7 
ROOT
HETATM    1  C1  UNL     1      -8.102   2.091  -9.893  1.00  0.00     0.026 A 
HETATM    2  C2  UNL     1      -8.860   3.260  -9.799  1.00  0.00     0.038 A 
HETATM    3  C3  UNL     1      -8.429   4.295  -8.980  1.00  0.00     0.065 A 
HETATM    4  C4  UNL     1      -7.242   4.184  -8.265  1.00  0.00     0.038 A 
HETATM    5  C5  UNL     1      -6.490   3.010  -8.363  1.00  0.00     0.026 A 
HETATM    6  C6  UNL     1      -6.937   1.934  -9.136  1.00  0.00     0.005 A 
ENDROOT
BRANCH   6   7
HETATM    7  N1  UNL     1      -6.121   0.812  -9.322  1.00  0.00    -0.303 NA
HETATM    8  H5  UNL     1      -6.126   0.457 -10.273  1.00  0.00     0.124 HD
HETATM    9  H6  UNL     1      -6.268   0.079  -8.636  1.00  0.00     0.124 HD
ENDBRANCH   6   7
BRANCH   3  10
HETATM   10  O1  UNL     1      -9.194   5.420  -8.918  1.00  0.00    -0.361 OA
HETATM   11  H7  UNL     1      -8.614   6.181  -8.753  1.00  0.00     0.217 HD
ENDBRANCH   3  10
TORSDOF 2
ENDMDL
MODEL 7
REMARK VINA RESULT:      -2.9     12.760     13.469
REMARK  2 active torsions:
REMARK  status: ('A' for Active; 'I' for Inactive)
REMARK    1  A    between atoms: C3_3  and  O1_8 
REMARK    2  A    between atoms: C6_6  and  N1_7 
ROOT
HETATM    1  C1  UNL     1      -7.653   1.224  -9.083  1.00  0.00     0.026 A 
HETATM    2  C2  UNL     1      -7.471  -0.117  -9.428  1.00  0.00     0.038 A 
HETATM    3  C3  UNL     1      -6.195  -0.662  -9.421  1.00  0.00     0.065 A 
HETATM    4  C4  UNL     1      -5.098   0.110  -9.058  1.00  0.00     0.038 A 
HETATM    5  C5  UNL     1      -5.287   1.453  -8.715  1.00  0.00     0.026 A 
HETATM    6  C6  UNL     1      -6.557   2.035  -8.773  1.00  0.00     0.005 A 
ENDROOT
BRANCH   6   7
HETATM    7  N1  UNL     1      -6.754   3.343  -8.315  1.00  0.00    -0.303 NA
HETATM    8  H5  UNL     1      -5.993   3.694  -7.742  1.00  0.00     0.124 HD
HETATM    9  H6  UNL     1      -7.661   3.495  -7.887  1.00  0.00     0.124 HD
ENDBRANCH   6   7
BRANCH   3  10
HETATM   10  O1  UNL     1      -6.060  -1.975  -9.760  1.00  0.00    -0.361 OA
HETATM   11  H7  UNL     1      -5.500  -2.034 -10.551  1.00  0.00     0.217 HD
ENDBRANCH   3  10
TORSDOF 2
ENDMDL
MODEL 8
REMARK VINA RESULT:      -2.9     13.894     14.256
REMARK  2 active torsions:
REMARK  status: ('A' for Active; 'I' for Inactive)
REMARK    1  A    between atoms: C3_3  and  O1_8 
REMARK    2  A    between atoms: C6_6  and  N1_7 
ROOT
HETATM    1  C1  UNL     1      -7.267   2.639  -9.117  1.00  0.00     0.026 A 
HETATM    2  C2  UNL     1      -7.559   3.884  -8.556  1.00  0.00     0.038 A 
HETATM    3  C3  UNL     1      -8.651   4.606  -9.016  1.00  0.00     0.065 A 
HETATM    4  C4  UNL     1      -9.466   4.095 -10.020  1.00  0.00     0.038 A 
HETATM    5  C5  UNL     1      -9.166   2.849 -10.578  1.00  0.00     0.026 A 
HETATM    6  C6  UNL     1      -8.037   2.132 -10.169  1.00  0.00     0.005 A 
ENDROOT
BRANCH   6   7
HETATM    7  N1  UNL     1      -7.813   0.836 -10.647  1.00  0.00    -0.303 NA
HETATM    8  H5  UNL     1      -8.063   0.713 -11.623  1.00  0.00     0.124 HD
HETATM    9  H6  UNL     1      -8.197   0.108 -10.054  1.00  0.00     0.124 HD
ENDBRANCH   6   7
BRANCH   3  10
HETATM   10  O1  UNL     1      -8.905   5.815  -8.441  1.00  0.00    -0.361 OA
HETATM   11  H7  UNL     1      -8.082   6.330  -8.426  1.00  0.00     0.217 HD
ENDBRANCH   3  10
TORSDOF 2
ENDMDL
MODEL 9
REMARK VINA RESULT:      -2.9     12.941     13.813
REMARK  2 active torsions:
REMARK  status: ('A' for Active; 'I' for Inactive)
REMARK    1  A    between atoms: C3_3  and  O1_8 
REMARK    2  A    between atoms: C6_6  and  N1_7 
ROOT
HETATM    1  C1  UNL     1      -4.991  -0.059  -9.092  1.00  0.00     0.026 A 
HETATM    2  C2  UNL     1      -5.215   1.273  -8.735  1.00  0.00     0.038 A 
HETATM    3  C3  UNL     1      -6.512   1.766  -8.698  1.00  0.00     0.065 A 
HETATM    4  C4  UNL     1      -7.591   0.943  -8.998  1.00  0.00     0.038 A 
HETATM    5  C5  UNL     1      -7.359  -0.389  -9.357  1.00  0.00     0.026 A 
HETATM    6  C6  UNL     1      -6.057  -0.888  -9.456  1.00  0.00     0.005 A 
ENDROOT
BRANCH   6   7
HETATM    7  N1  UNL     1      -5.840  -2.249  -9.699  1.00  0.00    -0.303 NA
HETATM    8  H5  UNL     1      -6.169  -2.854  -8.953  1.00  0.00     0.124 HD
HETATM    9  H6  UNL     1      -4.892  -2.469  -9.985  1.00  0.00     0.124 HD
ENDBRANCH   6   7
BRANCH   3  10
HETATM   10  O1  UNL     1      -6.689   3.069  -8.341  1.00  0.00    -0.361 OA
HETATM   11  H7  UNL     1      -6.500   3.629  -9.111  1.00  0.00     0.217 HD
ENDBRANCH   3  10
TORSDOF 2
ENDMDL
MODEL 10
REMARK VINA RESULT:      -2.8      3.083      3.636
REMARK  2 active torsions:
REMARK  status: ('A' for Active; 'I' for Inactive)
REMARK    1  A    between atoms: C3_3  and  O1_8 
REMARK    2  A    between atoms: C6_6  and  N1_7 
ROOT
HETATM    1  C1  UNL     1     -19.273  -6.575  -3.527  1.00  0.00     0.026 A 
HETATM    2  C2  UNL     1     -18.751  -5.491  -4.235  1.00  0.00     0.038 A 
HETATM    3  C3  UNL     1     -17.391  -5.220  -4.174  1.00  0.00     0.065 A 
HETATM    4  C4  UNL     1     -16.541  -6.028  -3.428  1.00  0.00     0.038 A 
HETATM    5  C5  UNL     1     -17.071  -7.111  -2.720  1.00  0.00     0.026 A 
HETATM    6  C6  UNL     1     -18.447  -7.365  -2.722  1.00  0.00     0.005 A 
ENDROOT
BRANCH   6   7
HETATM    7  N1  UNL     1     -18.951  -8.518  -2.110  1.00  0.00    -0.303 NA
HETATM    8  H5  UNL     1     -18.892  -9.348  -2.692  1.00  0.00     0.124 HD
HETATM    9  H6  UNL     1     -19.872  -8.397  -1.702  1.00  0.00     0.124 HD
ENDBRANCH   6   7
BRANCH   3  10
HETATM   10  O1  UNL     1     -16.920  -4.154  -4.882  1.00  0.00    -0.361 OA
HETATM   11  H7  UNL     1     -16.841  -3.395  -4.282  1.00  0.00     0.217 HD
ENDBRANCH   3  10
TORSDOF 2
ENDMDL
MODEL 11
REMARK VINA RESULT:      -2.8      1.671      2.131
REMARK  2 active torsions:
REMARK  status: ('A' for Active; 'I' for Inactive)
REMARK    1  A    between atoms: C3_3  and  O1_8 
REMARK    2  A    between atoms: C6_6  and  N1_7 
ROOT
HETATM    1  C1  UNL     1     -19.344  -6.083  -3.926  1.00  0.00     0.026 A 
HETATM    2  C2  UNL     1     -18.793  -7.058  -3.091  1.00  0.00     0.038 A 
HETATM    3  C3  UNL     1     -17.428  -7.058  -2.841  1.00  0.00     0.065 A 
HETATM    4  C4  UNL     1     -16.606  -6.086  -3.401  1.00  0.00     0.038 A 
HETATM    5  C5  UNL     1     -17.164  -5.114  -4.236  1.00  0.00     0.026 A 
HETATM    6  C6  UNL     1     -18.528  -5.133  -4.547  1.00  0.00     0.005 A 
ENDROOT
BRANCH   6   7
HETATM    7  N1  UNL     1     -19.097  -4.089  -5.285  1.00  0.00    -0.303 NA
HETATM    8  H5  UNL     1     -19.567  -3.394  -4.714  1.00  0.00     0.124 HD
HETATM    9  H6  UNL     1     -19.669  -4.401  -6.063  1.00  0.00     0.124 HD
ENDBRANCH   6   7
BRANCH   3  10
HETATM   10  O1  UNL     1     -16.929  -8.024  -2.020  1.00  0.00    -0.361 OA
HETATM   11  H7  UNL     1     -17.485  -8.816  -2.099  1.00  0.00     0.217 HD
ENDBRANCH   3  10
TORSDOF 2
ENDMDL
MODEL 12
REMARK VINA RESULT:      -2.8      2.253      3.097
REMARK  2 active torsions:
REMARK  status: ('A' for Active; 'I' for Inactive)
REMARK    1  A    between atoms: C3_3  and  O1_8 
REMARK    2  A    between atoms: C6_6  and  N1_7 
ROOT
HETATM    1  C1  UNL     1     -16.758  -5.598  -3.761  1.00  0.00     0.026 A 
HETATM    2  C2  UNL     1     -16.657  -6.780  -4.498  1.00  0.00     0.038 A 
HETATM    3  C3  UNL     1     -17.050  -6.797  -5.828  1.00  0.00     0.065 A 
HETATM    4  C4  UNL     1     -17.528  -5.643  -6.440  1.00  0.00     0.038 A 
HETATM    5  C5  UNL     1     -17.628  -4.464  -5.696  1.00  0.00     0.026 A 
HETATM    6  C6  UNL     1     -17.292  -4.442  -4.338  1.00  0.00     0.005 A 
ENDROOT
BRANCH   6   7
HETATM    7  N1  UNL     1     -17.282  -3.232  -3.635  1.00  0.00    -0.303 NA
HETATM    8  H5  UNL     1     -17.632  -3.310  -2.685  1.00  0.00     0.124 HD
HETATM    9  H6  UNL     1     -17.704  -2.460  -4.140  1.00  0.00     0.124 HD
ENDBRANCH   6   7
BRANCH   3  10
HETATM   10  O1  UNL     1     -16.933  -7.969  -6.514  1.00  0.00    -0.361 OA
HETATM   11  H7  UNL     1     -17.823  -8.293  -6.728  1.00  0.00     0.217 HD
ENDBRANCH   3  10
TORSDOF 2
ENDMDL
MODEL 13
REMARK VINA RESULT:      -2.7      3.178      3.720
REMARK  2 active torsions:
REMARK  status: ('A' for Active; 'I' for Inactive)
REMARK    1  A    between atoms: C3_3  and  O1_8 
REMARK    2  A    between atoms: C6_6  and  N1_7 
ROOT
HETATM    1  C1  UNL     1     -17.150  -6.093  -6.682  1.00  0.00     0.026 A 
HETATM    2  C2  UNL     1     -17.654  -5.042  -5.913  1.00  0.00     0.038 A 
HETATM    3  C3  UNL     1     -17.523  -5.076  -4.532  1.00  0.00     0.065 A 
HETATM    4  C4  UNL     1     -16.879  -6.139  -3.908  1.00  0.00     0.038 A 
HETATM    5  C5  UNL     1     -16.378  -7.188  -4.685  1.00  0.00     0.026 A 
HETATM    6  C6  UNL     1     -16.552  -7.200  -6.072  1.00  0.00     0.005 A 
ENDROOT
BRANCH   6   7
HETATM    7  N1  UNL     1     -15.944  -8.192  -6.851  1.00  0.00    -0.303 NA
HETATM    8  H5  UNL     1     -15.031  -8.474  -6.510  1.00  0.00     0.124 HD
HETATM    9  H6  UNL     1     -15.940  -7.988  -7.844  1.00  0.00     0.124 HD
ENDBRANCH   6   7
BRANCH   3  10
HETATM   10  O1  UNL     1     -18.026  -4.031  -3.817  1.00  0.00    -0.361 OA
HETATM   11  H7  UNL     1     -18.779  -4.348  -3.292  1.00  0.00     0.217 HD
ENDBRANCH   3  10
TORSDOF 2
ENDMDL
MODEL 14
REMARK VINA RESULT:      -2.7      2.273      2.827
REMARK  2 active torsions:
REMARK  status: ('A' for Active; 'I' for Inactive)
REMARK    1  A    between atoms: C3_3  and  O1_8 
REMARK    2  A    between atoms: C6_6  and  N1_7 
ROOT
HETATM    1  C1  UNL     1     -17.179  -5.208  -3.992  1.00  0.00     0.026 A 
HETATM    2  C2  UNL     1     -16.030  -4.782  -3.322  1.00  0.00     0.038 A 
HETATM    3  C3  UNL     1     -15.459  -5.594  -2.353  1.00  0.00     0.065 A 
HETATM    4  C4  UNL     1     -16.010  -6.836  -2.055  1.00  0.00     0.038 A 
HETATM    5  C5  UNL     1     -17.160  -7.255  -2.729  1.00  0.00     0.026 A 
HETATM    6  C6  UNL     1     -17.784  -6.425  -3.667  1.00  0.00     0.005 A 
ENDROOT
BRANCH   6   7
HETATM    7  N1  UNL     1     -18.863  -6.901  -4.421  1.00  0.00    -0.303 NA
HETATM    8  H5  UNL     1     -18.601  -7.231  -5.345  1.00  0.00     0.124 HD
HETATM    9  H6  UNL     1     -19.655  -6.268  -4.448  1.00  0.00     0.124 HD
ENDBRANCH   6   7
BRANCH   3  10
HETATM   10  O1  UNL     1     -14.338  -5.144  -1.723  1.00  0.00    -0.361 OA
HETATM   11  H7  UNL     1     -14.568  -4.910  -0.809  1.00  0.00     0.217 HD
ENDBRANCH   3  10
TORSDOF 2
ENDMDL
MODEL 15
REMARK VINA RESULT:      -2.7      6.575      7.061
REMARK  2 active torsions:
REMARK  status: ('A' for Active; 'I' for Inactive)
REMARK    1  A    between atoms: C3_3  and  O1_8 
REMARK    2  A    between atoms: C6_6  and  N1_7 
ROOT
HETATM    1  C1  UNL     1     -21.771  -6.106  -0.938  1.00  0.00     0.026 A 
HETATM    2  C2  UNL     1     -22.385  -7.290  -0.524  1.00  0.00     0.038 A 
HETATM    3  C3  UNL     1     -23.359  -7.252   0.463  1.00  0.00     0.065 A 
HETATM    4  C4  UNL     1     -23.742  -6.042   1.033  1.00  0.00     0.038 A 
HETATM    5  C5  UNL     1     -23.122  -4.861   0.615  1.00  0.00     0.026 A 
HETATM    6  C6  UNL     1     -22.097  -4.886  -0.336  1.00  0.00     0.005 A 
ENDROOT
BRANCH   6   7
HETATM    7  N1  UNL     1     -21.567  -3.690  -0.833  1.00  0.00    -0.303 NA
HETATM    8  H5  UNL     1     -20.773  -3.822  -1.453  1.00  0.00     0.124 HD
HETATM    9  H6  UNL     1     -21.388  -2.993  -0.119  1.00  0.00     0.124 HD
ENDBRANCH   6   7
BRANCH   3  10
HETATM   10  O1  UNL     1     -23.936  -8.428   0.837  1.00  0.00    -0.361 OA
HETATM   11  H7  UNL     1     -24.611  -8.665   0.180  1.00  0.00     0.217 HD
ENDBRANCH   3  10
TORSDOF 2
ENDMDL
MODEL 16
REMARK VINA RESULT:      -2.6     11.532     12.154
REMARK  2 active torsions:
REMARK  status: ('A' for Active; 'I' for Inactive)
REMARK    1  A    between atoms: C3_3  and  O1_8 
REMARK    2  A    between atoms: C6_6  and  N1_7 
ROOT
HETATM    1  C1  UNL     1     -13.108   3.296 -10.678  1.00  0.00     0.026 A 
HETATM    2  C2  UNL     1     -13.764   2.073 -10.833  1.00  0.00     0.038 A 
HETATM    3  C3  UNL     1     -13.071   0.980 -11.334  1.00  0.00     0.065 A 
HETATM    4  C4  UNL     1     -11.725   1.087 -11.668  1.00  0.00     0.038 A 
HETATM    5  C5  UNL     1     -11.076   2.316 -11.512  1.00  0.00     0.026 A 
HETATM    6  C6  UNL     1     -11.772   3.443 -11.065  1.00  0.00     0.005 A 
ENDROOT
BRANCH   6   7
HETATM    7  N1  UNL     1     -11.088   4.635 -10.799  1.00  0.00    -0.303 NA
HETATM    8  H5  UNL     1     -10.113   4.498 -10.551  1.00  0.00     0.124 HD
HETATM    9  H6  UNL     1     -11.569   5.249 -10.150  1.00  0.00     0.124 HD
ENDBRANCH   6   7
BRANCH   3  10
HETATM   10  O1  UNL     1     -13.745  -0.197 -11.467  1.00  0.00    -0.361 OA
HETATM   11  H7  UNL     1     -14.139  -0.229 -12.353  1.00  0.00     0.217 HD
ENDBRANCH   3  10
TORSDOF 2
ENDMDL
MODEL 17
REMARK VINA RESULT:      -2.6     11.812     12.552
REMARK  2 active torsions:
REMARK  status: ('A' for Active; 'I' for Inactive)
REMARK    1  A    between atoms: C3_3  and  O1_8 
REMARK    2  A    between atoms: C6_6  and  N1_7 
ROOT
HETATM    1  C1  UNL     1     -13.731   2.181 -10.842  1.00  0.00     0.026 A 
HETATM    2  C2  UNL     1     -13.006   3.365 -10.690  1.00  0.00     0.038 A 
HETATM    3  C3  UNL     1     -11.661   3.397 -11.033  1.00  0.00     0.065 A 
HETATM    4  C4  UNL     1     -11.033   2.265 -11.542  1.00  0.00     0.038 A 
HETATM    5  C5  UNL     1     -11.765   1.083 -11.690  1.00  0.00     0.026 A 
HETATM    6  C6  UNL     1     -13.105   1.015 -11.295  1.00  0.00     0.005 A 
ENDROOT
BRANCH   6   7
HETATM    7  N1  UNL     1     -13.860  -0.134 -11.558  1.00  0.00    -0.303 NA
HETATM    8  H5  UNL     1     -13.917  -0.772 -10.770  1.00  0.00     0.124 HD
HETATM    9  H6  UNL     1     -13.604  -0.605 -12.419  1.00  0.00     0.124 HD
ENDBRANCH   6   7
BRANCH   3  10
HETATM   10  O1  UNL     1     -10.989   4.571 -10.873  1.00  0.00    -0.361 OA
HETATM   11  H7  UNL     1     -11.029   5.067 -11.707  1.00  0.00     0.217 HD
ENDBRANCH   3  10
TORSDOF 2
ENDMDL
MODEL 18
REMARK VINA RESULT:      -2.6     11.863     12.591
REMARK  2 active torsions:
REMARK  status: ('A' for Active; 'I' for Inactive)
REMARK    1  A    between atoms: C3_3  and  O1_8 
REMARK    2  A    between atoms: C6_6  and  N1_7 
ROOT
HETATM    1  C1  UNL     1     -11.758   1.094 -11.680  1.00  0.00     0.026 A 
HETATM    2  C2  UNL     1     -11.036   2.279 -11.518  1.00  0.00     0.038 A 
HETATM    3  C3  UNL     1     -11.672   3.409 -11.024  1.00  0.00     0.065 A 
HETATM    4  C4  UNL     1     -13.017   3.368 -10.673  1.00  0.00     0.038 A 
HETATM    5  C5  UNL     1     -13.733   2.179 -10.839  1.00  0.00     0.026 A 
HETATM    6  C6  UNL     1     -13.125   1.047 -11.391  1.00  0.00     0.005 A 
ENDROOT
BRANCH   6   7
HETATM    7  N1  UNL     1     -13.815  -0.170 -11.442  1.00  0.00    -0.303 NA
HETATM    8  H5  UNL     1     -14.573  -0.237 -10.770  1.00  0.00     0.124 HD
HETATM    9  H6  UNL     1     -13.212  -0.985 -11.427  1.00  0.00     0.124 HD
ENDBRANCH   6   7
BRANCH   3  10
HETATM   10  O1  UNL     1     -10.933   4.544 -10.877  1.00  0.00    -0.361 OA
HETATM   11  H7  UNL     1     -11.240   5.199 -11.525  1.00  0.00     0.217 HD
ENDBRANCH   3  10
TORSDOF 2
ENDMDL
MODEL 19
REMARK VINA RESULT:      -2.5      3.585      4.351
REMARK  2 active torsions:
REMARK  status: ('A' for Active; 'I' for Inactive)
REMARK    1  A    between atoms: C3_3  and  O1_8 
REMARK    2  A    between atoms: C6_6  and  N1_7 
ROOT
HETATM    1  C1  UNL     1     -17.784  -5.220  -6.728  1.00  0.00     0.026 A 
HETATM    2  C2  UNL     1     -18.193  -3.888  -6.638  1.00  0.00     0.038 A 
HETATM    3  C3  UNL     1     -18.020  -3.193  -5.449  1.00  0.00     0.065 A 
HETATM    4  C4  UNL     1     -17.426  -3.807  -4.351  1.00  0.00     0.038 A 
HETATM    5  C5  UNL     1     -17.020  -5.141  -4.448  1.00  0.00     0.026 A 
HETATM    6  C6  UNL     1     -17.240  -5.875  -5.618  1.00  0.00     0.005 A 
ENDROOT
BRANCH   6   7
HETATM    7  N1  UNL     1     -16.724  -7.169  -5.746  1.00  0.00    -0.303 NA
HETATM    8  H5  UNL     1     -15.890  -7.333  -5.190  1.00  0.00     0.124 HD
HETATM    9  H6  UNL     1     -16.613  -7.474  -6.707  1.00  0.00     0.124 HD
ENDBRANCH   6   7
BRANCH   3  10
HETATM   10  O1  UNL     1     -18.430  -1.895  -5.402  1.00  0.00    -0.361 OA
HETATM   11  H7  UNL     1     -18.854  -1.735  -4.544  1.00  0.00     0.217 HD
ENDBRANCH   3  10
TORSDOF 2
ENDMDL
MODEL 20
REMARK VINA RESULT:      -2.4     11.601     12.326
REMARK  2 active torsions:
REMARK  status: ('A' for Active; 'I' for Inactive)
REMARK    1  A    between atoms: C3_3  and  O1_8 
REMARK    2  A    between atoms: C6_6  and  N1_7 
ROOT
HETATM    1  C1  UNL     1     -13.795   3.972 -10.772  1.00  0.00     0.026 A 
HETATM    2  C2  UNL     1     -13.267   2.694 -10.575  1.00  0.00     0.038 A 
HETATM    3  C3  UNL     1     -13.882   1.598 -11.164  1.00  0.00     0.065 A 
HETATM    4  C4  UNL     1     -15.010   1.762 -11.961  1.00  0.00     0.038 A 
HETATM    5  C5  UNL     1     -15.533   3.045 -12.152  1.00  0.00     0.026 A 
HETATM    6  C6  UNL     1     -14.962   4.154 -11.520  1.00  0.00     0.005 A 
ENDROOT
BRANCH   6   7
HETATM    7  N1  UNL     1     -15.419   5.444 -11.812  1.00  0.00    -0.303 NA
HETATM    8  H5  UNL     1     -14.893   5.907 -12.546  1.00  0.00     0.124 HD
HETATM    9  H6  UNL     1     -15.539   6.032 -10.994  1.00  0.00     0.124 HD
ENDBRANCH   6   7
BRANCH   3  10
HETATM   10  O1  UNL     1     -13.336   0.368 -10.950  1.00  0.00    -0.361 OA
HETATM   11  H7  UNL     1     -14.040  -0.298 -11.007  1.00  0.00     0.217 HD
ENDBRANCH   3  10
TORSDOF 2
ENDMDL
