MODEL 1
REMARK VINA RESULT:      -3.6      0.000      0.000
REMARK  2 active torsions:
REMARK  status: ('A' for Active; 'I' for Inactive)
REMARK    1  A    between atoms: C3_3  and  O1_8 
REMARK    2  A    between atoms: C6_6  and  N1_7 
ROOT
HETATM    1  C1  UNL     1     -15.842  -3.945  -3.190  1.00  0.00     0.026 A 
HETATM    2  C2  UNL     1     -15.393  -4.918  -2.295  1.00  0.00     0.038 A 
HETATM    3  C3  UNL     1     -15.934  -6.195  -2.338  1.00  0.00     0.065 A 
HETATM    4  C4  UNL     1     -16.907  -6.520  -3.277  1.00  0.00     0.038 A 
HETATM    5  C5  UNL     1     -17.353  -5.541  -4.169  1.00  0.00     0.026 A 
HETATM    6  C6  UNL     1     -16.862  -4.233  -4.102  1.00  0.00     0.005 A 
ENDROOT
BRANCH   6   7
HETATM    7  N1  UNL     1     -17.225  -3.293  -5.074  1.00  0.00    -0.303 NA
HETATM    8  H5  UNL     1     -16.779  -3.443  -5.973  1.00  0.00     0.124 HD
HETATM    9  H6  UNL     1     -17.152  -2.331  -4.762  1.00  0.00     0.124 HD
ENDBRANCH   6   7
BRANCH   3  10
HETATM   10  O1  UNL     1     -15.468  -7.117  -1.450  1.00  0.00    -0.361 OA
HETATM   11  H7  UNL     1     -16.184  -7.347  -0.837  1.00  0.00     0.217 HD
ENDBRANCH   3  10
TORSDOF 2
ENDMDL
MODEL 2
REMARK VINA RESULT:      -3.5      2.779      3.264
REMARK  2 active torsions:
REMARK  status: ('A' for Active; 'I' for Inactive)
REMARK    1  A    between atoms: C3_3  and  O1_8 
REMARK    2  A    between atoms: C6_6  and  N1_7 
ROOT
HETATM    1  C1  UNL     1     -15.444  -4.835  -2.352  1.00  0.00     0.026 A 
HETATM    2  C2  UNL     1     -15.876  -3.853  -3.247  1.00  0.00     0.038 A 
HETATM    3  C3  UNL     1     -16.843  -4.163  -4.193  1.00  0.00     0.065 A 
HETATM    4  C4  UNL     1     -17.398  -5.436  -4.247  1.00  0.00     0.038 A 
HETATM    5  C5  UNL     1     -16.960  -6.414  -3.349  1.00  0.00     0.026 A 
HETATM    6  C6  UNL     1     -15.944  -6.138  -2.428  1.00  0.00     0.005 A 
ENDROOT
BRANCH   6   7
HETATM    7  N1  UNL     1     -15.597  -7.084  -1.457  1.00  0.00    -0.303 NA
HETATM    8  H5  UNL     1     -15.683  -6.742  -0.505  1.00  0.00     0.124 HD
HETATM    9  H6  UNL     1     -14.706  -7.538  -1.626  1.00  0.00     0.124 HD
ENDBRANCH   6   7
BRANCH   3  10
HETATM   10  O1  UNL     1     -17.240  -3.177  -5.046  1.00  0.00    -0.361 OA
HETATM   11  H7  UNL     1     -17.259  -2.336  -4.561  1.00  0.00     0.217 HD
ENDBRANCH   3  10
TORSDOF 2
ENDMDL
MODEL 3
REMARK VINA RESULT:      -3.5      0.855      1.914
REMARK  2 active torsions:
REMARK  status: ('A' for Active; 'I' for Inactive)
REMARK    1  A    between atoms: C3_3  and  O1_8 
REMARK    2  A    between atoms: C6_6  and  N1_7 
ROOT
HETATM    1  C1  UNL     1     -17.838  -5.451  -4.377  1.00  0.00     0.026 A 
HETATM    2  C2  UNL     1     -17.816  -6.659  -3.677  1.00  0.00     0.038 A 
HETATM    3  C3  UNL     1     -16.849  -6.873  -2.704  1.00  0.00     0.065 A 
HETATM    4  C4  UNL     1     -15.912  -5.889  -2.410  1.00  0.00     0.038 A 
HETATM    5  C5  UNL     1     -15.939  -4.683  -3.116  1.00  0.00     0.026 A 
HETATM    6  C6  UNL     1     -16.868  -4.472  -4.140  1.00  0.00     0.005 A 
ENDROOT
BRANCH   6   7
HETATM    7  N1  UNL     1     -16.964  -3.220  -4.758  1.00  0.00    -0.303 NA
HETATM    8  H5  UNL     1     -16.302  -3.088  -5.517  1.00  0.00     0.124 HD
HETATM    9  H6  UNL     1     -16.966  -2.441  -4.108  1.00  0.00     0.124 HD
ENDBRANCH   6   7
BRANCH   3  10
HETATM   10  O1  UNL     1     -16.863  -8.063  -2.041  1.00  0.00    -0.361 OA
HETATM   11  H7  UNL     1     -17.612  -8.064  -1.423  1.00  0.00     0.217 HD
ENDBRANCH   3  10
TORSDOF 2
ENDMDL
MODEL 4
REMARK VINA RESULT:      -3.4      2.809      3.673
REMARK  2 active torsions:
REMARK  status: ('A' for Active; 'I' for Inactive)
REMARK    1  A    between atoms: C3_3  and  O1_8 
REMARK    2  A    between atoms: C6_6  and  N1_7 
ROOT
HETATM    1  C1  UNL     1     -17.892  -6.460  -3.707  1.00  0.00     0.026 A 
HETATM    2  C2  UNL     1     -17.920  -5.252  -4.408  1.00  0.00     0.038 A 
HETATM    3  C3  UNL     1     -16.955  -4.288  -4.155  1.00  0.00     0.065 A 
HETATM    4  C4  UNL     1     -15.951  -4.519  -3.221  1.00  0.00     0.038 A 
HETATM    5  C5  UNL     1     -15.931  -5.729  -2.522  1.00  0.00     0.026 A 
HETATM    6  C6  UNL     1     -16.928  -6.689  -2.720  1.00  0.00     0.005 A 
ENDROOT
BRANCH   6   7
HETATM    7  N1  UNL     1     -16.833  -7.942  -2.105  1.00  0.00    -0.303 NA
HETATM    8  H5  UNL     1     -17.413  -8.035  -1.277  1.00  0.00     0.124 HD
HETATM    9  H6  UNL     1     -15.879  -8.250  -1.945  1.00  0.00     0.124 HD
ENDBRANCH   6   7
BRANCH   3  10
HETATM   10  O1  UNL     1     -17.014  -3.125  -4.863  1.00  0.00    -0.361 OA
HETATM   11  H7  UNL     1     -17.938  -2.831  -4.899  1.00  0.00     0.217 HD
ENDBRANCH   3  10
TORSDOF 2
ENDMDL
MODEL 5
REMARK VINA RESULT:      -3.2      2.094      2.810
REMARK  2 active torsions:
REMARK  status: ('A' for Active; 'I' for Inactive)
REMARK    1  A    between atoms: C3_3  and  O1_8 
REMARK    2  A    between atoms: C6_6  and  N1_7 
ROOT
HETATM    1  C1  UNL     1     -16.459  -7.299  -5.659  1.00  0.00     0.026 A 
HETATM    2  C2  UNL     1     -16.234  -7.226  -4.283  1.00  0.00     0.038 A 
HETATM    3  C3  UNL     1     -16.644  -6.103  -3.578  1.00  0.00     0.065 A 
HETATM    4  C4  UNL     1     -17.292  -5.057  -4.227  1.00  0.00     0.038 A 
HETATM    5  C5  UNL     1     -17.512  -5.137  -5.605  1.00  0.00     0.026 A 
HETATM    6  C6  UNL     1     -17.054  -6.234  -6.342  1.00  0.00     0.005 A 
ENDROOT
BRANCH   6   7
HETATM    7  N1  UNL     1     -17.384  -6.360  -7.696  1.00  0.00    -0.303 NA
HETATM    8  H5  UNL     1     -17.635  -5.481  -8.138  1.00  0.00     0.124 HD
HETATM    9  H6  UNL     1     -18.057  -7.095  -7.888  1.00  0.00     0.124 HD
ENDBRANCH   6   7
BRANCH   3  10
HETATM   10  O1  UNL     1     -16.409  -6.070  -2.236  1.00  0.00    -0.361 OA
HETATM   11  H7  UNL     1     -16.547  -5.164  -1.919  1.00  0.00     0.217 HD
ENDBRANCH   3  10
TORSDOF 2
ENDMDL
MODEL 6
REMARK VINA RESULT:      -3.1      3.185      3.994
REMARK  2 active torsions:
REMARK  status: ('A' for Active; 'I' for Inactive)
REMARK    1  A    between atoms: C3_3  and  O1_8 
REMARK    2  A    between atoms: C6_6  and  N1_7 
ROOT
HETATM    1  C1  UNL     1     -16.278  -7.299  -4.578  1.00  0.00     0.026 A 
HETATM    2  C2  UNL     1     -16.470  -7.264  -5.961  1.00  0.00     0.038 A 
HETATM    3  C3  UNL     1     -17.096  -6.169  -6.541  1.00  0.00     0.065 A 
HETATM    4  C4  UNL     1     -17.519  -5.099  -5.759  1.00  0.00     0.038 A 
HETATM    5  C5  UNL     1     -17.324  -5.142  -4.376  1.00  0.00     0.026 A 
HETATM    6  C6  UNL     1     -16.748  -6.262  -3.767  1.00  0.00     0.005 A 
ENDROOT
BRANCH   6   7
HETATM    7  N1  UNL     1     -16.449  -6.245  -2.400  1.00  0.00    -0.303 NA
HETATM    8  H5  UNL     1     -17.239  -5.994  -1.813  1.00  0.00     0.124 HD
HETATM    9  H6  UNL     1     -15.613  -5.720  -2.169  1.00  0.00     0.124 HD
ENDBRANCH   6   7
BRANCH   3  10
HETATM   10  O1  UNL     1     -17.263  -6.171  -7.893  1.00  0.00    -0.361 OA
HETATM   11  H7  UNL     1     -16.398  -6.037  -8.312  1.00  0.00     0.217 HD
ENDBRANCH   3  10
TORSDOF 2
ENDMDL
MODEL 7
REMARK VINA RESULT:      -2.8      2.690      3.373
REMARK  2 active torsions:
REMARK  status: ('A' for Active; 'I' for Inactive)
REMARK    1  A    between atoms: C3_3  and  O1_8 
REMARK    2  A    between atoms: C6_6  and  N1_7 
ROOT
HETATM    1  C1  UNL     1     -17.504  -6.603  -3.597  1.00  0.00     0.026 A 
HETATM    2  C2  UNL     1     -16.631  -5.513  -3.587  1.00  0.00     0.038 A 
HETATM    3  C3  UNL     1     -17.038  -4.301  -4.127  1.00  0.00     0.065 A 
HETATM    4  C4  UNL     1     -18.313  -4.158  -4.664  1.00  0.00     0.038 A 
HETATM    5  C5  UNL     1     -19.180  -5.254  -4.671  1.00  0.00     0.026 A 
HETATM    6  C6  UNL     1     -18.768  -6.498  -4.185  1.00  0.00     0.005 A 
ENDROOT
BRANCH   6   7
HETATM    7  N1  UNL     1     -19.681  -7.555  -4.088  1.00  0.00    -0.303 NA
HETATM    8  H5  UNL     1     -19.732  -8.128  -4.924  1.00  0.00     0.124 HD
HETATM    9  H6  UNL     1     -20.597  -7.276  -3.755  1.00  0.00     0.124 HD
ENDBRANCH   6   7
BRANCH   3  10
HETATM   10  O1  UNL     1     -16.158  -3.261  -4.096  1.00  0.00    -0.361 OA
HETATM   11  H7  UNL     1     -16.088  -2.942  -3.182  1.00  0.00     0.217 HD
ENDBRANCH   3  10
TORSDOF 2
ENDMDL
MODEL 8
REMARK VINA RESULT:      -2.7      3.300      4.227
REMARK  2 active torsions:
REMARK  status: ('A' for Active; 'I' for Inactive)
REMARK    1  A    between atoms: C3_3  and  O1_8 
REMARK    2  A    between atoms: C6_6  and  N1_7 
ROOT
HETATM    1  C1  UNL     1     -18.844  -7.270  -2.876  1.00  0.00     0.026 A 
HETATM    2  C2  UNL     1     -19.746  -6.460  -3.570  1.00  0.00     0.038 A 
HETATM    3  C3  UNL     1     -19.277  -5.382  -4.306  1.00  0.00     0.065 A 
HETATM    4  C4  UNL     1     -17.915  -5.109  -4.373  1.00  0.00     0.038 A 
HETATM    5  C5  UNL     1     -17.018  -5.924  -3.676  1.00  0.00     0.026 A 
HETATM    6  C6  UNL     1     -17.476  -6.979  -2.881  1.00  0.00     0.005 A 
ENDROOT
BRANCH   6   7
HETATM    7  N1  UNL     1     -16.566  -7.859  -2.284  1.00  0.00    -0.303 NA
HETATM    8  H5  UNL     1     -16.883  -8.824  -2.266  1.00  0.00     0.124 HD
HETATM    9  H6  UNL     1     -16.226  -7.547  -1.381  1.00  0.00     0.124 HD
ENDBRANCH   6   7
BRANCH   3  10
HETATM   10  O1  UNL     1     -20.188  -4.617  -4.970  1.00  0.00    -0.361 OA
HETATM   11  H7  UNL     1     -21.002  -4.577  -4.443  1.00  0.00     0.217 HD
ENDBRANCH   3  10
TORSDOF 2
ENDMDL
MODEL 9
REMARK VINA RESULT:      -2.7      2.044      2.558
REMARK  2 active torsions:
REMARK  status: ('A' for Active; 'I' for Inactive)
REMARK    1  A    between atoms: C3_3  and  O1_8 
REMARK    2  A    between atoms: C6_6  and  N1_7 
ROOT
HETATM    1  C1  UNL     1     -17.222  -3.751  -4.409  1.00  0.00     0.026 A 
HETATM    2  C2  UNL     1     -17.064  -5.101  -4.090  1.00  0.00     0.038 A 
HETATM    3  C3  UNL     1     -18.182  -5.911  -3.954  1.00  0.00     0.065 A 
HETATM    4  C4  UNL     1     -19.459  -5.395  -4.149  1.00  0.00     0.038 A 
HETATM    5  C5  UNL     1     -19.609  -4.042  -4.467  1.00  0.00     0.026 A 
HETATM    6  C6  UNL     1     -18.498  -3.196  -4.550  1.00  0.00     0.005 A 
ENDROOT
BRANCH   6   7
HETATM    7  N1  UNL     1     -18.649  -1.875  -4.985  1.00  0.00    -0.303 NA
HETATM    8  H5  UNL     1     -17.800  -1.322  -4.912  1.00  0.00     0.124 HD
HETATM    9  H6  UNL     1     -19.453  -1.401  -4.587  1.00  0.00     0.124 HD
ENDBRANCH   6   7
BRANCH   3  10
HETATM   10  O1  UNL     1     -17.986  -7.224  -3.645  1.00  0.00    -0.361 OA
HETATM   11  H7  UNL     1     -17.315  -7.587  -4.246  1.00  0.00     0.217 HD
ENDBRANCH   3  10
TORSDOF 2
ENDMDL
MODEL 10
REMARK VINA RESULT:      -2.5      5.124      6.032
REMARK  2 active torsions:
REMARK  status: ('A' for Active; 'I' for Inactive)
REMARK    1  A    between atoms: C3_3  and  O1_8 
REMARK    2  A    between atoms: C6_6  and  N1_7 
ROOT
HETATM    1  C1  UNL     1     -19.545  -2.800  -3.760  1.00  0.00     0.026 A 
HETATM    2  C2  UNL     1     -20.763  -2.337  -3.258  1.00  0.00     0.038 A 
HETATM    3  C3  UNL     1     -21.364  -1.224  -3.829  1.00  0.00     0.065 A 
HETATM    4  C4  UNL     1     -20.773  -0.576  -4.908  1.00  0.00     0.038 A 
HETATM    5  C5  UNL     1     -19.553  -1.045  -5.405  1.00  0.00     0.026 A 
HETATM    6  C6  UNL     1     -18.903  -2.129  -4.805  1.00  0.00     0.005 A 
ENDROOT
BRANCH   6   7
HETATM    7  N1  UNL     1     -17.746  -2.663  -5.382  1.00  0.00    -0.303 NA
HETATM    8  H5  UNL     1     -17.733  -3.678  -5.406  1.00  0.00     0.124 HD
HETATM    9  H6  UNL     1     -16.885  -2.275  -5.011  1.00  0.00     0.124 HD
ENDBRANCH   6   7
BRANCH   3  10
HETATM   10  O1  UNL     1     -22.553  -0.805  -3.312  1.00  0.00    -0.361 OA
HETATM   11  H7  UNL     1     -23.272  -1.200  -3.830  1.00  0.00     0.217 HD
ENDBRANCH   3  10
TORSDOF 2
ENDMDL
MODEL 11
REMARK VINA RESULT:      -2.5      4.888      5.670
REMARK  2 active torsions:
REMARK  status: ('A' for Active; 'I' for Inactive)
REMARK    1  A    between atoms: C3_3  and  O1_8 
REMARK    2  A    between atoms: C6_6  and  N1_7 
ROOT
HETATM    1  C1  UNL     1     -21.626  -0.963  -4.111  1.00  0.00     0.026 A 
HETATM    2  C2  UNL     1     -21.670  -2.154  -3.382  1.00  0.00     0.038 A 
HETATM    3  C3  UNL     1     -20.625  -3.061  -3.483  1.00  0.00     0.065 A 
HETATM    4  C4  UNL     1     -19.525  -2.788  -4.289  1.00  0.00     0.038 A 
HETATM    5  C5  UNL     1     -19.489  -1.594  -5.017  1.00  0.00     0.026 A 
HETATM    6  C6  UNL     1     -20.559  -0.695  -4.974  1.00  0.00     0.005 A 
ENDROOT
BRANCH   6   7
HETATM    7  N1  UNL     1     -20.461   0.548  -5.610  1.00  0.00    -0.303 NA
HETATM    8  H5  UNL     1     -19.509   0.813  -5.842  1.00  0.00     0.124 HD
HETATM    9  H6  UNL     1     -20.965   1.291  -5.138  1.00  0.00     0.124 HD
ENDBRANCH   6   7
BRANCH   3  10
HETATM   10  O1  UNL     1     -20.704  -4.210  -2.754  1.00  0.00    -0.361 OA
HETATM   11  H7  UNL     1     -21.604  -4.563  -2.830  1.00  0.00     0.217 HD
ENDBRANCH   3  10
TORSDOF 2
ENDMDL
MODEL 12
REMARK VINA RESULT:      -2.5      3.635      4.485
REMARK  2 active torsions:
REMARK  status: ('A' for Active; 'I' for Inactive)
REMARK    1  A    between atoms: C3_3  and  O1_8 
REMARK    2  A    between atoms: C6_6  and  N1_7 
ROOT
HETATM    1  C1  UNL     1     -19.806  -5.097  -4.106  1.00  0.00     0.026 A 
HETATM    2  C2  UNL     1     -18.530  -4.756  -4.561  1.00  0.00     0.038 A 
HETATM    3  C3  UNL     1     -18.130  -3.427  -4.553  1.00  0.00     0.065 A 
HETATM    4  C4  UNL     1     -18.981  -2.434  -4.082  1.00  0.00     0.038 A 
HETATM    5  C5  UNL     1     -20.257  -2.783  -3.629  1.00  0.00     0.026 A 
HETATM    6  C6  UNL     1     -20.700  -4.108  -3.683  1.00  0.00     0.005 A 
ENDROOT
BRANCH   6   7
HETATM    7  N1  UNL     1     -21.930  -4.464  -3.119  1.00  0.00    -0.303 NA
HETATM    8  H5  UNL     1     -22.501  -5.049  -3.721  1.00  0.00     0.124 HD
HETATM    9  H6  UNL     1     -22.449  -3.680  -2.737  1.00  0.00     0.124 HD
ENDBRANCH   6   7
BRANCH   3  10
HETATM   10  O1  UNL     1     -16.877  -3.135  -5.003  1.00  0.00    -0.361 OA
HETATM   11  H7  UNL     1     -16.949  -2.488  -5.722  1.00  0.00     0.217 HD
ENDBRANCH   3  10
TORSDOF 2
ENDMDL
MODEL 13
REMARK VINA RESULT:      -2.3      5.677      6.512
REMARK  2 active torsions:
REMARK  status: ('A' for Active; 'I' for Inactive)
REMARK    1  A    between atoms: C3_3  and  O1_8 
REMARK    2  A    between atoms: C6_6  and  N1_7 
ROOT
HETATM    1  C1  UNL     1     -19.828  -2.915  -4.280  1.00  0.00     0.026 A 
HETATM    2  C2  UNL     1     -19.805  -1.689  -4.947  1.00  0.00     0.038 A 
HETATM    3  C3  UNL     1     -20.830  -0.775  -4.742  1.00  0.00     0.065 A 
HETATM    4  C4  UNL     1     -21.871  -1.064  -3.866  1.00  0.00     0.038 A 
HETATM    5  C5  UNL     1     -21.888  -2.295  -3.203  1.00  0.00     0.026 A 
HETATM    6  C6  UNL     1     -20.896  -3.251  -3.441  1.00  0.00     0.005 A 
ENDROOT
BRANCH   6   7
HETATM    7  N1  UNL     1     -20.856  -4.428  -2.686  1.00  0.00    -0.303 NA
HETATM    8  H5  UNL     1     -20.939  -4.274  -1.686  1.00  0.00     0.124 HD
HETATM    9  H6  UNL     1     -20.081  -5.040  -2.919  1.00  0.00     0.124 HD
ENDBRANCH   6   7
BRANCH   3  10
HETATM   10  O1  UNL     1     -20.770   0.411  -5.409  1.00  0.00    -0.361 OA
HETATM   11  H7  UNL     1     -21.519   0.962  -5.130  1.00  0.00     0.217 HD
ENDBRANCH   3  10
TORSDOF 2
ENDMDL
MODEL 14
REMARK VINA RESULT:      -2.3      4.836      5.776
REMARK  2 active torsions:
REMARK  status: ('A' for Active; 'I' for Inactive)
REMARK    1  A    between atoms: C3_3  and  O1_8 
REMARK    2  A    between atoms: C6_6  and  N1_7 
ROOT
HETATM    1  C1  UNL     1     -20.903  -3.553  -3.717  1.00  0.00     0.026 A 
HETATM    2  C2  UNL     1     -21.328  -2.254  -4.005  1.00  0.00     0.038 A 
HETATM    3  C3  UNL     1     -20.457  -1.367  -4.622  1.00  0.00     0.065 A 
HETATM    4  C4  UNL     1     -19.171  -1.764  -4.971  1.00  0.00     0.038 A 
HETATM    5  C5  UNL     1     -18.753  -3.065  -4.679  1.00  0.00     0.026 A 
HETATM    6  C6  UNL     1     -19.596  -3.955  -4.005  1.00  0.00     0.005 A 
ENDROOT
BRANCH   6   7
HETATM    7  N1  UNL     1     -19.212  -5.289  -3.824  1.00  0.00    -0.303 NA
HETATM    8  H5  UNL     1     -19.781  -5.951  -4.343  1.00  0.00     0.124 HD
HETATM    9  H6  UNL     1     -19.100  -5.555  -2.851  1.00  0.00     0.124 HD
ENDBRANCH   6   7
BRANCH   3  10
HETATM   10  O1  UNL     1     -20.910  -0.109  -4.889  1.00  0.00    -0.361 OA
HETATM   11  H7  UNL     1     -21.398   0.215  -4.115  1.00  0.00     0.217 HD
ENDBRANCH   3  10
TORSDOF 2
ENDMDL
MODEL 15
REMARK VINA RESULT:      -2.2      6.685      7.622
REMARK  2 active torsions:
REMARK  status: ('A' for Active; 'I' for Inactive)
REMARK    1  A    between atoms: C3_3  and  O1_8 
REMARK    2  A    between atoms: C6_6  and  N1_7 
ROOT
HETATM    1  C1  UNL     1     -19.586   0.025  -5.712  1.00  0.00     0.026 A 
HETATM    2  C2  UNL     1     -20.677   0.856  -5.978  1.00  0.00     0.038 A 
HETATM    3  C3  UNL     1     -21.951   0.460  -5.599  1.00  0.00     0.065 A 
HETATM    4  C4  UNL     1     -22.152  -0.748  -4.942  1.00  0.00     0.038 A 
HETATM    5  C5  UNL     1     -21.055  -1.576  -4.680  1.00  0.00     0.026 A 
HETATM    6  C6  UNL     1     -19.771  -1.222  -5.106  1.00  0.00     0.005 A 
ENDROOT
BRANCH   6   7
HETATM    7  N1  UNL     1     -18.667  -1.997  -4.735  1.00  0.00    -0.303 NA
HETATM    8  H5  UNL     1     -17.788  -1.665  -5.120  1.00  0.00     0.124 HD
HETATM    9  H6  UNL     1     -18.799  -2.993  -4.876  1.00  0.00     0.124 HD
ENDBRANCH   6   7
BRANCH   3  10
HETATM   10  O1  UNL     1     -22.989   1.300  -5.875  1.00  0.00    -0.361 OA
HETATM   11  H7  UNL     1     -23.086   1.367  -6.838  1.00  0.00     0.217 HD
ENDBRANCH   3  10
TORSDOF 2
ENDMDL
MODEL 16
REMARK VINA RESULT:      -2.2      9.458     10.258
REMARK  2 active torsions:
REMARK  status: ('A' for Active; 'I' for Inactive)
REMARK    1  A    between atoms: C3_3  and  O1_8 
REMARK    2  A    between atoms: C6_6  and  N1_7 
ROOT
HETATM    1  C1  UNL     1     -17.686  -2.609 -13.682  1.00  0.00     0.026 A 
HETATM    2  C2  UNL     1     -17.702  -3.310 -12.475  1.00  0.00     0.038 A 
HETATM    3  C3  UNL     1     -16.509  -3.743 -11.915  1.00  0.00     0.065 A 
HETATM    4  C4  UNL     1     -15.295  -3.470 -12.537  1.00  0.00     0.038 A 
HETATM    5  C5  UNL     1     -15.287  -2.769 -13.746  1.00  0.00     0.026 A 
HETATM    6  C6  UNL     1     -16.483  -2.376 -14.355  1.00  0.00     0.005 A 
ENDROOT
BRANCH   6   7
HETATM    7  N1  UNL     1     -16.460  -1.573 -15.501  1.00  0.00    -0.303 NA
HETATM    8  H5  UNL     1     -15.820  -0.787 -15.436  1.00  0.00     0.124 HD
HETATM    9  H6  UNL     1     -17.379  -1.295 -15.827  1.00  0.00     0.124 HD
ENDBRANCH   6   7
BRANCH   3  10
HETATM   10  O1  UNL     1     -16.566  -4.422 -10.735  1.00  0.00    -0.361 OA
HETATM   11  H7  UNL     1     -16.344  -5.352 -10.901  1.00  0.00     0.217 HD
ENDBRANCH   3  10
TORSDOF 2
ENDMDL
MODEL 17
REMARK VINA RESULT:      -2.2      3.754      4.731
REMARK  2 active torsions:
REMARK  status: ('A' for Active; 'I' for Inactive)
REMARK    1  A    between atoms: C3_3  and  O1_8 
REMARK    2  A    between atoms: C6_6  and  N1_7 
ROOT
HETATM    1  C1  UNL     1     -20.090  -7.846  -4.824  1.00  0.00     0.026 A 
HETATM    2  C2  UNL     1     -18.952  -7.146  -5.231  1.00  0.00     0.038 A 
HETATM    3  C3  UNL     1     -17.978  -6.816  -4.298  1.00  0.00     0.065 A 
HETATM    4  C4  UNL     1     -18.118  -7.189  -2.966  1.00  0.00     0.038 A 
HETATM    5  C5  UNL     1     -19.261  -7.888  -2.567  1.00  0.00     0.026 A 
HETATM    6  C6  UNL     1     -20.280  -8.178  -3.479  1.00  0.00     0.005 A 
ENDROOT
BRANCH   6   7
HETATM    7  N1  UNL     1     -21.362  -8.980  -3.097  1.00  0.00    -0.303 NA
HETATM    8  H5  UNL     1     -21.606  -8.894  -2.115  1.00  0.00     0.124 HD
HETATM    9  H6  UNL     1     -21.280  -9.947  -3.392  1.00  0.00     0.124 HD
ENDBRANCH   6   7
BRANCH   3  10
HETATM   10  O1  UNL     1     -16.881  -6.135  -4.735  1.00  0.00    -0.361 OA
HETATM   11  H7  UNL     1     -17.177  -5.335  -5.196  1.00  0.00     0.217 HD
ENDBRANCH   3  10
TORSDOF 2
ENDMDL
MODEL 18
REMARK VINA RESULT:      -2.2      9.901     10.800
REMARK  2 active torsions:
REMARK  status: ('A' for Active; 'I' for Inactive)
REMARK    1  A    between atoms: C3_3  and  O1_8 
REMARK    2  A    between atoms: C6_6  and  N1_7 
ROOT
HETATM    1  C1  UNL     1     -17.717  -3.330 -12.539  1.00  0.00     0.026 A 
HETATM    2  C2  UNL     1     -17.757  -2.578 -13.715  1.00  0.00     0.038 A 
HETATM    3  C3  UNL     1     -16.575  -2.262 -14.371  1.00  0.00     0.065 A 
HETATM    4  C4  UNL     1     -15.352  -2.702 -13.876  1.00  0.00     0.038 A 
HETATM    5  C5  UNL     1     -15.320  -3.453 -12.698  1.00  0.00     0.026 A 
HETATM    6  C6  UNL     1     -16.494  -3.731 -11.991  1.00  0.00     0.005 A 
ENDROOT
BRANCH   6   7
HETATM    7  N1  UNL     1     -16.464  -4.583 -10.881  1.00  0.00    -0.303 NA
HETATM    8  H5  UNL     1     -15.744  -5.296 -10.933  1.00  0.00     0.124 HD
HETATM    9  H6  UNL     1     -17.370  -4.966 -10.634  1.00  0.00     0.124 HD
ENDBRANCH   6   7
BRANCH   3  10
HETATM   10  O1  UNL     1     -16.657  -1.529 -15.516  1.00  0.00    -0.361 OA
HETATM   11  H7  UNL     1     -15.815  -1.065 -15.648  1.00  0.00     0.217 HD
ENDBRANCH   3  10
TORSDOF 2
ENDMDL
MODEL 19
REMARK VINA RESULT:      -2.2      4.646      5.373
REMARK  2 active torsions:
REMARK  status: ('A' for Active; 'I' for Inactive)
REMARK    1  A    between atoms: C3_3  and  O1_8 
REMARK    2  A    between atoms: C6_6  and  N1_7 
ROOT
HETATM    1  C1  UNL     1     -20.842  -1.397  -5.446  1.00  0.00     0.026 A 
HETATM    2  C2  UNL     1     -19.580  -1.434  -4.847  1.00  0.00     0.038 A 
HETATM    3  C3  UNL     1     -19.177  -2.571  -4.162  1.00  0.00     0.065 A 
HETATM    4  C4  UNL     1     -20.010  -3.681  -4.080  1.00  0.00     0.038 A 
HETATM    5  C5  UNL     1     -21.271  -3.637  -4.681  1.00  0.00     0.026 A 
HETATM    6  C6  UNL     1     -21.719  -2.479  -5.325  1.00  0.00     0.005 A 
ENDROOT
BRANCH   6   7
HETATM    7  N1  UNL     1     -22.931  -2.486  -6.024  1.00  0.00    -0.303 NA
HETATM    8  H5  UNL     1     -23.278  -3.417  -6.232  1.00  0.00     0.124 HD
HETATM    9  H6  UNL     1     -22.938  -1.881  -6.839  1.00  0.00     0.124 HD
ENDBRANCH   6   7
BRANCH   3  10
HETATM   10  O1  UNL     1     -17.938  -2.568  -3.594  1.00  0.00    -0.361 OA
HETATM   11  H7  UNL     1     -17.802  -1.715  -3.152  1.00  0.00     0.217 HD
ENDBRANCH   3  10
TORSDOF 2
ENDMDL
MODEL 20
REMARK VINA RESULT:      -2.1      6.110      6.723
REMARK  2 active torsions:
REMARK  status: ('A' for Active; 'I' for Inactive)
REMARK    1  A    between atoms: C3_3  and  O1_8 
REMARK    2  A    between atoms: C6_6  and  N1_7 
ROOT
HETATM    1  C1  UNL     1     -13.817  -8.624  -8.741  1.00  0.00     0.026 A 
HETATM    2  C2  UNL     1     -14.963  -8.208  -9.421  1.00  0.00     0.038 A 
HETATM    3  C3  UNL     1     -16.079  -7.801  -8.704  1.00  0.00     0.065 A 
HETATM    4  C4  UNL     1     -16.061  -7.788  -7.314  1.00  0.00     0.038 A 
HETATM    5  C5  UNL     1     -14.911  -8.207  -6.639  1.00  0.00     0.026 A 
HETATM    6  C6  UNL     1     -13.797  -8.676  -7.343  1.00  0.00     0.005 A 
ENDROOT
BRANCH   6   7
HETATM    7  N1  UNL     1     -12.611  -8.980  -6.665  1.00  0.00    -0.303 NA
HETATM    8  H5  UNL     1     -11.979  -9.573  -7.195  1.00  0.00     0.124 HD
HETATM    9  H6  UNL     1     -12.754  -9.316  -5.719  1.00  0.00     0.124 HD
ENDBRANCH   6   7
BRANCH   3  10
HETATM   10  O1  UNL     1     -17.177  -7.399  -9.405  1.00  0.00    -0.361 OA
HETATM   11  H7  UNL     1     -16.942  -7.348 -10.345  1.00  0.00     0.217 HD
ENDBRANCH   3  10
TORSDOF 2
ENDMDL
