MODEL 1
REMARK VINA RESULT:      -3.8      0.000      0.000
REMARK  2 active torsions:
REMARK  status: ('A' for Active; 'I' for Inactive)
REMARK    1  A    between atoms: C3_3  and  O1_8 
REMARK    2  A    between atoms: C6_6  and  N1_7 
ROOT
HETATM    1  C1  UNL     1      -4.664  -1.602  -2.542  1.00  0.00     0.026 A 
HETATM    2  C2  UNL     1      -4.957  -2.445  -3.616  1.00  0.00     0.038 A 
HETATM    3  C3  UNL     1      -5.799  -2.004  -4.627  1.00  0.00     0.065 A 
HETATM    4  C4  UNL     1      -6.339  -0.724  -4.590  1.00  0.00     0.038 A 
HETATM    5  C5  UNL     1      -6.042   0.115  -3.511  1.00  0.00     0.026 A 
HETATM    6  C6  UNL     1      -5.244  -0.333  -2.454  1.00  0.00     0.005 A 
ENDROOT
BRANCH   6   7
HETATM    7  N1  UNL     1      -4.856   0.552  -1.440  1.00  0.00    -0.303 NA
HETATM    8  H5  UNL     1      -3.900   0.883  -1.532  1.00  0.00     0.124 HD
HETATM    9  H6  UNL     1      -5.062   0.219  -0.504  1.00  0.00     0.124 HD
ENDBRANCH   6   7
BRANCH   3  10
HETATM   10  O1  UNL     1      -6.058  -2.856  -5.658  1.00  0.00    -0.361 OA
HETATM   11  H7  UNL     1      -5.299  -2.851  -6.263  1.00  0.00     0.217 HD
ENDBRANCH   3  10
TORSDOF 2
ENDMDL
MODEL 2
REMARK VINA RESULT:      -3.7      2.779      3.680
REMARK  2 active torsions:
REMARK  status: ('A' for Active; 'I' for Inactive)
REMARK    1  A    between atoms: C3_3  and  O1_8 
REMARK    2  A    between atoms: C6_6  and  N1_7 
ROOT
HETATM    1  C1  UNL     1      -6.296  -0.615  -4.527  1.00  0.00     0.026 A 
HETATM    2  C2  UNL     1      -5.926   0.213  -3.465  1.00  0.00     0.038 A 
HETATM    3  C3  UNL     1      -5.111  -0.283  -2.458  1.00  0.00     0.065 A 
HETATM    4  C4  UNL     1      -4.645  -1.592  -2.504  1.00  0.00     0.038 A 
HETATM    5  C5  UNL     1      -5.021  -2.416  -3.570  1.00  0.00     0.026 A 
HETATM    6  C6  UNL     1      -5.889  -1.952  -4.564  1.00  0.00     0.005 A 
ENDROOT
BRANCH   6   7
HETATM    7  N1  UNL     1      -6.162  -2.743  -5.685  1.00  0.00    -0.303 NA
HETATM    8  H5  UNL     1      -5.343  -2.948  -6.249  1.00  0.00     0.124 HD
HETATM    9  H6  UNL     1      -6.941  -2.408  -6.243  1.00  0.00     0.124 HD
ENDBRANCH   6   7
BRANCH   3  10
HETATM   10  O1  UNL     1      -4.770   0.557  -1.440  1.00  0.00    -0.361 OA
HETATM   11  H7  UNL     1      -4.210   1.264  -1.797  1.00  0.00     0.217 HD
ENDBRANCH   3  10
TORSDOF 2
ENDMDL
MODEL 3
REMARK VINA RESULT:      -3.5     13.948     14.161
REMARK  2 active torsions:
REMARK  status: ('A' for Active; 'I' for Inactive)
REMARK    1  A    between atoms: C3_3  and  O1_8 
REMARK    2  A    between atoms: C6_6  and  N1_7 
ROOT
HETATM    1  C1  UNL     1     -13.919  -5.451 -13.779  1.00  0.00     0.026 A 
HETATM    2  C2  UNL     1     -14.940  -4.560 -13.441  1.00  0.00     0.038 A 
HETATM    3  C3  UNL     1     -15.786  -4.854 -12.381  1.00  0.00     0.065 A 
HETATM    4  C4  UNL     1     -15.617  -6.020 -11.643  1.00  0.00     0.038 A 
HETATM    5  C5  UNL     1     -14.594  -6.908 -11.988  1.00  0.00     0.026 A 
HETATM    6  C6  UNL     1     -13.768  -6.658 -13.089  1.00  0.00     0.005 A 
ENDROOT
BRANCH   6   7
HETATM    7  N1  UNL     1     -12.675  -7.490 -13.353  1.00  0.00    -0.303 NA
HETATM    8  H5  UNL     1     -12.841  -8.466 -13.129  1.00  0.00     0.124 HD
HETATM    9  H6  UNL     1     -11.799  -7.150 -12.971  1.00  0.00     0.124 HD
ENDBRANCH   6   7
BRANCH   3  10
HETATM   10  O1  UNL     1     -16.768  -3.958 -12.081  1.00  0.00    -0.361 OA
HETATM   11  H7  UNL     1     -17.294  -3.795 -12.880  1.00  0.00     0.217 HD
ENDBRANCH   3  10
TORSDOF 2
ENDMDL
MODEL 4
REMARK VINA RESULT:      -3.5     14.219     14.365
REMARK  2 active torsions:
REMARK  status: ('A' for Active; 'I' for Inactive)
REMARK    1  A    between atoms: C3_3  and  O1_8 
REMARK    2  A    between atoms: C6_6  and  N1_7 
ROOT
HETATM    1  C1  UNL     1     -14.465  -7.193 -12.959  1.00  0.00     0.026 A 
HETATM    2  C2  UNL     1     -15.373  -6.772 -11.984  1.00  0.00     0.038 A 
HETATM    3  C3  UNL     1     -15.766  -5.442 -11.940  1.00  0.00     0.065 A 
HETATM    4  C4  UNL     1     -15.278  -4.528 -12.867  1.00  0.00     0.038 A 
HETATM    5  C5  UNL     1     -14.369  -4.957 -13.839  1.00  0.00     0.026 A 
HETATM    6  C6  UNL     1     -13.915  -6.279 -13.863  1.00  0.00     0.005 A 
ENDROOT
BRANCH   6   7
HETATM    7  N1  UNL     1     -13.100  -6.726 -14.909  1.00  0.00    -0.303 NA
HETATM    8  H5  UNL     1     -12.611  -5.979 -15.392  1.00  0.00     0.124 HD
HETATM    9  H6  UNL     1     -13.565  -7.361 -15.549  1.00  0.00     0.124 HD
ENDBRANCH   6   7
BRANCH   3  10
HETATM   10  O1  UNL     1     -16.655  -5.071 -10.976  1.00  0.00    -0.361 OA
HETATM   11  H7  UNL     1     -16.444  -4.167 -10.691  1.00  0.00     0.217 HD
ENDBRANCH   3  10
TORSDOF 2
ENDMDL
MODEL 5
REMARK VINA RESULT:      -3.5     13.777     13.958
REMARK  2 active torsions:
REMARK  status: ('A' for Active; 'I' for Inactive)
REMARK    1  A    between atoms: C3_3  and  O1_8 
REMARK    2  A    between atoms: C6_6  and  N1_7 
ROOT
HETATM    1  C1  UNL     1     -15.515  -6.062 -11.690  1.00  0.00     0.026 A 
HETATM    2  C2  UNL     1     -14.461  -6.933 -11.977  1.00  0.00     0.038 A 
HETATM    3  C3  UNL     1     -13.635  -6.679 -13.063  1.00  0.00     0.065 A 
HETATM    4  C4  UNL     1     -13.838  -5.557 -13.859  1.00  0.00     0.038 A 
HETATM    5  C5  UNL     1     -14.896  -4.691 -13.567  1.00  0.00     0.026 A 
HETATM    6  C6  UNL     1     -15.774  -4.961 -12.512  1.00  0.00     0.005 A 
ENDROOT
BRANCH   6   7
HETATM    7  N1  UNL     1     -16.754  -4.029 -12.155  1.00  0.00    -0.303 NA
HETATM    8  H5  UNL     1     -17.400  -4.367 -11.448  1.00  0.00     0.124 HD
HETATM    9  H6  UNL     1     -17.232  -3.612 -12.947  1.00  0.00     0.124 HD
ENDBRANCH   6   7
BRANCH   3  10
HETATM   10  O1  UNL     1     -12.616  -7.550 -13.308  1.00  0.00    -0.361 OA
HETATM   11  H7  UNL     1     -12.843  -8.409 -12.918  1.00  0.00     0.217 HD
ENDBRANCH   3  10
TORSDOF 2
ENDMDL
MODEL 6
REMARK VINA RESULT:      -3.5     14.385     15.257
REMARK  2 active torsions:
REMARK  status: ('A' for Active; 'I' for Inactive)
REMARK    1  A    between atoms: C3_3  and  O1_8 
REMARK    2  A    between atoms: C6_6  and  N1_7 
ROOT
HETATM    1  C1  UNL     1     -15.410  -4.381 -12.994  1.00  0.00     0.026 A 
HETATM    2  C2  UNL     1     -14.266  -4.917 -13.589  1.00  0.00     0.038 A 
HETATM    3  C3  UNL     1     -14.355  -5.512 -14.839  1.00  0.00     0.065 A 
HETATM    4  C4  UNL     1     -15.571  -5.566 -15.512  1.00  0.00     0.038 A 
HETATM    5  C5  UNL     1     -16.712  -5.028 -14.909  1.00  0.00     0.026 A 
HETATM    6  C6  UNL     1     -16.653  -4.477 -13.625  1.00  0.00     0.005 A 
ENDROOT
BRANCH   6   7
HETATM    7  N1  UNL     1     -17.772  -3.836 -13.081  1.00  0.00    -0.303 NA
HETATM    8  H5  UNL     1     -17.926  -2.902 -13.448  1.00  0.00     0.124 HD
HETATM    9  H6  UNL     1     -17.809  -3.864 -12.068  1.00  0.00     0.124 HD
ENDBRANCH   6   7
BRANCH   3  10
HETATM   10  O1  UNL     1     -13.216  -6.021 -15.387  1.00  0.00    -0.361 OA
HETATM   11  H7  UNL     1     -13.027  -5.541 -16.209  1.00  0.00     0.217 HD
ENDBRANCH   3  10
TORSDOF 2
ENDMDL
MODEL 7
REMARK VINA RESULT:      -3.5     14.062     14.258
REMARK  2 active torsions:
REMARK  status: ('A' for Active; 'I' for Inactive)
REMARK    1  A    between atoms: C3_3  and  O1_8 
REMARK    2  A    between atoms: C6_6  and  N1_7 
ROOT
HETATM    1  C1  UNL     1     -15.269  -4.643 -13.033  1.00  0.00     0.026 A 
HETATM    2  C2  UNL     1     -14.366  -5.061 -14.013  1.00  0.00     0.038 A 
HETATM    3  C3  UNL     1     -13.869  -6.357 -13.983  1.00  0.00     0.065 A 
HETATM    4  C4  UNL     1     -14.275  -7.247 -12.995  1.00  0.00     0.038 A 
HETATM    5  C5  UNL     1     -15.178  -6.821 -12.016  1.00  0.00     0.026 A 
HETATM    6  C6  UNL     1     -15.644  -5.502 -11.996  1.00  0.00     0.005 A 
ENDROOT
BRANCH   6   7
HETATM    7  N1  UNL     1     -16.636  -5.119 -11.086  1.00  0.00    -0.303 NA
HETATM    8  H5  UNL     1     -16.410  -5.338 -10.121  1.00  0.00     0.124 HD
HETATM    9  H6  UNL     1     -17.569  -5.424 -11.344  1.00  0.00     0.124 HD
ENDBRANCH   6   7
BRANCH   3  10
HETATM   10  O1  UNL     1     -12.993  -6.728 -14.958  1.00  0.00    -0.361 OA
HETATM   11  H7  UNL     1     -12.362  -7.362 -14.582  1.00  0.00     0.217 HD
ENDBRANCH   3  10
TORSDOF 2
ENDMDL
MODEL 8
REMARK VINA RESULT:      -3.4     14.491     15.436
REMARK  2 active torsions:
REMARK  status: ('A' for Active; 'I' for Inactive)
REMARK    1  A    between atoms: C3_3  and  O1_8 
REMARK    2  A    between atoms: C6_6  and  N1_7 
ROOT
HETATM    1  C1  UNL     1     -15.726  -5.524 -15.389  1.00  0.00     0.026 A 
HETATM    2  C2  UNL     1     -16.847  -4.947 -14.787  1.00  0.00     0.038 A 
HETATM    3  C3  UNL     1     -16.727  -4.348 -13.541  1.00  0.00     0.065 A 
HETATM    4  C4  UNL     1     -15.498  -4.303 -12.893  1.00  0.00     0.038 A 
HETATM    5  C5  UNL     1     -14.381  -4.884 -13.500  1.00  0.00     0.026 A 
HETATM    6  C6  UNL     1     -14.494  -5.544 -14.728  1.00  0.00     0.005 A 
ENDROOT
BRANCH   6   7
HETATM    7  N1  UNL     1     -13.351  -6.016 -15.383  1.00  0.00    -0.303 NA
HETATM    8  H5  UNL     1     -13.085  -5.462 -16.191  1.00  0.00     0.124 HD
HETATM    9  H6  UNL     1     -13.376  -7.010 -15.587  1.00  0.00     0.124 HD
ENDBRANCH   6   7
BRANCH   3  10
HETATM   10  O1  UNL     1     -17.843  -3.793 -12.989  1.00  0.00    -0.361 OA
HETATM   11  H7  UNL     1     -17.707  -2.836 -12.912  1.00  0.00     0.217 HD
ENDBRANCH   3  10
TORSDOF 2
ENDMDL
MODEL 9
REMARK VINA RESULT:      -3.4     14.036     14.735
REMARK  2 active torsions:
REMARK  status: ('A' for Active; 'I' for Inactive)
REMARK    1  A    between atoms: C3_3  and  O1_8 
REMARK    2  A    between atoms: C6_6  and  N1_7 
ROOT
HETATM    1  C1  UNL     1      -5.675  -2.847 -17.917  1.00  0.00     0.026 A 
HETATM    2  C2  UNL     1      -4.943  -1.944 -17.143  1.00  0.00     0.038 A 
HETATM    3  C3  UNL     1      -3.601  -2.188 -16.887  1.00  0.00     0.065 A 
HETATM    4  C4  UNL     1      -2.974  -3.315 -17.408  1.00  0.00     0.038 A 
HETATM    5  C5  UNL     1      -3.714  -4.215 -18.181  1.00  0.00     0.026 A 
HETATM    6  C6  UNL     1      -5.081  -4.017 -18.400  1.00  0.00     0.005 A 
ENDROOT
BRANCH   6   7
HETATM    7  N1  UNL     1      -5.784  -4.857 -19.272  1.00  0.00    -0.303 NA
HETATM    8  H5  UNL     1      -6.051  -5.744 -18.857  1.00  0.00     0.124 HD
HETATM    9  H6  UNL     1      -5.341  -4.971 -20.177  1.00  0.00     0.124 HD
ENDBRANCH   6   7
BRANCH   3  10
HETATM   10  O1  UNL     1      -2.920  -1.283 -16.130  1.00  0.00    -0.361 OA
HETATM   11  H7  UNL     1      -3.458  -0.479 -16.050  1.00  0.00     0.217 HD
ENDBRANCH   3  10
TORSDOF 2
ENDMDL
MODEL 10
REMARK VINA RESULT:      -3.4     14.111     14.178
REMARK  2 active torsions:
REMARK  status: ('A' for Active; 'I' for Inactive)
REMARK    1  A    between atoms: C3_3  and  O1_8 
REMARK    2  A    between atoms: C6_6  and  N1_7 
ROOT
HETATM    1  C1  UNL     1     -15.270  -6.822 -12.081  1.00  0.00     0.026 A 
HETATM    2  C2  UNL     1     -14.343  -7.228 -13.044  1.00  0.00     0.038 A 
HETATM    3  C3  UNL     1     -13.877  -6.313 -13.978  1.00  0.00     0.065 A 
HETATM    4  C4  UNL     1     -14.311  -4.993 -13.954  1.00  0.00     0.038 A 
HETATM    5  C5  UNL     1     -15.240  -4.594 -12.988  1.00  0.00     0.026 A 
HETATM    6  C6  UNL     1     -15.765  -5.515 -12.075  1.00  0.00     0.005 A 
ENDROOT
BRANCH   6   7
HETATM    7  N1  UNL     1     -16.602  -5.082 -11.040  1.00  0.00    -0.303 NA
HETATM    8  H5  UNL     1     -16.350  -4.172 -10.666  1.00  0.00     0.124 HD
HETATM    9  H6  UNL     1     -16.744  -5.773 -10.311  1.00  0.00     0.124 HD
ENDBRANCH   6   7
BRANCH   3  10
HETATM   10  O1  UNL     1     -12.971  -6.747 -14.899  1.00  0.00    -0.361 OA
HETATM   11  H7  UNL     1     -12.261  -7.220 -14.437  1.00  0.00     0.217 HD
ENDBRANCH   3  10
TORSDOF 2
ENDMDL
MODEL 11
REMARK VINA RESULT:      -3.4      5.250      5.596
REMARK  2 active torsions:
REMARK  status: ('A' for Active; 'I' for Inactive)
REMARK    1  A    between atoms: C3_3  and  O1_8 
REMARK    2  A    between atoms: C6_6  and  N1_7 
ROOT
HETATM    1  C1  UNL     1      -7.219  -1.338  -8.157  1.00  0.00     0.026 A 
HETATM    2  C2  UNL     1      -6.395  -2.465  -8.118  1.00  0.00     0.038 A 
HETATM    3  C3  UNL     1      -6.950  -3.714  -7.878  1.00  0.00     0.065 A 
HETATM    4  C4  UNL     1      -8.320  -3.857  -7.692  1.00  0.00     0.038 A 
HETATM    5  C5  UNL     1      -9.139  -2.724  -7.731  1.00  0.00     0.026 A 
HETATM    6  C6  UNL     1      -8.591  -1.450  -7.913  1.00  0.00     0.005 A 
ENDROOT
BRANCH   6   7
HETATM    7  N1  UNL     1      -9.428  -0.339  -8.069  1.00  0.00    -0.303 NA
HETATM    8  H5  UNL     1     -10.417  -0.567  -8.042  1.00  0.00     0.124 HD
HETATM    9  H6  UNL     1      -9.189   0.247  -8.862  1.00  0.00     0.124 HD
ENDBRANCH   6   7
BRANCH   3  10
HETATM   10  O1  UNL     1      -6.113  -4.790  -7.850  1.00  0.00    -0.361 OA
HETATM   11  H7  UNL     1      -5.514  -4.735  -8.612  1.00  0.00     0.217 HD
ENDBRANCH   3  10
TORSDOF 2
ENDMDL
MODEL 12
REMARK VINA RESULT:      -3.3      3.360      4.269
REMARK  2 active torsions:
REMARK  status: ('A' for Active; 'I' for Inactive)
REMARK    1  A    between atoms: C3_3  and  O1_8 
REMARK    2  A    between atoms: C6_6  and  N1_7 
ROOT
HETATM    1  C1  UNL     1      -7.118  -2.424  -7.264  1.00  0.00     0.026 A 
HETATM    2  C2  UNL     1      -5.881  -1.777  -7.221  1.00  0.00     0.038 A 
HETATM    3  C3  UNL     1      -5.304  -1.478  -5.994  1.00  0.00     0.065 A 
HETATM    4  C4  UNL     1      -5.938  -1.832  -4.809  1.00  0.00     0.038 A 
HETATM    5  C5  UNL     1      -7.177  -2.479  -4.860  1.00  0.00     0.026 A 
HETATM    6  C6  UNL     1      -7.801  -2.735  -6.085  1.00  0.00     0.005 A 
ENDROOT
BRANCH   6   7
HETATM    7  N1  UNL     1      -8.981  -3.487  -6.131  1.00  0.00    -0.303 NA
HETATM    8  H5  UNL     1      -8.827  -4.490  -6.100  1.00  0.00     0.124 HD
HETATM    9  H6  UNL     1      -9.612  -3.216  -6.877  1.00  0.00     0.124 HD
ENDBRANCH   6   7
BRANCH   3  10
HETATM   10  O1  UNL     1      -4.095  -0.849  -5.994  1.00  0.00    -0.361 OA
HETATM   11  H7  UNL     1      -3.902  -0.549  -6.897  1.00  0.00     0.217 HD
ENDBRANCH   3  10
TORSDOF 2
ENDMDL
MODEL 13
REMARK VINA RESULT:      -3.3     14.061     14.474
REMARK  2 active torsions:
REMARK  status: ('A' for Active; 'I' for Inactive)
REMARK    1  A    between atoms: C3_3  and  O1_8 
REMARK    2  A    between atoms: C6_6  and  N1_7 
ROOT
HETATM    1  C1  UNL     1     -13.527  -7.644 -13.524  1.00  0.00     0.026 A 
HETATM    2  C2  UNL     1     -13.370  -7.130 -14.813  1.00  0.00     0.038 A 
HETATM    3  C3  UNL     1     -13.899  -5.886 -15.126  1.00  0.00     0.065 A 
HETATM    4  C4  UNL     1     -14.571  -5.140 -14.165  1.00  0.00     0.038 A 
HETATM    5  C5  UNL     1     -14.726  -5.662 -12.877  1.00  0.00     0.026 A 
HETATM    6  C6  UNL     1     -14.250  -6.938 -12.558  1.00  0.00     0.005 A 
ENDROOT
BRANCH   6   7
HETATM    7  N1  UNL     1     -14.304  -7.401 -11.238  1.00  0.00    -0.303 NA
HETATM    8  H5  UNL     1     -14.281  -6.659 -10.545  1.00  0.00     0.124 HD
HETATM    9  H6  UNL     1     -13.640  -8.140 -11.036  1.00  0.00     0.124 HD
ENDBRANCH   6   7
BRANCH   3  10
HETATM   10  O1  UNL     1     -13.723  -5.418 -16.394  1.00  0.00    -0.361 OA
HETATM   11  H7  UNL     1     -14.504  -4.899 -16.644  1.00  0.00     0.217 HD
ENDBRANCH   3  10
TORSDOF 2
ENDMDL
MODEL 14
REMARK VINA RESULT:      -3.3     13.539     14.336
REMARK  2 active torsions:
REMARK  status: ('A' for Active; 'I' for Inactive)
REMARK    1  A    between atoms: C3_3  and  O1_8 
REMARK    2  A    between atoms: C6_6  and  N1_7 
ROOT
HETATM    1  C1  UNL     1      -3.566  -2.528 -16.525  1.00  0.00     0.026 A 
HETATM    2  C2  UNL     1      -2.918  -3.365 -17.436  1.00  0.00     0.038 A 
HETATM    3  C3  UNL     1      -3.588  -3.795 -18.572  1.00  0.00     0.065 A 
HETATM    4  C4  UNL     1      -4.894  -3.386 -18.821  1.00  0.00     0.038 A 
HETATM    5  C5  UNL     1      -5.536  -2.549 -17.905  1.00  0.00     0.026 A 
HETATM    6  C6  UNL     1      -4.898  -2.153 -16.725  1.00  0.00     0.005 A 
ENDROOT
BRANCH   6   7
HETATM    7  N1  UNL     1      -5.504  -1.221 -15.874  1.00  0.00    -0.303 NA
HETATM    8  H5  UNL     1      -6.491  -1.396 -15.715  1.00  0.00     0.124 HD
HETATM    9  H6  UNL     1      -5.318  -0.255 -16.125  1.00  0.00     0.124 HD
ENDBRANCH   6   7
BRANCH   3  10
HETATM   10  O1  UNL     1      -2.921  -4.609 -19.437  1.00  0.00    -0.361 OA
HETATM   11  H7  UNL     1      -3.136  -5.531 -19.223  1.00  0.00     0.217 HD
ENDBRANCH   3  10
TORSDOF 2
ENDMDL
MODEL 15
REMARK VINA RESULT:      -3.3     14.216     14.525
REMARK  2 active torsions:
REMARK  status: ('A' for Active; 'I' for Inactive)
REMARK    1  A    between atoms: C3_3  and  O1_8 
REMARK    2  A    between atoms: C6_6  and  N1_7 
ROOT
HETATM    1  C1  UNL     1     -14.901  -6.639 -13.182  1.00  0.00     0.026 A 
HETATM    2  C2  UNL     1     -15.949  -6.948 -12.311  1.00  0.00     0.038 A 
HETATM    3  C3  UNL     1     -16.672  -5.924 -11.716  1.00  0.00     0.065 A 
HETATM    4  C4  UNL     1     -16.375  -4.594 -11.991  1.00  0.00     0.038 A 
HETATM    5  C5  UNL     1     -15.324  -4.293 -12.863  1.00  0.00     0.026 A 
HETATM    6  C6  UNL     1     -14.546  -5.309 -13.426  1.00  0.00     0.005 A 
ENDROOT
BRANCH   6   7
HETATM    7  N1  UNL     1     -13.576  -5.003 -14.388  1.00  0.00    -0.303 NA
HETATM    8  H5  UNL     1     -13.882  -4.317 -15.071  1.00  0.00     0.124 HD
HETATM    9  H6  UNL     1     -13.155  -5.818 -14.820  1.00  0.00     0.124 HD
ENDBRANCH   6   7
BRANCH   3  10
HETATM   10  O1  UNL     1     -17.688  -6.266 -10.875  1.00  0.00    -0.361 OA
HETATM   11  H7  UNL     1     -17.362  -6.222  -9.962  1.00  0.00     0.217 HD
ENDBRANCH   3  10
TORSDOF 2
ENDMDL
MODEL 16
REMARK VINA RESULT:      -3.2      3.764      4.661
REMARK  2 active torsions:
REMARK  status: ('A' for Active; 'I' for Inactive)
REMARK    1  A    between atoms: C3_3  and  O1_8 
REMARK    2  A    between atoms: C6_6  and  N1_7 
ROOT
HETATM    1  C1  UNL     1      -8.307  -2.831  -6.337  1.00  0.00     0.026 A 
HETATM    2  C2  UNL     1      -8.434  -3.731  -7.397  1.00  0.00     0.038 A 
HETATM    3  C3  UNL     1      -7.367  -3.929  -8.262  1.00  0.00     0.065 A 
HETATM    4  C4  UNL     1      -6.168  -3.251  -8.074  1.00  0.00     0.038 A 
HETATM    5  C5  UNL     1      -6.049  -2.350  -7.012  1.00  0.00     0.026 A 
HETATM    6  C6  UNL     1      -7.131  -2.094  -6.164  1.00  0.00     0.005 A 
ENDROOT
BRANCH   6   7
HETATM    7  N1  UNL     1      -6.966  -1.283  -5.035  1.00  0.00    -0.303 NA
HETATM    8  H5  UNL     1      -5.995  -1.135  -4.779  1.00  0.00     0.124 HD
HETATM    9  H6  UNL     1      -7.537  -1.560  -4.244  1.00  0.00     0.124 HD
ENDBRANCH   6   7
BRANCH   3  10
HETATM   10  O1  UNL     1      -7.529  -4.818  -9.282  1.00  0.00    -0.361 OA
HETATM   11  H7  UNL     1      -6.654  -5.051  -9.632  1.00  0.00     0.217 HD
ENDBRANCH   3  10
TORSDOF 2
ENDMDL
MODEL 17
REMARK VINA RESULT:      -3.2      3.213      4.017
REMARK  2 active torsions:
REMARK  status: ('A' for Active; 'I' for Inactive)
REMARK    1  A    between atoms: C3_3  and  O1_8 
REMARK    2  A    between atoms: C6_6  and  N1_7 
ROOT
HETATM    1  C1  UNL     1      -5.934  -1.854  -7.340  1.00  0.00     0.026 A 
HETATM    2  C2  UNL     1      -7.015  -2.415  -8.022  1.00  0.00     0.038 A 
HETATM    3  C3  UNL     1      -8.076  -2.952  -7.306  1.00  0.00     0.065 A 
HETATM    4  C4  UNL     1      -8.079  -2.922  -5.916  1.00  0.00     0.038 A 
HETATM    5  C5  UNL     1      -6.992  -2.360  -5.240  1.00  0.00     0.026 A 
HETATM    6  C6  UNL     1      -5.888  -1.867  -5.942  1.00  0.00     0.005 A 
ENDROOT
BRANCH   6   7
HETATM    7  N1  UNL     1      -4.862  -1.200  -5.264  1.00  0.00    -0.303 NA
HETATM    8  H5  UNL     1      -5.157  -0.782  -4.387  1.00  0.00     0.124 HD
HETATM    9  H6  UNL     1      -4.339  -0.552  -5.844  1.00  0.00     0.124 HD
ENDBRANCH   6   7
BRANCH   3  10
HETATM   10  O1  UNL     1      -9.114  -3.488  -8.008  1.00  0.00    -0.361 OA
HETATM   11  H7  UNL     1      -8.967  -3.323  -8.953  1.00  0.00     0.217 HD
ENDBRANCH   3  10
TORSDOF 2
ENDMDL
MODEL 18
REMARK VINA RESULT:      -3.1      3.949      4.775
REMARK  2 active torsions:
REMARK  status: ('A' for Active; 'I' for Inactive)
REMARK    1  A    between atoms: C3_3  and  O1_8 
REMARK    2  A    between atoms: C6_6  and  N1_7 
ROOT
HETATM    1  C1  UNL     1      -7.928  -2.844  -5.815  1.00  0.00     0.026 A 
HETATM    2  C2  UNL     1      -6.838  -2.262  -5.164  1.00  0.00     0.038 A 
HETATM    3  C3  UNL     1      -5.789  -1.742  -5.910  1.00  0.00     0.065 A 
HETATM    4  C4  UNL     1      -5.820  -1.781  -7.299  1.00  0.00     0.038 A 
HETATM    5  C5  UNL     1      -6.914  -2.366  -7.944  1.00  0.00     0.026 A 
HETATM    6  C6  UNL     1      -7.953  -2.948  -7.209  1.00  0.00     0.005 A 
ENDROOT
BRANCH   6   7
HETATM    7  N1  UNL     1      -9.096  -3.423  -7.861  1.00  0.00    -0.303 NA
HETATM    8  H5  UNL     1      -9.540  -2.735  -8.461  1.00  0.00     0.124 HD
HETATM    9  H6  UNL     1      -9.759  -3.882  -7.245  1.00  0.00     0.124 HD
ENDBRANCH   6   7
BRANCH   3  10
HETATM   10  O1  UNL     1      -4.745  -1.180  -5.238  1.00  0.00    -0.361 OA
HETATM   11  H7  UNL     1      -5.098  -0.630  -4.520  1.00  0.00     0.217 HD
ENDBRANCH   3  10
TORSDOF 2
ENDMDL
MODEL 19
REMARK VINA RESULT:      -3.0     15.807     16.689
REMARK  2 active torsions:
REMARK  status: ('A' for Active; 'I' for Inactive)
REMARK    1  A    between atoms: C3_3  and  O1_8 
REMARK    2  A    between atoms: C6_6  and  N1_7 
ROOT
HETATM    1  C1  UNL     1     -16.044  -5.403 -15.279  1.00  0.00     0.026 A 
HETATM    2  C2  UNL     1     -15.933  -5.041 -13.935  1.00  0.00     0.038 A 
HETATM    3  C3  UNL     1     -16.880  -4.199 -13.369  1.00  0.00     0.065 A 
HETATM    4  C4  UNL     1     -17.947  -3.725 -14.124  1.00  0.00     0.038 A 
HETATM    5  C5  UNL     1     -18.051  -4.090 -15.469  1.00  0.00     0.026 A 
HETATM    6  C6  UNL     1     -17.075  -4.891 -16.072  1.00  0.00     0.005 A 
ENDROOT
BRANCH   6   7
HETATM    7  N1  UNL     1     -17.251  -5.347 -17.384  1.00  0.00    -0.303 NA
HETATM    8  H5  UNL     1     -17.231  -6.359 -17.469  1.00  0.00     0.124 HD
HETATM    9  H6  UNL     1     -16.649  -4.891 -18.061  1.00  0.00     0.124 HD
ENDBRANCH   6   7
BRANCH   3  10
HETATM   10  O1  UNL     1     -16.738  -3.871 -12.054  1.00  0.00    -0.361 OA
HETATM   11  H7  UNL     1     -15.943  -4.309 -11.710  1.00  0.00     0.217 HD
ENDBRANCH   3  10
TORSDOF 2
ENDMDL
MODEL 20
REMARK VINA RESULT:      -3.0      4.703      5.576
REMARK  2 active torsions:
REMARK  status: ('A' for Active; 'I' for Inactive)
REMARK    1  A    between atoms: C3_3  and  O1_8 
REMARK    2  A    between atoms: C6_6  and  N1_7 
ROOT
HETATM    1  C1  UNL     1      -7.062  -3.876  -8.728  1.00  0.00     0.026 A 
HETATM    2  C2  UNL     1      -8.056  -4.053  -7.763  1.00  0.00     0.038 A 
HETATM    3  C3  UNL     1      -8.139  -3.175  -6.692  1.00  0.00     0.065 A 
HETATM    4  C4  UNL     1      -7.252  -2.110  -6.580  1.00  0.00     0.038 A 
HETATM    5  C5  UNL     1      -6.259  -1.939  -7.549  1.00  0.00     0.026 A 
HETATM    6  C6  UNL     1      -6.123  -2.848  -8.603  1.00  0.00     0.005 A 
ENDROOT
BRANCH   6   7
HETATM    7  N1  UNL     1      -5.205  -2.603  -9.631  1.00  0.00    -0.303 NA
HETATM    8  H5  UNL     1      -4.236  -2.641  -9.330  1.00  0.00     0.124 HD
HETATM    9  H6  UNL     1      -5.408  -1.770 -10.173  1.00  0.00     0.124 HD
ENDBRANCH   6   7
BRANCH   3  10
HETATM   10  O1  UNL     1      -9.124  -3.380  -5.773  1.00  0.00    -0.361 OA
HETATM   11  H7  UNL     1      -8.973  -4.237  -5.344  1.00  0.00     0.217 HD
ENDBRANCH   3  10
TORSDOF 2
ENDMDL
