MODEL 1
REMARK VINA RESULT:      -4.4      0.000      0.000
REMARK  2 active torsions:
REMARK  status: ('A' for Active; 'I' for Inactive)
REMARK    1  A    between atoms: C3_3  and  O1_8 
REMARK    2  A    between atoms: C6_6  and  N1_7 
ROOT
HETATM    1  C1  UNL     1      -3.038  -1.994 -16.619  1.00  0.00     0.026 A 
HETATM    2  C2  UNL     1      -4.423  -1.975 -16.795  1.00  0.00     0.038 A 
HETATM    3  C3  UNL     1      -5.029  -2.935 -17.592  1.00  0.00     0.065 A 
HETATM    4  C4  UNL     1      -4.271  -3.928 -18.204  1.00  0.00     0.038 A 
HETATM    5  C5  UNL     1      -2.885  -3.940 -18.025  1.00  0.00     0.026 A 
HETATM    6  C6  UNL     1      -2.250  -2.946 -17.274  1.00  0.00     0.005 A 
ENDROOT
BRANCH   6   7
HETATM    7  N1  UNL     1      -0.880  -3.035 -17.002  1.00  0.00    -0.303 NA
HETATM    8  H5  UNL     1      -0.587  -3.952 -16.680  1.00  0.00     0.124 HD
HETATM    9  H6  UNL     1      -0.529  -2.287 -16.413  1.00  0.00     0.124 HD
ENDBRANCH   6   7
BRANCH   3  10
HETATM   10  O1  UNL     1      -6.383  -2.884 -17.736  1.00  0.00    -0.361 OA
HETATM   11  H7  UNL     1      -6.590  -2.749 -18.674  1.00  0.00     0.217 HD
ENDBRANCH   3  10
TORSDOF 2
ENDMDL
MODEL 2
REMARK VINA RESULT:      -4.4      0.080      1.705
REMARK  2 active torsions:
REMARK  status: ('A' for Active; 'I' for Inactive)
REMARK    1  A    between atoms: C3_3  and  O1_8 
REMARK    2  A    between atoms: C6_6  and  N1_7 
ROOT
HETATM    1  C1  UNL     1      -2.889  -3.948 -18.004  1.00  0.00     0.026 A 
HETATM    2  C2  UNL     1      -4.274  -3.885 -18.179  1.00  0.00     0.038 A 
HETATM    3  C3  UNL     1      -5.003  -2.891 -17.544  1.00  0.00     0.065 A 
HETATM    4  C4  UNL     1      -4.367  -1.945 -16.747  1.00  0.00     0.038 A 
HETATM    5  C5  UNL     1      -2.982  -2.015 -16.575  1.00  0.00     0.026 A 
HETATM    6  C6  UNL     1      -2.237  -3.044 -17.159  1.00  0.00     0.005 A 
ENDROOT
BRANCH   6   7
HETATM    7  N1  UNL     1      -0.840  -3.036 -17.079  1.00  0.00    -0.303 NA
HETATM    8  H5  UNL     1      -0.459  -2.183 -16.682  1.00  0.00     0.124 HD
HETATM    9  H6  UNL     1      -0.378  -3.301 -17.942  1.00  0.00     0.124 HD
ENDBRANCH   6   7
BRANCH   3  10
HETATM   10  O1  UNL     1      -6.351  -2.862 -17.743  1.00  0.00    -0.361 OA
HETATM   11  H7  UNL     1      -6.618  -3.689 -18.175  1.00  0.00     0.217 HD
ENDBRANCH   3  10
TORSDOF 2
ENDMDL
MODEL 3
REMARK VINA RESULT:      -4.4      2.779      3.681
REMARK  2 active torsions:
REMARK  status: ('A' for Active; 'I' for Inactive)
REMARK    1  A    between atoms: C3_3  and  O1_8 
REMARK    2  A    between atoms: C6_6  and  N1_7 
ROOT
HETATM    1  C1  UNL     1      -4.158  -3.887 -18.177  1.00  0.00     0.026 A 
HETATM    2  C2  UNL     1      -2.782  -3.926 -17.946  1.00  0.00     0.038 A 
HETATM    3  C3  UNL     1      -2.194  -2.973 -17.127  1.00  0.00     0.065 A 
HETATM    4  C4  UNL     1      -2.966  -1.988 -16.520  1.00  0.00     0.038 A 
HETATM    5  C5  UNL     1      -4.343  -1.954 -16.756  1.00  0.00     0.026 A 
HETATM    6  C6  UNL     1      -4.945  -2.870 -17.625  1.00  0.00     0.005 A 
ENDROOT
BRANCH   6   7
HETATM    7  N1  UNL     1      -6.337  -2.903 -17.762  1.00  0.00    -0.303 NA
HETATM    8  H5  UNL     1      -6.832  -2.988 -16.879  1.00  0.00     0.124 HD
HETATM    9  H6  UNL     1      -6.666  -3.567 -18.455  1.00  0.00     0.124 HD
ENDBRANCH   6   7
BRANCH   3  10
HETATM   10  O1  UNL     1      -0.848  -3.047 -16.924  1.00  0.00    -0.361 OA
HETATM   11  H7  UNL     1      -0.634  -3.933 -16.591  1.00  0.00     0.217 HD
ENDBRANCH   3  10
TORSDOF 2
ENDMDL
MODEL 4
REMARK VINA RESULT:      -4.3      2.781      3.266
REMARK  2 active torsions:
REMARK  status: ('A' for Active; 'I' for Inactive)
REMARK    1  A    between atoms: C3_3  and  O1_8 
REMARK    2  A    between atoms: C6_6  and  N1_7 
ROOT
HETATM    1  C1  UNL     1      -4.252  -1.992 -16.742  1.00  0.00     0.026 A 
HETATM    2  C2  UNL     1      -2.869  -2.040 -16.557  1.00  0.00     0.038 A 
HETATM    3  C3  UNL     1      -2.123  -3.018 -17.201  1.00  0.00     0.065 A 
HETATM    4  C4  UNL     1      -2.738  -3.940 -18.041  1.00  0.00     0.038 A 
HETATM    5  C5  UNL     1      -4.123  -3.886 -18.219  1.00  0.00     0.026 A 
HETATM    6  C6  UNL     1      -4.899  -2.946 -17.534  1.00  0.00     0.005 A 
ENDROOT
BRANCH   6   7
HETATM    7  N1  UNL     1      -6.266  -2.823 -17.811  1.00  0.00    -0.303 NA
HETATM    8  H5  UNL     1      -6.863  -3.041 -17.019  1.00  0.00     0.124 HD
HETATM    9  H6  UNL     1      -6.557  -3.300 -18.657  1.00  0.00     0.124 HD
ENDBRANCH   6   7
BRANCH   3  10
HETATM   10  O1  UNL     1      -0.775  -3.030 -16.997  1.00  0.00    -0.361 OA
HETATM   11  H7  UNL     1      -0.497  -3.943 -16.820  1.00  0.00     0.217 HD
ENDBRANCH   3  10
TORSDOF 2
ENDMDL
MODEL 5
REMARK VINA RESULT:      -4.1     10.729     11.021
REMARK  2 active torsions:
REMARK  status: ('A' for Active; 'I' for Inactive)
REMARK    1  A    between atoms: C3_3  and  O1_8 
REMARK    2  A    between atoms: C6_6  and  N1_7 
ROOT
HETATM    1  C1  UNL     1     -12.033  -1.112 -10.555  1.00  0.00     0.026 A 
HETATM    2  C2  UNL     1     -12.419  -1.834 -11.687  1.00  0.00     0.038 A 
HETATM    3  C3  UNL     1     -12.377  -3.220 -11.666  1.00  0.00     0.065 A 
HETATM    4  C4  UNL     1     -11.969  -3.899 -10.522  1.00  0.00     0.038 A 
HETATM    5  C5  UNL     1     -11.583  -3.170  -9.394  1.00  0.00     0.026 A 
HETATM    6  C6  UNL     1     -11.563  -1.771  -9.415  1.00  0.00     0.005 A 
ENDROOT
BRANCH   6   7
HETATM    7  N1  UNL     1     -11.290  -1.052  -8.246  1.00  0.00    -0.303 NA
HETATM    8  H5  UNL     1     -11.935  -1.248  -7.487  1.00  0.00     0.124 HD
HETATM    9  H6  UNL     1     -11.162  -0.057  -8.397  1.00  0.00     0.124 HD
ENDBRANCH   6   7
BRANCH   3  10
HETATM   10  O1  UNL     1     -12.764  -3.888 -12.788  1.00  0.00    -0.361 OA
HETATM   11  H7  UNL     1     -12.275  -3.529 -13.546  1.00  0.00     0.217 HD
ENDBRANCH   3  10
TORSDOF 2
ENDMDL
MODEL 6
REMARK VINA RESULT:      -4.0     10.944     11.509
REMARK  2 active torsions:
REMARK  status: ('A' for Active; 'I' for Inactive)
REMARK    1  A    between atoms: C3_3  and  O1_8 
REMARK    2  A    between atoms: C6_6  and  N1_7 
ROOT
HETATM    1  C1  UNL     1     -12.039  -1.633  -9.464  1.00  0.00     0.026 A 
HETATM    2  C2  UNL     1     -12.531  -2.866  -9.030  1.00  0.00     0.038 A 
HETATM    3  C3  UNL     1     -13.026  -3.773  -9.955  1.00  0.00     0.065 A 
HETATM    4  C4  UNL     1     -13.022  -3.473 -11.313  1.00  0.00     0.038 A 
HETATM    5  C5  UNL     1     -12.530  -2.237 -11.741  1.00  0.00     0.026 A 
HETATM    6  C6  UNL     1     -12.081  -1.286 -10.818  1.00  0.00     0.005 A 
ENDROOT
BRANCH   6   7
HETATM    7  N1  UNL     1     -11.480  -0.102 -11.262  1.00  0.00    -0.303 NA
HETATM    8  H5  UNL     1     -10.492  -0.039 -11.040  1.00  0.00     0.124 HD
HETATM    9  H6  UNL     1     -11.989   0.737 -11.005  1.00  0.00     0.124 HD
ENDBRANCH   6   7
BRANCH   3  10
HETATM   10  O1  UNL     1     -13.495  -4.966  -9.492  1.00  0.00    -0.361 OA
HETATM   11  H7  UNL     1     -14.465  -4.949  -9.518  1.00  0.00     0.217 HD
ENDBRANCH   3  10
TORSDOF 2
ENDMDL
MODEL 7
REMARK VINA RESULT:      -4.0     10.908     11.216
REMARK  2 active torsions:
REMARK  status: ('A' for Active; 'I' for Inactive)
REMARK    1  A    between atoms: C3_3  and  O1_8 
REMARK    2  A    between atoms: C6_6  and  N1_7 
ROOT
HETATM    1  C1  UNL     1     -12.407  -1.801 -11.627  1.00  0.00     0.026 A 
HETATM    2  C2  UNL     1     -11.972  -1.069 -10.521  1.00  0.00     0.038 A 
HETATM    3  C3  UNL     1     -11.551  -1.735  -9.378  1.00  0.00     0.065 A 
HETATM    4  C4  UNL     1     -11.542  -3.124  -9.331  1.00  0.00     0.038 A 
HETATM    5  C5  UNL     1     -11.981  -3.850 -10.442  1.00  0.00     0.026 A 
HETATM    6  C6  UNL     1     -12.464  -3.197 -11.581  1.00  0.00     0.005 A 
ENDROOT
BRANCH   6   7
HETATM    7  N1  UNL     1     -12.788  -3.929 -12.729  1.00  0.00    -0.303 NA
HETATM    8  H5  UNL     1     -13.328  -4.768 -12.539  1.00  0.00     0.124 HD
HETATM    9  H6  UNL     1     -11.996  -4.109 -13.338  1.00  0.00     0.124 HD
ENDBRANCH   6   7
BRANCH   3  10
HETATM   10  O1  UNL     1     -11.131  -0.985  -8.321  1.00  0.00    -0.361 OA
HETATM   11  H7  UNL     1     -11.665  -1.218  -7.544  1.00  0.00     0.217 HD
ENDBRANCH   3  10
TORSDOF 2
ENDMDL
MODEL 8
REMARK VINA RESULT:      -4.0     10.971     11.669
REMARK  2 active torsions:
REMARK  status: ('A' for Active; 'I' for Inactive)
REMARK    1  A    between atoms: C3_3  and  O1_8 
REMARK    2  A    between atoms: C6_6  and  N1_7 
ROOT
HETATM    1  C1  UNL     1     -12.909  -3.432 -11.317  1.00  0.00     0.026 A 
HETATM    2  C2  UNL     1     -12.442  -2.187 -11.746  1.00  0.00     0.038 A 
HETATM    3  C3  UNL     1     -11.988  -1.265 -10.814  1.00  0.00     0.065 A 
HETATM    4  C4  UNL     1     -11.977  -1.574  -9.458  1.00  0.00     0.038 A 
HETATM    5  C5  UNL     1     -12.447  -2.822  -9.036  1.00  0.00     0.026 A 
HETATM    6  C6  UNL     1     -12.963  -3.742  -9.954  1.00  0.00     0.005 A 
ENDROOT
BRANCH   6   7
HETATM    7  N1  UNL     1     -13.319  -5.029  -9.537  1.00  0.00    -0.303 NA
HETATM    8  H5  UNL     1     -12.640  -5.459  -8.917  1.00  0.00     0.124 HD
HETATM    9  H6  UNL     1     -13.594  -5.645 -10.295  1.00  0.00     0.124 HD
ENDBRANCH   6   7
BRANCH   3  10
HETATM   10  O1  UNL     1     -11.538  -0.063 -11.272  1.00  0.00    -0.361 OA
HETATM   11  H7  UNL     1     -12.155   0.629 -10.985  1.00  0.00     0.217 HD
ENDBRANCH   3  10
TORSDOF 2
ENDMDL
MODEL 9
REMARK VINA RESULT:      -4.0     10.879     11.280
REMARK  2 active torsions:
REMARK  status: ('A' for Active; 'I' for Inactive)
REMARK    1  A    between atoms: C3_3  and  O1_8 
REMARK    2  A    between atoms: C6_6  and  N1_7 
ROOT
HETATM    1  C1  UNL     1     -11.998  -3.843 -10.438  1.00  0.00     0.026 A 
HETATM    2  C2  UNL     1     -11.583  -3.098  -9.332  1.00  0.00     0.038 A 
HETATM    3  C3  UNL     1     -11.580  -1.712  -9.398  1.00  0.00     0.065 A 
HETATM    4  C4  UNL     1     -12.002  -1.057 -10.550  1.00  0.00     0.038 A 
HETATM    5  C5  UNL     1     -12.414  -1.809 -11.654  1.00  0.00     0.026 A 
HETATM    6  C6  UNL     1     -12.369  -3.207 -11.627  1.00  0.00     0.005 A 
ENDROOT
BRANCH   6   7
HETATM    7  N1  UNL     1     -12.895  -3.950 -12.690  1.00  0.00    -0.303 NA
HETATM    8  H5  UNL     1     -12.877  -3.459 -13.578  1.00  0.00     0.124 HD
HETATM    9  H6  UNL     1     -13.802  -4.361 -12.494  1.00  0.00     0.124 HD
ENDBRANCH   6   7
BRANCH   3  10
HETATM   10  O1  UNL     1     -11.171  -1.021  -8.297  1.00  0.00    -0.361 OA
HETATM   11  H7  UNL     1     -11.902  -0.992  -7.660  1.00  0.00     0.217 HD
ENDBRANCH   3  10
TORSDOF 2
ENDMDL
MODEL 10
REMARK VINA RESULT:      -4.0     10.973     11.521
REMARK  2 active torsions:
REMARK  status: ('A' for Active; 'I' for Inactive)
REMARK    1  A    between atoms: C3_3  and  O1_8 
REMARK    2  A    between atoms: C6_6  and  N1_7 
ROOT
HETATM    1  C1  UNL     1     -12.344  -2.803  -9.094  1.00  0.00     0.026 A 
HETATM    2  C2  UNL     1     -11.894  -1.554  -9.529  1.00  0.00     0.038 A 
HETATM    3  C3  UNL     1     -11.951  -1.235 -10.878  1.00  0.00     0.065 A 
HETATM    4  C4  UNL     1     -12.468  -2.139 -11.799  1.00  0.00     0.038 A 
HETATM    5  C5  UNL     1     -12.915  -3.388 -11.356  1.00  0.00     0.026 A 
HETATM    6  C6  UNL     1     -12.812  -3.751 -10.010  1.00  0.00     0.005 A 
ENDROOT
BRANCH   6   7
HETATM    7  N1  UNL     1     -13.370  -4.952  -9.558  1.00  0.00    -0.303 NA
HETATM    8  H5  UNL     1     -12.807  -5.426  -8.859  1.00  0.00     0.124 HD
HETATM    9  H6  UNL     1     -13.665  -5.573 -10.304  1.00  0.00     0.124 HD
ENDBRANCH   6   7
BRANCH   3  10
HETATM   10  O1  UNL     1     -11.505  -0.006 -11.263  1.00  0.00    -0.361 OA
HETATM   11  H7  UNL     1     -10.650   0.161 -10.835  1.00  0.00     0.217 HD
ENDBRANCH   3  10
TORSDOF 2
ENDMDL
MODEL 11
REMARK VINA RESULT:      -3.9     13.774     14.434
REMARK  2 active torsions:
REMARK  status: ('A' for Active; 'I' for Inactive)
REMARK    1  A    between atoms: C3_3  and  O1_8 
REMARK    2  A    between atoms: C6_6  and  N1_7 
ROOT
HETATM    1  C1  UNL     1      -4.624  -1.658  -2.417  1.00  0.00     0.026 A 
HETATM    2  C2  UNL     1      -4.908  -2.446  -3.535  1.00  0.00     0.038 A 
HETATM    3  C3  UNL     1      -5.756  -1.960  -4.520  1.00  0.00     0.065 A 
HETATM    4  C4  UNL     1      -6.312  -0.690  -4.413  1.00  0.00     0.038 A 
HETATM    5  C5  UNL     1      -6.024   0.092  -3.291  1.00  0.00     0.026 A 
HETATM    6  C6  UNL     1      -5.219  -0.403  -2.260  1.00  0.00     0.005 A 
ENDROOT
BRANCH   6   7
HETATM    7  N1  UNL     1      -4.840   0.430  -1.200  1.00  0.00    -0.303 NA
HETATM    8  H5  UNL     1      -5.386   1.283  -1.137  1.00  0.00     0.124 HD
HETATM    9  H6  UNL     1      -3.842   0.604  -1.152  1.00  0.00     0.124 HD
ENDBRANCH   6   7
BRANCH   3  10
HETATM   10  O1  UNL     1      -6.007  -2.758  -5.596  1.00  0.00    -0.361 OA
HETATM   11  H7  UNL     1      -5.683  -3.652  -5.402  1.00  0.00     0.217 HD
ENDBRANCH   3  10
TORSDOF 2
ENDMDL
MODEL 12
REMARK VINA RESULT:      -3.9     13.886     14.535
REMARK  2 active torsions:
REMARK  status: ('A' for Active; 'I' for Inactive)
REMARK    1  A    between atoms: C3_3  and  O1_8 
REMARK    2  A    between atoms: C6_6  and  N1_7 
ROOT
HETATM    1  C1  UNL     1      -6.335  -0.653  -4.358  1.00  0.00     0.026 A 
HETATM    2  C2  UNL     1      -6.047   0.149  -3.251  1.00  0.00     0.038 A 
HETATM    3  C3  UNL     1      -5.194  -0.322  -2.264  1.00  0.00     0.065 A 
HETATM    4  C4  UNL     1      -4.609  -1.579  -2.375  1.00  0.00     0.038 A 
HETATM    5  C5  UNL     1      -4.902  -2.376  -3.485  1.00  0.00     0.026 A 
HETATM    6  C6  UNL     1      -5.806  -1.943  -4.460  1.00  0.00     0.005 A 
ENDROOT
BRANCH   6   7
HETATM    7  N1  UNL     1      -6.001  -2.695  -5.624  1.00  0.00    -0.303 NA
HETATM    8  H5  UNL     1      -6.823  -2.421  -6.154  1.00  0.00     0.124 HD
HETATM    9  H6  UNL     1      -5.952  -3.697  -5.478  1.00  0.00     0.124 HD
ENDBRANCH   6   7
BRANCH   3  10
HETATM   10  O1  UNL     1      -4.936   0.491  -1.201  1.00  0.00    -0.361 OA
HETATM   11  H7  UNL     1      -4.799  -0.062  -0.415  1.00  0.00     0.217 HD
ENDBRANCH   3  10
TORSDOF 2
ENDMDL
MODEL 13
REMARK VINA RESULT:      -3.8      4.519      5.358
REMARK  2 active torsions:
REMARK  status: ('A' for Active; 'I' for Inactive)
REMARK    1  A    between atoms: C3_3  and  O1_8 
REMARK    2  A    between atoms: C6_6  and  N1_7 
ROOT
HETATM    1  C1  UNL     1      -1.063  -1.054 -18.686  1.00  0.00     0.026 A 
HETATM    2  C2  UNL     1      -0.779   0.234 -19.146  1.00  0.00     0.038 A 
HETATM    3  C3  UNL     1       0.302   0.928 -18.624  1.00  0.00     0.065 A 
HETATM    4  C4  UNL     1       1.116   0.348 -17.658  1.00  0.00     0.038 A 
HETATM    5  C5  UNL     1       0.825  -0.941 -17.200  1.00  0.00     0.026 A 
HETATM    6  C6  UNL     1      -0.294  -1.634 -17.672  1.00  0.00     0.005 A 
ENDROOT
BRANCH   6   7
HETATM    7  N1  UNL     1      -0.509  -2.965 -17.298  1.00  0.00    -0.303 NA
HETATM    8  H5  UNL     1      -0.436  -3.124 -16.297  1.00  0.00     0.124 HD
HETATM    9  H6  UNL     1       0.032  -3.634 -17.835  1.00  0.00     0.124 HD
ENDBRANCH   6   7
BRANCH   3  10
HETATM   10  O1  UNL     1       0.548   2.181 -19.101  1.00  0.00    -0.361 OA
HETATM   11  H7  UNL     1       1.194   2.613 -18.520  1.00  0.00     0.217 HD
ENDBRANCH   3  10
TORSDOF 2
ENDMDL
MODEL 14
REMARK VINA RESULT:      -3.8      4.139      4.933
REMARK  2 active torsions:
REMARK  status: ('A' for Active; 'I' for Inactive)
REMARK    1  A    between atoms: C3_3  and  O1_8 
REMARK    2  A    between atoms: C6_6  and  N1_7 
ROOT
HETATM    1  C1  UNL     1      -1.066  -0.315 -19.193  1.00  0.00     0.026 A 
HETATM    2  C2  UNL     1      -1.112  -1.673 -18.869  1.00  0.00     0.038 A 
HETATM    3  C3  UNL     1      -0.280  -2.172 -17.877  1.00  0.00     0.065 A 
HETATM    4  C4  UNL     1       0.588  -1.330 -17.191  1.00  0.00     0.038 A 
HETATM    5  C5  UNL     1       0.629   0.028 -17.522  1.00  0.00     0.026 A 
HETATM    6  C6  UNL     1      -0.159   0.538 -18.558  1.00  0.00     0.005 A 
ENDROOT
BRANCH   6   7
HETATM    7  N1  UNL     1      -0.198   1.916 -18.800  1.00  0.00    -0.303 NA
HETATM    8  H5  UNL     1      -0.085   2.161 -19.779  1.00  0.00     0.124 HD
HETATM    9  H6  UNL     1       0.410   2.457 -18.195  1.00  0.00     0.124 HD
ENDBRANCH   6   7
BRANCH   3  10
HETATM   10  O1  UNL     1      -0.358  -3.502 -17.589  1.00  0.00    -0.361 OA
HETATM   11  H7  UNL     1       0.335  -3.967 -18.085  1.00  0.00     0.217 HD
ENDBRANCH   3  10
TORSDOF 2
ENDMDL
MODEL 15
REMARK VINA RESULT:      -3.7      2.656      3.137
REMARK  2 active torsions:
REMARK  status: ('A' for Active; 'I' for Inactive)
REMARK    1  A    between atoms: C3_3  and  O1_8 
REMARK    2  A    between atoms: C6_6  and  N1_7 
ROOT
HETATM    1  C1  UNL     1      -4.724  -2.949 -17.727  1.00  0.00     0.026 A 
HETATM    2  C2  UNL     1      -4.065  -2.028 -16.910  1.00  0.00     0.038 A 
HETATM    3  C3  UNL     1      -2.840  -1.511 -17.306  1.00  0.00     0.065 A 
HETATM    4  C4  UNL     1      -2.270  -1.889 -18.517  1.00  0.00     0.038 A 
HETATM    5  C5  UNL     1      -2.935  -2.812 -19.329  1.00  0.00     0.026 A 
HETATM    6  C6  UNL     1      -4.142  -3.388 -18.920  1.00  0.00     0.005 A 
ENDROOT
BRANCH   6   7
HETATM    7  N1  UNL     1      -4.857  -4.218 -19.791  1.00  0.00    -0.303 NA
HETATM    8  H5  UNL     1      -5.700  -4.609 -19.381  1.00  0.00     0.124 HD
HETATM    9  H6  UNL     1      -4.287  -4.923 -20.247  1.00  0.00     0.124 HD
ENDBRANCH   6   7
BRANCH   3  10
HETATM   10  O1  UNL     1      -2.229  -0.613 -16.482  1.00  0.00    -0.361 OA
HETATM   11  H7  UNL     1      -1.608  -1.091 -15.910  1.00  0.00     0.217 HD
ENDBRANCH   3  10
TORSDOF 2
ENDMDL
MODEL 16
REMARK VINA RESULT:      -3.7      1.234      1.968
REMARK  2 active torsions:
REMARK  status: ('A' for Active; 'I' for Inactive)
REMARK    1  A    between atoms: C3_3  and  O1_8 
REMARK    2  A    between atoms: C6_6  and  N1_7 
ROOT
HETATM    1  C1  UNL     1      -2.558  -2.646 -19.096  1.00  0.00     0.026 A 
HETATM    2  C2  UNL     1      -3.928  -2.669 -18.821  1.00  0.00     0.038 A 
HETATM    3  C3  UNL     1      -4.380  -2.331 -17.554  1.00  0.00     0.065 A 
HETATM    4  C4  UNL     1      -3.484  -1.954 -16.559  1.00  0.00     0.038 A 
HETATM    5  C5  UNL     1      -2.115  -1.934 -16.841  1.00  0.00     0.026 A 
HETATM    6  C6  UNL     1      -1.636  -2.328 -18.095  1.00  0.00     0.005 A 
ENDROOT
BRANCH   6   7
HETATM    7  N1  UNL     1      -0.278  -2.191 -18.405  1.00  0.00    -0.303 NA
HETATM    8  H5  UNL     1       0.289  -2.980 -18.110  1.00  0.00     0.124 HD
HETATM    9  H6  UNL     1       0.120  -1.302 -18.120  1.00  0.00     0.124 HD
ENDBRANCH   6   7
BRANCH   3  10
HETATM   10  O1  UNL     1      -5.723  -2.363 -17.326  1.00  0.00    -0.361 OA
HETATM   11  H7  UNL     1      -5.900  -1.968 -16.457  1.00  0.00     0.217 HD
ENDBRANCH   3  10
TORSDOF 2
ENDMDL
MODEL 17
REMARK VINA RESULT:      -3.6      3.159      3.809
REMARK  2 active torsions:
REMARK  status: ('A' for Active; 'I' for Inactive)
REMARK    1  A    between atoms: C3_3  and  O1_8 
REMARK    2  A    between atoms: C6_6  and  N1_7 
ROOT
HETATM    1  C1  UNL     1      -4.803  -3.854 -17.727  1.00  0.00     0.026 A 
HETATM    2  C2  UNL     1      -3.801  -3.324 -18.543  1.00  0.00     0.038 A 
HETATM    3  C3  UNL     1      -3.793  -3.616 -19.899  1.00  0.00     0.065 A 
HETATM    4  C4  UNL     1      -4.783  -4.418 -20.457  1.00  0.00     0.038 A 
HETATM    5  C5  UNL     1      -5.782  -4.945 -19.634  1.00  0.00     0.026 A 
HETATM    6  C6  UNL     1      -5.774  -4.711 -18.255  1.00  0.00     0.005 A 
ENDROOT
BRANCH   6   7
HETATM    7  N1  UNL     1      -6.841  -5.143 -17.460  1.00  0.00    -0.303 NA
HETATM    8  H5  UNL     1      -6.717  -4.950 -16.471  1.00  0.00     0.124 HD
HETATM    9  H6  UNL     1      -7.121  -6.102 -17.635  1.00  0.00     0.124 HD
ENDBRANCH   6   7
BRANCH   3  10
HETATM   10  O1  UNL     1      -2.800  -3.078 -20.662  1.00  0.00    -0.361 OA
HETATM   11  H7  UNL     1      -3.013  -3.228 -21.597  1.00  0.00     0.217 HD
ENDBRANCH   3  10
TORSDOF 2
ENDMDL
MODEL 18
REMARK VINA RESULT:      -3.6     11.819     12.585
REMARK  2 active torsions:
REMARK  status: ('A' for Active; 'I' for Inactive)
REMARK    1  A    between atoms: C3_3  and  O1_8 
REMARK    2  A    between atoms: C6_6  and  N1_7 
ROOT
HETATM    1  C1  UNL     1     -12.193  -1.779 -10.046  1.00  0.00     0.026 A 
HETATM    2  C2  UNL     1     -13.170  -2.634 -10.561  1.00  0.00     0.038 A 
HETATM    3  C3  UNL     1     -13.955  -3.382  -9.695  1.00  0.00     0.065 A 
HETATM    4  C4  UNL     1     -13.789  -3.276  -8.318  1.00  0.00     0.038 A 
HETATM    5  C5  UNL     1     -12.808  -2.419  -7.810  1.00  0.00     0.026 A 
HETATM    6  C6  UNL     1     -11.968  -1.702  -8.668  1.00  0.00     0.005 A 
ENDROOT
BRANCH   6   7
HETATM    7  N1  UNL     1     -11.072  -0.759  -8.151  1.00  0.00    -0.303 NA
HETATM    8  H5  UNL     1     -11.465   0.174  -8.067  1.00  0.00     0.124 HD
HETATM    9  H6  UNL     1     -10.168  -0.757  -8.611  1.00  0.00     0.124 HD
ENDBRANCH   6   7
BRANCH   3  10
HETATM   10  O1  UNL     1     -14.899  -4.202 -10.236  1.00  0.00    -0.361 OA
HETATM   11  H7  UNL     1     -14.454  -4.974 -10.622  1.00  0.00     0.217 HD
ENDBRANCH   3  10
TORSDOF 2
ENDMDL
MODEL 19
REMARK VINA RESULT:      -3.5      3.501      4.427
REMARK  2 active torsions:
REMARK  status: ('A' for Active; 'I' for Inactive)
REMARK    1  A    between atoms: C3_3  and  O1_8 
REMARK    2  A    between atoms: C6_6  and  N1_7 
ROOT
HETATM    1  C1  UNL     1      -0.646  -3.084 -17.953  1.00  0.00     0.026 A 
HETATM    2  C2  UNL     1       0.072  -2.313 -18.870  1.00  0.00     0.038 A 
HETATM    3  C3  UNL     1      -0.202  -0.959 -18.995  1.00  0.00     0.065 A 
HETATM    4  C4  UNL     1      -1.175  -0.358 -18.202  1.00  0.00     0.038 A 
HETATM    5  C5  UNL     1      -1.890  -1.137 -17.288  1.00  0.00     0.026 A 
HETATM    6  C6  UNL     1      -1.669  -2.514 -17.190  1.00  0.00     0.005 A 
ENDROOT
BRANCH   6   7
HETATM    7  N1  UNL     1      -2.303  -3.261 -16.191  1.00  0.00    -0.303 NA
HETATM    8  H5  UNL     1      -2.244  -2.841 -15.268  1.00  0.00     0.124 HD
HETATM    9  H6  UNL     1      -2.046  -4.242 -16.186  1.00  0.00     0.124 HD
ENDBRANCH   6   7
BRANCH   3  10
HETATM   10  O1  UNL     1       0.521  -0.241 -19.898  1.00  0.00    -0.361 OA
HETATM   11  H7  UNL     1       0.824  -0.840 -20.599  1.00  0.00     0.217 HD
ENDBRANCH   3  10
TORSDOF 2
ENDMDL
MODEL 20
REMARK VINA RESULT:      -3.4      3.060      3.959
REMARK  2 active torsions:
REMARK  status: ('A' for Active; 'I' for Inactive)
REMARK    1  A    between atoms: C3_3  and  O1_8 
REMARK    2  A    between atoms: C6_6  and  N1_7 
ROOT
HETATM    1  C1  UNL     1      -2.771  -3.078 -17.955  1.00  0.00     0.026 A 
HETATM    2  C2  UNL     1      -1.966  -3.977 -18.658  1.00  0.00     0.038 A 
HETATM    3  C3  UNL     1      -0.597  -3.761 -18.735  1.00  0.00     0.065 A 
HETATM    4  C4  UNL     1      -0.018  -2.665 -18.104  1.00  0.00     0.038 A 
HETATM    5  C5  UNL     1      -0.830  -1.769 -17.403  1.00  0.00     0.026 A 
HETATM    6  C6  UNL     1      -2.218  -1.938 -17.364  1.00  0.00     0.005 A 
ENDROOT
BRANCH   6   7
HETATM    7  N1  UNL     1      -3.008  -1.105 -16.563  1.00  0.00    -0.303 NA
HETATM    8  H5  UNL     1      -3.789  -0.686 -17.057  1.00  0.00     0.124 HD
HETATM    9  H6  UNL     1      -2.477  -0.424 -16.032  1.00  0.00     0.124 HD
ENDBRANCH   6   7
BRANCH   3  10
HETATM   10  O1  UNL     1       0.154  -4.662 -19.427  1.00  0.00    -0.361 OA
HETATM   11  H7  UNL     1       0.998  -4.245 -19.664  1.00  0.00     0.217 HD
ENDBRANCH   3  10
TORSDOF 2
ENDMDL
