MODEL 1
REMARK VINA RESULT:      -3.2      0.000      0.000
REMARK  2 active torsions:
REMARK  status: ('A' for Active; 'I' for Inactive)
REMARK    1  A    between atoms: C3_3  and  O1_8 
REMARK    2  A    between atoms: C6_6  and  N1_7 
ROOT
HETATM    1  C1  UNL     1       6.502  17.897  -9.016  1.00  0.00     0.026 A 
HETATM    2  C2  UNL     1       7.368  17.895  -7.921  1.00  0.00     0.038 A 
HETATM    3  C3  UNL     1       6.876  17.608  -6.656  1.00  0.00     0.065 A 
HETATM    4  C4  UNL     1       5.531  17.308  -6.470  1.00  0.00     0.038 A 
HETATM    5  C5  UNL     1       4.670  17.314  -7.571  1.00  0.00     0.026 A 
HETATM    6  C6  UNL     1       5.135  17.658  -8.844  1.00  0.00     0.005 A 
ENDROOT
BRANCH   6   7
HETATM    7  N1  UNL     1       4.293  17.545  -9.957  1.00  0.00    -0.303 NA
HETATM    8  H5  UNL     1       3.357  17.224  -9.729  1.00  0.00     0.124 HD
HETATM    9  H6  UNL     1       4.701  17.030 -10.729  1.00  0.00     0.124 HD
ENDBRANCH   6   7
BRANCH   3  10
HETATM   10  O1  UNL     1       7.754  17.613  -5.613  1.00  0.00    -0.361 OA
HETATM   11  H7  UNL     1       7.329  17.192  -4.849  1.00  0.00     0.217 HD
ENDBRANCH   3  10
TORSDOF 2
ENDMDL
MODEL 2
REMARK VINA RESULT:      -3.2      2.778      3.263
REMARK  2 active torsions:
REMARK  status: ('A' for Active; 'I' for Inactive)
REMARK    1  A    between atoms: C3_3  and  O1_8 
REMARK    2  A    between atoms: C6_6  and  N1_7 
ROOT
HETATM    1  C1  UNL     1       7.403  17.977  -7.970  1.00  0.00     0.026 A 
HETATM    2  C2  UNL     1       6.518  17.899  -9.048  1.00  0.00     0.038 A 
HETATM    3  C3  UNL     1       5.194  17.550  -8.826  1.00  0.00     0.065 A 
HETATM    4  C4  UNL     1       4.735  17.293  -7.539  1.00  0.00     0.038 A 
HETATM    5  C5  UNL     1       5.627  17.372  -6.465  1.00  0.00     0.026 A 
HETATM    6  C6  UNL     1       6.978  17.665  -6.675  1.00  0.00     0.005 A 
ENDROOT
BRANCH   6   7
HETATM    7  N1  UNL     1       7.835  17.858  -5.585  1.00  0.00    -0.303 NA
HETATM    8  H5  UNL     1       7.399  18.336  -4.803  1.00  0.00     0.124 HD
HETATM    9  H6  UNL     1       8.731  18.264  -5.835  1.00  0.00     0.124 HD
ENDBRANCH   6   7
BRANCH   3  10
HETATM   10  O1  UNL     1       4.361  17.487  -9.903  1.00  0.00    -0.361 OA
HETATM   11  H7  UNL     1       4.631  18.165 -10.543  1.00  0.00     0.217 HD
ENDBRANCH   3  10
TORSDOF 2
ENDMDL
MODEL 3
REMARK VINA RESULT:      -3.2      0.428      1.745
REMARK  2 active torsions:
REMARK  status: ('A' for Active; 'I' for Inactive)
REMARK    1  A    between atoms: C3_3  and  O1_8 
REMARK    2  A    between atoms: C6_6  and  N1_7 
ROOT
HETATM    1  C1  UNL     1       5.080  17.239  -7.541  1.00  0.00     0.026 A 
HETATM    2  C2  UNL     1       6.019  17.379  -6.517  1.00  0.00     0.038 A 
HETATM    3  C3  UNL     1       7.280  17.884  -6.805  1.00  0.00     0.065 A 
HETATM    4  C4  UNL     1       7.610  18.266  -8.101  1.00  0.00     0.038 A 
HETATM    5  C5  UNL     1       6.664  18.121  -9.120  1.00  0.00     0.026 A 
HETATM    6  C6  UNL     1       5.410  17.560  -8.861  1.00  0.00     0.005 A 
ENDROOT
BRANCH   6   7
HETATM    7  N1  UNL     1       4.431  17.530  -9.860  1.00  0.00    -0.303 NA
HETATM    8  H5  UNL     1       3.689  16.859  -9.685  1.00  0.00     0.124 HD
HETATM    9  H6  UNL     1       4.806  17.454 -10.800  1.00  0.00     0.124 HD
ENDBRANCH   6   7
BRANCH   3  10
HETATM   10  O1  UNL     1       8.167  18.008  -5.779  1.00  0.00    -0.361 OA
HETATM   11  H7  UNL     1       8.682  18.820  -5.912  1.00  0.00     0.217 HD
ENDBRANCH   3  10
TORSDOF 2
ENDMDL
MODEL 4
REMARK VINA RESULT:      -3.1      2.827      3.518
REMARK  2 active torsions:
REMARK  status: ('A' for Active; 'I' for Inactive)
REMARK    1  A    between atoms: C3_3  and  O1_8 
REMARK    2  A    between atoms: C6_6  and  N1_7 
ROOT
HETATM    1  C1  UNL     1       8.173  18.831  -8.517  1.00  0.00     0.026 A 
HETATM    2  C2  UNL     1       7.145  17.900  -8.343  1.00  0.00     0.038 A 
HETATM    3  C3  UNL     1       6.869  17.410  -7.075  1.00  0.00     0.065 A 
HETATM    4  C4  UNL     1       7.595  17.848  -5.973  1.00  0.00     0.038 A 
HETATM    5  C5  UNL     1       8.622  18.778  -6.155  1.00  0.00     0.026 A 
HETATM    6  C6  UNL     1       8.954  19.240  -7.433  1.00  0.00     0.005 A 
ENDROOT
BRANCH   6   7
HETATM    7  N1  UNL     1       9.902  20.258  -7.590  1.00  0.00    -0.303 NA
HETATM    8  H5  UNL     1      10.732  20.134  -7.019  1.00  0.00     0.124 HD
HETATM    9  H6  UNL     1       9.516  21.193  -7.514  1.00  0.00     0.124 HD
ENDBRANCH   6   7
BRANCH   3  10
HETATM   10  O1  UNL     1       5.858  16.506  -6.946  1.00  0.00    -0.361 OA
HETATM   11  H7  UNL     1       6.244  15.627  -6.800  1.00  0.00     0.217 HD
ENDBRANCH   3  10
TORSDOF 2
ENDMDL
MODEL 5
REMARK VINA RESULT:      -3.1      2.831      3.703
REMARK  2 active torsions:
REMARK  status: ('A' for Active; 'I' for Inactive)
REMARK    1  A    between atoms: C3_3  and  O1_8 
REMARK    2  A    between atoms: C6_6  and  N1_7 
ROOT
HETATM    1  C1  UNL     1       6.220  17.479  -6.597  1.00  0.00     0.026 A 
HETATM    2  C2  UNL     1       5.276  17.231  -7.597  1.00  0.00     0.038 A 
HETATM    3  C3  UNL     1       5.550  17.595  -8.907  1.00  0.00     0.065 A 
HETATM    4  C4  UNL     1       6.763  18.191  -9.237  1.00  0.00     0.038 A 
HETATM    5  C5  UNL     1       7.702  18.437  -8.232  1.00  0.00     0.026 A 
HETATM    6  C6  UNL     1       7.420  18.130  -6.896  1.00  0.00     0.005 A 
ENDROOT
BRANCH   6   7
HETATM    7  N1  UNL     1       8.410  18.270  -5.917  1.00  0.00    -0.303 NA
HETATM    8  H5  UNL     1       8.886  17.402  -5.692  1.00  0.00     0.124 HD
HETATM    9  H6  UNL     1       8.101  18.767  -5.089  1.00  0.00     0.124 HD
ENDBRANCH   6   7
BRANCH   3  10
HETATM   10  O1  UNL     1       4.606  17.334  -9.854  1.00  0.00    -0.361 OA
HETATM   11  H7  UNL     1       4.307  16.417  -9.748  1.00  0.00     0.217 HD
ENDBRANCH   3  10
TORSDOF 2
ENDMDL
MODEL 6
REMARK VINA RESULT:      -2.9      2.117      2.829
REMARK  2 active torsions:
REMARK  status: ('A' for Active; 'I' for Inactive)
REMARK    1  A    between atoms: C3_3  and  O1_8 
REMARK    2  A    between atoms: C6_6  and  N1_7 
ROOT
HETATM    1  C1  UNL     1       4.451  17.036  -6.249  1.00  0.00     0.026 A 
HETATM    2  C2  UNL     1       5.710  16.932  -6.846  1.00  0.00     0.038 A 
HETATM    3  C3  UNL     1       5.891  17.366  -8.151  1.00  0.00     0.065 A 
HETATM    4  C4  UNL     1       4.833  17.919  -8.866  1.00  0.00     0.038 A 
HETATM    5  C5  UNL     1       3.576  18.018  -8.263  1.00  0.00     0.026 A 
HETATM    6  C6  UNL     1       3.361  17.532  -6.969  1.00  0.00     0.005 A 
ENDROOT
BRANCH   6   7
HETATM    7  N1  UNL     1       2.132  17.744  -6.332  1.00  0.00    -0.303 NA
HETATM    8  H5  UNL     1       1.888  17.018  -5.666  1.00  0.00     0.124 HD
HETATM    9  H6  UNL     1       1.371  17.956  -6.969  1.00  0.00     0.124 HD
ENDBRANCH   6   7
BRANCH   3  10
HETATM   10  O1  UNL     1       7.134  17.251  -8.696  1.00  0.00    -0.361 OA
HETATM   11  H7  UNL     1       7.493  18.141  -8.840  1.00  0.00     0.217 HD
ENDBRANCH   3  10
TORSDOF 2
ENDMDL
MODEL 7
REMARK VINA RESULT:      -2.9      2.542      3.142
REMARK  2 active torsions:
REMARK  status: ('A' for Active; 'I' for Inactive)
REMARK    1  A    between atoms: C3_3  and  O1_8 
REMARK    2  A    between atoms: C6_6  and  N1_7 
ROOT
HETATM    1  C1  UNL     1       4.711  17.949  -8.798  1.00  0.00     0.026 A 
HETATM    2  C2  UNL     1       3.449  18.037  -8.205  1.00  0.00     0.038 A 
HETATM    3  C3  UNL     1       3.258  17.554  -6.919  1.00  0.00     0.065 A 
HETATM    4  C4  UNL     1       4.316  16.997  -6.208  1.00  0.00     0.038 A 
HETATM    5  C5  UNL     1       5.575  16.911  -6.808  1.00  0.00     0.026 A 
HETATM    6  C6  UNL     1       5.773  17.339  -8.125  1.00  0.00     0.005 A 
ENDROOT
BRANCH   6   7
HETATM    7  N1  UNL     1       7.060  17.358  -8.674  1.00  0.00    -0.303 NA
HETATM    8  H5  UNL     1       7.777  17.007  -8.046  1.00  0.00     0.124 HD
HETATM    9  H6  UNL     1       7.315  18.246  -9.092  1.00  0.00     0.124 HD
ENDBRANCH   6   7
BRANCH   3  10
HETATM   10  O1  UNL     1       2.014  17.661  -6.374  1.00  0.00    -0.361 OA
HETATM   11  H7  UNL     1       1.751  18.596  -6.383  1.00  0.00     0.217 HD
ENDBRANCH   3  10
TORSDOF 2
ENDMDL
MODEL 8
REMARK VINA RESULT:      -2.8      2.787      3.629
REMARK  2 active torsions:
REMARK  status: ('A' for Active; 'I' for Inactive)
REMARK    1  A    between atoms: C3_3  and  O1_8 
REMARK    2  A    between atoms: C6_6  and  N1_7 
ROOT
HETATM    1  C1  UNL     1       5.132  17.712  -5.864  1.00  0.00     0.026 A 
HETATM    2  C2  UNL     1       5.538  17.352  -7.151  1.00  0.00     0.038 A 
HETATM    3  C3  UNL     1       6.847  17.586  -7.549  1.00  0.00     0.065 A 
HETATM    4  C4  UNL     1       7.762  18.159  -6.673  1.00  0.00     0.038 A 
HETATM    5  C5  UNL     1       7.348  18.517  -5.387  1.00  0.00     0.026 A 
HETATM    6  C6  UNL     1       6.019  18.344  -4.987  1.00  0.00     0.005 A 
ENDROOT
BRANCH   6   7
HETATM    7  N1  UNL     1       5.643  18.594  -3.662  1.00  0.00    -0.303 NA
HETATM    8  H5  UNL     1       4.833  18.062  -3.361  1.00  0.00     0.124 HD
HETATM    9  H6  UNL     1       5.563  19.580  -3.437  1.00  0.00     0.124 HD
ENDBRANCH   6   7
BRANCH   3  10
HETATM   10  O1  UNL     1       7.205  17.219  -8.811  1.00  0.00    -0.361 OA
HETATM   11  H7  UNL     1       6.793  17.831  -9.441  1.00  0.00     0.217 HD
ENDBRANCH   3  10
TORSDOF 2
ENDMDL
MODEL 9
REMARK VINA RESULT:      -2.8      1.838      2.282
REMARK  2 active torsions:
REMARK  status: ('A' for Active; 'I' for Inactive)
REMARK    1  A    between atoms: C3_3  and  O1_8 
REMARK    2  A    between atoms: C6_6  and  N1_7 
ROOT
HETATM    1  C1  UNL     1       5.374  19.018  -9.761  1.00  0.00     0.026 A 
HETATM    2  C2  UNL     1       6.748  19.230  -9.897  1.00  0.00     0.038 A 
HETATM    3  C3  UNL     1       7.631  18.588  -9.040  1.00  0.00     0.065 A 
HETATM    4  C4  UNL     1       7.161  17.722  -8.058  1.00  0.00     0.038 A 
HETATM    5  C5  UNL     1       5.784  17.516  -7.928  1.00  0.00     0.026 A 
HETATM    6  C6  UNL     1       4.876  18.200  -8.743  1.00  0.00     0.005 A 
ENDROOT
BRANCH   6   7
HETATM    7  N1  UNL     1       3.511  17.898  -8.685  1.00  0.00    -0.303 NA
HETATM    8  H5  UNL     1       3.042  18.283  -7.871  1.00  0.00     0.124 HD
HETATM    9  H6  UNL     1       3.302  16.914  -8.821  1.00  0.00     0.124 HD
ENDBRANCH   6   7
BRANCH   3  10
HETATM   10  O1  UNL     1       8.963  18.818  -9.206  1.00  0.00    -0.361 OA
HETATM   11  H7  UNL     1       9.131  19.767  -9.087  1.00  0.00     0.217 HD
ENDBRANCH   3  10
TORSDOF 2
ENDMDL
MODEL 10
REMARK VINA RESULT:      -2.8      2.739      3.510
REMARK  2 active torsions:
REMARK  status: ('A' for Active; 'I' for Inactive)
REMARK    1  A    between atoms: C3_3  and  O1_8 
REMARK    2  A    between atoms: C6_6  and  N1_7 
ROOT
HETATM    1  C1  UNL     1       6.989  17.692  -8.208  1.00  0.00     0.026 A 
HETATM    2  C2  UNL     1       5.624  17.432  -8.073  1.00  0.00     0.038 A 
HETATM    3  C3  UNL     1       4.709  18.141  -8.839  1.00  0.00     0.065 A 
HETATM    4  C4  UNL     1       5.141  19.098  -9.751  1.00  0.00     0.038 A 
HETATM    5  C5  UNL     1       6.509  19.354  -9.880  1.00  0.00     0.026 A 
HETATM    6  C6  UNL     1       7.442  18.691  -9.075  1.00  0.00     0.005 A 
ENDROOT
BRANCH   6   7
HETATM    7  N1  UNL     1       8.813  18.867  -9.295  1.00  0.00    -0.303 NA
HETATM    8  H5  UNL     1       9.339  17.999  -9.308  1.00  0.00     0.124 HD
HETATM    9  H6  UNL     1       9.238  19.567  -8.696  1.00  0.00     0.124 HD
ENDBRANCH   6   7
BRANCH   3  10
HETATM   10  O1  UNL     1       3.386  17.856  -8.680  1.00  0.00    -0.361 OA
HETATM   11  H7  UNL     1       3.285  16.895  -8.591  1.00  0.00     0.217 HD
ENDBRANCH   3  10
TORSDOF 2
ENDMDL
MODEL 11
REMARK VINA RESULT:      -2.8      1.940      2.769
REMARK  2 active torsions:
REMARK  status: ('A' for Active; 'I' for Inactive)
REMARK    1  A    between atoms: C3_3  and  O1_8 
REMARK    2  A    between atoms: C6_6  and  N1_7 
ROOT
HETATM    1  C1  UNL     1       5.256  17.281  -7.156  1.00  0.00     0.026 A 
HETATM    2  C2  UNL     1       4.726  17.576  -5.898  1.00  0.00     0.038 A 
HETATM    3  C3  UNL     1       5.545  18.114  -4.915  1.00  0.00     0.065 A 
HETATM    4  C4  UNL     1       6.885  18.378  -5.177  1.00  0.00     0.038 A 
HETATM    5  C5  UNL     1       7.409  18.079  -6.438  1.00  0.00     0.026 A 
HETATM    6  C6  UNL     1       6.614  17.482  -7.422  1.00  0.00     0.005 A 
ENDROOT
BRANCH   6   7
HETATM    7  N1  UNL     1       7.114  17.297  -8.715  1.00  0.00    -0.303 NA
HETATM    8  H5  UNL     1       6.549  17.732  -9.437  1.00  0.00     0.124 HD
HETATM    9  H6  UNL     1       7.343  16.333  -8.933  1.00  0.00     0.124 HD
ENDBRANCH   6   7
BRANCH   3  10
HETATM   10  O1  UNL     1       4.990  18.391  -3.702  1.00  0.00    -0.361 OA
HETATM   11  H7  UNL     1       5.510  17.944  -3.014  1.00  0.00     0.217 HD
ENDBRANCH   3  10
TORSDOF 2
ENDMDL
MODEL 12
REMARK VINA RESULT:      -2.7      6.617      7.693
REMARK  2 active torsions:
REMARK  status: ('A' for Active; 'I' for Inactive)
REMARK    1  A    between atoms: C3_3  and  O1_8 
REMARK    2  A    between atoms: C6_6  and  N1_7 
ROOT
HETATM    1  C1  UNL     1       2.417  18.464  -0.910  1.00  0.00     0.026 A 
HETATM    2  C2  UNL     1       2.905  18.418  -2.218  1.00  0.00     0.038 A 
HETATM    3  C3  UNL     1       4.175  17.914  -2.461  1.00  0.00     0.065 A 
HETATM    4  C4  UNL     1       4.960  17.440  -1.415  1.00  0.00     0.038 A 
HETATM    5  C5  UNL     1       4.466  17.491  -0.109  1.00  0.00     0.026 A 
HETATM    6  C6  UNL     1       3.212  18.049   0.162  1.00  0.00     0.005 A 
ENDROOT
BRANCH   6   7
HETATM    7  N1  UNL     1       2.677  17.987   1.454  1.00  0.00    -0.303 NA
HETATM    8  H5  UNL     1       2.588  17.042   1.814  1.00  0.00     0.124 HD
HETATM    9  H6  UNL     1       1.827  18.527   1.573  1.00  0.00     0.124 HD
ENDBRANCH   6   7
BRANCH   3  10
HETATM   10  O1  UNL     1       4.614  17.883  -3.750  1.00  0.00    -0.361 OA
HETATM   11  H7  UNL     1       4.154  18.576  -4.251  1.00  0.00     0.217 HD
ENDBRANCH   3  10
TORSDOF 2
ENDMDL
MODEL 13
REMARK VINA RESULT:      -2.7      2.152      3.113
REMARK  2 active torsions:
REMARK  status: ('A' for Active; 'I' for Inactive)
REMARK    1  A    between atoms: C3_3  and  O1_8 
REMARK    2  A    between atoms: C6_6  and  N1_7 
ROOT
HETATM    1  C1  UNL     1       7.073  17.748  -7.399  1.00  0.00     0.026 A 
HETATM    2  C2  UNL     1       7.082  17.567  -6.014  1.00  0.00     0.038 A 
HETATM    3  C3  UNL     1       8.095  18.134  -5.254  1.00  0.00     0.065 A 
HETATM    4  C4  UNL     1       9.092  18.893  -5.856  1.00  0.00     0.038 A 
HETATM    5  C5  UNL     1       9.077  19.068  -7.243  1.00  0.00     0.026 A 
HETATM    6  C6  UNL     1       8.098  18.457  -8.033  1.00  0.00     0.005 A 
ENDROOT
BRANCH   6   7
HETATM    7  N1  UNL     1       8.022  18.735  -9.402  1.00  0.00    -0.303 NA
HETATM    8  H5  UNL     1       8.084  19.724  -9.621  1.00  0.00     0.124 HD
HETATM    9  H6  UNL     1       7.243  18.284  -9.870  1.00  0.00     0.124 HD
ENDBRANCH   6   7
BRANCH   3  10
HETATM   10  O1  UNL     1       8.068  17.938  -3.906  1.00  0.00    -0.361 OA
HETATM   11  H7  UNL     1       7.150  18.013  -3.600  1.00  0.00     0.217 HD
ENDBRANCH   3  10
TORSDOF 2
ENDMDL
MODEL 14
REMARK VINA RESULT:      -2.7      3.029      4.037
REMARK  2 active torsions:
REMARK  status: ('A' for Active; 'I' for Inactive)
REMARK    1  A    between atoms: C3_3  and  O1_8 
REMARK    2  A    between atoms: C6_6  and  N1_7 
ROOT
HETATM    1  C1  UNL     1       1.637  17.629  -7.191  1.00  0.00     0.026 A 
HETATM    2  C2  UNL     1       1.606  16.805  -6.064  1.00  0.00     0.038 A 
HETATM    3  C3  UNL     1       2.796  16.384  -5.487  1.00  0.00     0.065 A 
HETATM    4  C4  UNL     1       4.019  16.788  -6.012  1.00  0.00     0.038 A 
HETATM    5  C5  UNL     1       4.041  17.611  -7.142  1.00  0.00     0.026 A 
HETATM    6  C6  UNL     1       2.854  17.998  -7.771  1.00  0.00     0.005 A 
ENDROOT
BRANCH   6   7
HETATM    7  N1  UNL     1       2.883  18.917  -8.826  1.00  0.00    -0.303 NA
HETATM    8  H5  UNL     1       2.784  19.883  -8.529  1.00  0.00     0.124 HD
HETATM    9  H6  UNL     1       2.259  18.683  -9.591  1.00  0.00     0.124 HD
ENDBRANCH   6   7
BRANCH   3  10
HETATM   10  O1  UNL     1       2.725  15.583  -4.387  1.00  0.00    -0.361 OA
HETATM   11  H7  UNL     1       1.798  15.531  -4.102  1.00  0.00     0.217 HD
ENDBRANCH   3  10
TORSDOF 2
ENDMDL
MODEL 15
REMARK VINA RESULT:      -2.6      2.553      3.296
REMARK  2 active torsions:
REMARK  status: ('A' for Active; 'I' for Inactive)
REMARK    1  A    between atoms: C3_3  and  O1_8 
REMARK    2  A    between atoms: C6_6  and  N1_7 
ROOT
HETATM    1  C1  UNL     1       3.479  17.719  -7.575  1.00  0.00     0.026 A 
HETATM    2  C2  UNL     1       4.064  18.198  -8.749  1.00  0.00     0.038 A 
HETATM    3  C3  UNL     1       5.434  18.077  -8.934  1.00  0.00     0.065 A 
HETATM    4  C4  UNL     1       6.227  17.468  -7.968  1.00  0.00     0.038 A 
HETATM    5  C5  UNL     1       5.635  16.992  -6.795  1.00  0.00     0.026 A 
HETATM    6  C6  UNL     1       4.266  17.157  -6.565  1.00  0.00     0.005 A 
ENDROOT
BRANCH   6   7
HETATM    7  N1  UNL     1       3.664  16.572  -5.444  1.00  0.00    -0.303 NA
HETATM    8  H5  UNL     1       3.192  17.238  -4.841  1.00  0.00     0.124 HD
HETATM    9  H6  UNL     1       4.276  15.949  -4.928  1.00  0.00     0.124 HD
ENDBRANCH   6   7
BRANCH   3  10
HETATM   10  O1  UNL     1       5.966  18.555 -10.094  1.00  0.00    -0.361 OA
HETATM   11  H7  UNL     1       6.932  18.571 -10.008  1.00  0.00     0.217 HD
ENDBRANCH   3  10
TORSDOF 2
ENDMDL
MODEL 16
REMARK VINA RESULT:      -2.6      4.114      5.139
REMARK  2 active torsions:
REMARK  status: ('A' for Active; 'I' for Inactive)
REMARK    1  A    between atoms: C3_3  and  O1_8 
REMARK    2  A    between atoms: C6_6  and  N1_7 
ROOT
HETATM    1  C1  UNL     1       8.429  18.437  -5.580  1.00  0.00     0.026 A 
HETATM    2  C2  UNL     1       8.297  17.918  -4.290  1.00  0.00     0.038 A 
HETATM    3  C3  UNL     1       9.384  17.932  -3.428  1.00  0.00     0.065 A 
HETATM    4  C4  UNL     1      10.600  18.474  -3.830  1.00  0.00     0.038 A 
HETATM    5  C5  UNL     1      10.725  18.991  -5.123  1.00  0.00     0.026 A 
HETATM    6  C6  UNL     1       9.658  18.932  -6.026  1.00  0.00     0.005 A 
ENDROOT
BRANCH   6   7
HETATM    7  N1  UNL     1       9.756  19.557  -7.274  1.00  0.00    -0.303 NA
HETATM    8  H5  UNL     1       9.162  20.376  -7.368  1.00  0.00     0.124 HD
HETATM    9  H6  UNL     1       9.664  18.922  -8.060  1.00  0.00     0.124 HD
ENDBRANCH   6   7
BRANCH   3  10
HETATM   10  O1  UNL     1       9.214  17.419  -2.177  1.00  0.00    -0.361 OA
HETATM   11  H7  UNL     1       9.996  17.636  -1.644  1.00  0.00     0.217 HD
ENDBRANCH   3  10
TORSDOF 2
ENDMDL
MODEL 17
REMARK VINA RESULT:      -2.6      6.343      7.365
REMARK  2 active torsions:
REMARK  status: ('A' for Active; 'I' for Inactive)
REMARK    1  A    between atoms: C3_3  and  O1_8 
REMARK    2  A    between atoms: C6_6  and  N1_7 
ROOT
HETATM    1  C1  UNL     1       2.807  18.437  -2.114  1.00  0.00     0.026 A 
HETATM    2  C2  UNL     1       2.378  18.443  -0.785  1.00  0.00     0.038 A 
HETATM    3  C3  UNL     1       3.213  17.956   0.210  1.00  0.00     0.065 A 
HETATM    4  C4  UNL     1       4.481  17.477  -0.102  1.00  0.00     0.038 A 
HETATM    5  C5  UNL     1       4.903  17.473  -1.435  1.00  0.00     0.026 A 
HETATM    6  C6  UNL     1       4.053  17.904  -2.458  1.00  0.00     0.005 A 
ENDROOT
BRANCH   6   7
HETATM    7  N1  UNL     1       4.527  18.008  -3.771  1.00  0.00    -0.303 NA
HETATM    8  H5  UNL     1       3.932  18.565  -4.376  1.00  0.00     0.124 HD
HETATM    9  H6  UNL     1       4.777  17.118  -4.188  1.00  0.00     0.124 HD
ENDBRANCH   6   7
BRANCH   3  10
HETATM   10  O1  UNL     1       2.759  17.982   1.494  1.00  0.00    -0.361 OA
HETATM   11  H7  UNL     1       2.780  17.079   1.849  1.00  0.00     0.217 HD
ENDBRANCH   3  10
TORSDOF 2
ENDMDL
MODEL 18
REMARK VINA RESULT:      -2.5      8.881      9.749
REMARK  2 active torsions:
REMARK  status: ('A' for Active; 'I' for Inactive)
REMARK    1  A    between atoms: C3_3  and  O1_8 
REMARK    2  A    between atoms: C6_6  and  N1_7 
ROOT
HETATM    1  C1  UNL     1       1.154  18.271  -1.027  1.00  0.00     0.026 A 
HETATM    2  C2  UNL     1       1.495  18.878   0.184  1.00  0.00     0.038 A 
HETATM    3  C3  UNL     1       0.612  18.824   1.253  1.00  0.00     0.065 A 
HETATM    4  C4  UNL     1      -0.602  18.157   1.136  1.00  0.00     0.038 A 
HETATM    5  C5  UNL     1      -0.937  17.553  -0.079  1.00  0.00     0.026 A 
HETATM    6  C6  UNL     1      -0.087  17.647  -1.186  1.00  0.00     0.005 A 
ENDROOT
BRANCH   6   7
HETATM    7  N1  UNL     1      -0.376  16.939  -2.358  1.00  0.00    -0.303 NA
HETATM    8  H5  UNL     1      -1.369  16.853  -2.548  1.00  0.00     0.124 HD
HETATM    9  H6  UNL     1       0.110  16.052  -2.433  1.00  0.00     0.124 HD
ENDBRANCH   6   7
BRANCH   3  10
HETATM   10  O1  UNL     1       0.983  19.427   2.418  1.00  0.00    -0.361 OA
HETATM   11  H7  UNL     1       0.369  20.157   2.598  1.00  0.00     0.217 HD
ENDBRANCH   3  10
TORSDOF 2
ENDMDL
MODEL 19
REMARK VINA RESULT:      -2.5      7.080      7.736
REMARK  2 active torsions:
REMARK  status: ('A' for Active; 'I' for Inactive)
REMARK    1  A    between atoms: C3_3  and  O1_8 
REMARK    2  A    between atoms: C6_6  and  N1_7 
ROOT
HETATM    1  C1  UNL     1       5.492  19.703  -0.785  1.00  0.00     0.026 A 
HETATM    2  C2  UNL     1       4.385  19.344  -0.012  1.00  0.00     0.038 A 
HETATM    3  C3  UNL     1       4.087  18.002   0.180  1.00  0.00     0.065 A 
HETATM    4  C4  UNL     1       4.890  17.012  -0.375  1.00  0.00     0.038 A 
HETATM    5  C5  UNL     1       5.996  17.379  -1.148  1.00  0.00     0.026 A 
HETATM    6  C6  UNL     1       6.278  18.725  -1.402  1.00  0.00     0.005 A 
ENDROOT
BRANCH   6   7
HETATM    7  N1  UNL     1       7.451  19.084  -2.075  1.00  0.00    -0.303 NA
HETATM    8  H5  UNL     1       7.288  19.625  -2.919  1.00  0.00     0.124 HD
HETATM    9  H6  UNL     1       8.089  18.310  -2.230  1.00  0.00     0.124 HD
ENDBRANCH   6   7
BRANCH   3  10
HETATM   10  O1  UNL     1       3.001  17.693   0.942  1.00  0.00    -0.361 OA
HETATM   11  H7  UNL     1       2.744  16.775   0.758  1.00  0.00     0.217 HD
ENDBRANCH   3  10
TORSDOF 2
ENDMDL
MODEL 20
REMARK VINA RESULT:      -2.5      8.767      9.755
REMARK  2 active torsions:
REMARK  status: ('A' for Active; 'I' for Inactive)
REMARK    1  A    between atoms: C3_3  and  O1_8 
REMARK    2  A    between atoms: C6_6  and  N1_7 
ROOT
HETATM    1  C1  UNL     1      -1.591  16.925  -0.632  1.00  0.00     0.026 A 
HETATM    2  C2  UNL     1      -1.140  17.641   0.479  1.00  0.00     0.038 A 
HETATM    3  C3  UNL     1      -0.014  18.444   0.369  1.00  0.00     0.065 A 
HETATM    4  C4  UNL     1       0.660  18.555  -0.842  1.00  0.00     0.038 A 
HETATM    5  C5  UNL     1       0.204  17.834  -1.950  1.00  0.00     0.026 A 
HETATM    6  C6  UNL     1      -0.894  16.975  -1.843  1.00  0.00     0.005 A 
ENDROOT
BRANCH   6   7
HETATM    7  N1  UNL     1      -1.415  16.352  -2.983  1.00  0.00    -0.303 NA
HETATM    8  H5  UNL     1      -1.193  16.834  -3.848  1.00  0.00     0.124 HD
HETATM    9  H6  UNL     1      -2.400  16.121  -2.911  1.00  0.00     0.124 HD
ENDBRANCH   6   7
BRANCH   3  10
HETATM   10  O1  UNL     1       0.393  19.128   1.475  1.00  0.00    -0.361 OA
HETATM   11  H7  UNL     1      -0.013  18.722   2.257  1.00  0.00     0.217 HD
ENDBRANCH   3  10
TORSDOF 2
ENDMDL
