MODEL 1
REMARK VINA RESULT:      -4.5      0.000      0.000
REMARK  2 active torsions:
REMARK  status: ('A' for Active; 'I' for Inactive)
REMARK    1  A    between atoms: C3_3  and  O1_8 
REMARK    2  A    between atoms: C6_6  and  N1_7 
ROOT
HETATM    1  C1  UNL     1      11.401   3.992  -3.307  1.00  0.00     0.026 A 
HETATM    2  C2  UNL     1      11.088   4.998  -4.224  1.00  0.00     0.038 A 
HETATM    3  C3  UNL     1       9.949   5.768  -4.038  1.00  0.00     0.065 A 
HETATM    4  C4  UNL     1       9.125   5.559  -2.937  1.00  0.00     0.038 A 
HETATM    5  C5  UNL     1       9.445   4.550  -2.024  1.00  0.00     0.026 A 
HETATM    6  C6  UNL     1      10.556   3.725  -2.226  1.00  0.00     0.005 A 
ENDROOT
BRANCH   6   7
HETATM    7  N1  UNL     1      10.933   2.799  -1.247  1.00  0.00    -0.303 NA
HETATM    8  H5  UNL     1      10.203   2.601  -0.570  1.00  0.00     0.124 HD
HETATM    9  H6  UNL     1      11.823   3.007  -0.806  1.00  0.00     0.124 HD
ENDBRANCH   6   7
BRANCH   3  10
HETATM   10  O1  UNL     1       9.679   6.741  -4.953  1.00  0.00    -0.361 OA
HETATM   11  H7  UNL     1       8.814   6.559  -5.353  1.00  0.00     0.217 HD
ENDBRANCH   3  10
TORSDOF 2
ENDMDL
MODEL 2
REMARK VINA RESULT:      -4.5      0.085      1.706
REMARK  2 active torsions:
REMARK  status: ('A' for Active; 'I' for Inactive)
REMARK    1  A    between atoms: C3_3  and  O1_8 
REMARK    2  A    between atoms: C6_6  and  N1_7 
ROOT
HETATM    1  C1  UNL     1       9.511   4.597  -2.029  1.00  0.00     0.026 A 
HETATM    2  C2  UNL     1       9.180   5.584  -2.961  1.00  0.00     0.038 A 
HETATM    3  C3  UNL     1       9.994   5.787  -4.066  1.00  0.00     0.065 A 
HETATM    4  C4  UNL     1      11.128   5.006  -4.263  1.00  0.00     0.038 A 
HETATM    5  C5  UNL     1      11.453   4.022  -3.325  1.00  0.00     0.026 A 
HETATM    6  C6  UNL     1      10.678   3.842  -2.175  1.00  0.00     0.005 A 
ENDROOT
BRANCH   6   7
HETATM    7  N1  UNL     1      10.943   2.778  -1.305  1.00  0.00    -0.303 NA
HETATM    8  H5  UNL     1      11.141   1.903  -1.780  1.00  0.00     0.124 HD
HETATM    9  H6  UNL     1      10.256   2.670  -0.567  1.00  0.00     0.124 HD
ENDBRANCH   6   7
BRANCH   3  10
HETATM   10  O1  UNL     1       9.635   6.756  -4.953  1.00  0.00    -0.361 OA
HETATM   11  H7  UNL     1       9.751   6.411  -5.853  1.00  0.00     0.217 HD
ENDBRANCH   3  10
TORSDOF 2
ENDMDL
MODEL 3
REMARK VINA RESULT:      -4.5      3.002      3.791
REMARK  2 active torsions:
REMARK  status: ('A' for Active; 'I' for Inactive)
REMARK    1  A    between atoms: C3_3  and  O1_8 
REMARK    2  A    between atoms: C6_6  and  N1_7 
ROOT
HETATM    1  C1  UNL     1       9.454   5.903  -3.298  1.00  0.00     0.026 A 
HETATM    2  C2  UNL     1       9.823   4.942  -2.354  1.00  0.00     0.038 A 
HETATM    3  C3  UNL     1      11.167   4.689  -2.118  1.00  0.00     0.065 A 
HETATM    4  C4  UNL     1      12.150   5.397  -2.800  1.00  0.00     0.038 A 
HETATM    5  C5  UNL     1      11.774   6.358  -3.744  1.00  0.00     0.026 A 
HETATM    6  C6  UNL     1      10.426   6.584  -4.038  1.00  0.00     0.005 A 
ENDROOT
BRANCH   6   7
HETATM    7  N1  UNL     1      10.057   7.628  -4.895  1.00  0.00    -0.303 NA
HETATM    8  H5  UNL     1       9.212   7.440  -5.426  1.00  0.00     0.124 HD
HETATM    9  H6  UNL     1      10.814   7.966  -5.479  1.00  0.00     0.124 HD
ENDBRANCH   6   7
BRANCH   3  10
HETATM   10  O1  UNL     1      11.486   3.746  -1.188  1.00  0.00    -0.361 OA
HETATM   11  H7  UNL     1      10.684   3.246  -0.967  1.00  0.00     0.217 HD
ENDBRANCH   3  10
TORSDOF 2
ENDMDL
MODEL 4
REMARK VINA RESULT:      -4.4      2.779      3.264
REMARK  2 active torsions:
REMARK  status: ('A' for Active; 'I' for Inactive)
REMARK    1  A    between atoms: C3_3  and  O1_8 
REMARK    2  A    between atoms: C6_6  and  N1_7 
ROOT
HETATM    1  C1  UNL     1      11.143   4.951  -4.168  1.00  0.00     0.026 A 
HETATM    2  C2  UNL     1      11.465   3.938  -3.262  1.00  0.00     0.038 A 
HETATM    3  C3  UNL     1      10.666   3.735  -2.146  1.00  0.00     0.065 A 
HETATM    4  C4  UNL     1       9.539   4.520  -1.928  1.00  0.00     0.038 A 
HETATM    5  C5  UNL     1       9.224   5.533  -2.839  1.00  0.00     0.026 A 
HETATM    6  C6  UNL     1      10.049   5.792  -3.938  1.00  0.00     0.005 A 
ENDROOT
BRANCH   6   7
HETATM    7  N1  UNL     1       9.662   6.726  -4.905  1.00  0.00    -0.303 NA
HETATM    8  H5  UNL     1       9.479   6.318  -5.817  1.00  0.00     0.124 HD
HETATM    9  H6  UNL     1      10.270   7.536  -4.960  1.00  0.00     0.124 HD
ENDBRANCH   6   7
BRANCH   3  10
HETATM   10  O1  UNL     1      11.012   2.735  -1.287  1.00  0.00    -0.361 OA
HETATM   11  H7  UNL     1      10.205   2.275  -1.006  1.00  0.00     0.217 HD
ENDBRANCH   3  10
TORSDOF 2
ENDMDL
MODEL 5
REMARK VINA RESULT:      -4.4      3.016      3.468
REMARK  2 active torsions:
REMARK  status: ('A' for Active; 'I' for Inactive)
REMARK    1  A    between atoms: C3_3  and  O1_8 
REMARK    2  A    between atoms: C6_6  and  N1_7 
ROOT
HETATM    1  C1  UNL     1      11.760   6.422  -3.650  1.00  0.00     0.026 A 
HETATM    2  C2  UNL     1      12.111   5.428  -2.734  1.00  0.00     0.038 A 
HETATM    3  C3  UNL     1      11.118   4.708  -2.086  1.00  0.00     0.065 A 
HETATM    4  C4  UNL     1       9.776   4.956  -2.352  1.00  0.00     0.038 A 
HETATM    5  C5  UNL     1       9.432   5.953  -3.269  1.00  0.00     0.026 A 
HETATM    6  C6  UNL     1      10.417   6.729  -3.888  1.00  0.00     0.005 A 
ENDROOT
BRANCH   6   7
HETATM    7  N1  UNL     1      10.068   7.641  -4.891  1.00  0.00    -0.303 NA
HETATM    8  H5  UNL     1      10.865   8.014  -5.398  1.00  0.00     0.124 HD
HETATM    9  H6  UNL     1       9.433   8.368  -4.581  1.00  0.00     0.124 HD
ENDBRANCH   6   7
BRANCH   3  10
HETATM   10  O1  UNL     1      11.501   3.745  -1.202  1.00  0.00    -0.361 OA
HETATM   11  H7  UNL     1      12.182   3.193  -1.620  1.00  0.00     0.217 HD
ENDBRANCH   3  10
TORSDOF 2
ENDMDL
MODEL 6
REMARK VINA RESULT:      -4.3      2.096      2.497
REMARK  2 active torsions:
REMARK  status: ('A' for Active; 'I' for Inactive)
REMARK    1  A    between atoms: C3_3  and  O1_8 
REMARK    2  A    between atoms: C6_6  and  N1_7 
ROOT
HETATM    1  C1  UNL     1      12.704   6.466  -3.019  1.00  0.00     0.026 A 
HETATM    2  C2  UNL     1      11.567   6.492  -3.831  1.00  0.00     0.038 A 
HETATM    3  C3  UNL     1      10.698   5.411  -3.831  1.00  0.00     0.065 A 
HETATM    4  C4  UNL     1      10.938   4.309  -3.019  1.00  0.00     0.038 A 
HETATM    5  C5  UNL     1      12.079   4.289  -2.210  1.00  0.00     0.026 A 
HETATM    6  C6  UNL     1      12.997   5.343  -2.240  1.00  0.00     0.005 A 
ENDROOT
BRANCH   6   7
HETATM    7  N1  UNL     1      14.070   5.369  -1.341  1.00  0.00    -0.303 NA
HETATM    8  H5  UNL     1      14.762   6.081  -1.553  1.00  0.00     0.124 HD
HETATM    9  H6  UNL     1      14.489   4.460  -1.177  1.00  0.00     0.124 HD
ENDBRANCH   6   7
BRANCH   3  10
HETATM   10  O1  UNL     1       9.599   5.476  -4.635  1.00  0.00    -0.361 OA
HETATM   11  H7  UNL     1       8.829   5.165  -4.132  1.00  0.00     0.217 HD
ENDBRANCH   3  10
TORSDOF 2
ENDMDL
MODEL 7
REMARK VINA RESULT:      -4.3      2.102      2.609
REMARK  2 active torsions:
REMARK  status: ('A' for Active; 'I' for Inactive)
REMARK    1  A    between atoms: C3_3  and  O1_8 
REMARK    2  A    between atoms: C6_6  and  N1_7 
ROOT
HETATM    1  C1  UNL     1      11.772   4.676  -2.622  1.00  0.00     0.026 A 
HETATM    2  C2  UNL     1      10.678   5.015  -3.421  1.00  0.00     0.038 A 
HETATM    3  C3  UNL     1      10.663   6.234  -4.085  1.00  0.00     0.065 A 
HETATM    4  C4  UNL     1      11.735   7.113  -3.975  1.00  0.00     0.038 A 
HETATM    5  C5  UNL     1      12.826   6.767  -3.172  1.00  0.00     0.026 A 
HETATM    6  C6  UNL     1      12.833   5.570  -2.449  1.00  0.00     0.005 A 
ENDROOT
BRANCH   6   7
HETATM    7  N1  UNL     1      13.978   5.178  -1.745  1.00  0.00    -0.303 NA
HETATM    8  H5  UNL     1      14.155   4.179  -1.778  1.00  0.00     0.124 HD
HETATM    9  H6  UNL     1      14.026   5.549  -0.802  1.00  0.00     0.124 HD
ENDBRANCH   6   7
BRANCH   3  10
HETATM   10  O1  UNL     1       9.580   6.527  -4.857  1.00  0.00    -0.361 OA
HETATM   11  H7  UNL     1       9.224   5.700  -5.219  1.00  0.00     0.217 HD
ENDBRANCH   3  10
TORSDOF 2
ENDMDL
MODEL 8
REMARK VINA RESULT:      -4.2      1.505      1.895
REMARK  2 active torsions:
REMARK  status: ('A' for Active; 'I' for Inactive)
REMARK    1  A    between atoms: C3_3  and  O1_8 
REMARK    2  A    between atoms: C6_6  and  N1_7 
ROOT
HETATM    1  C1  UNL     1       9.699   4.353  -2.209  1.00  0.00     0.026 A 
HETATM    2  C2  UNL     1      10.173   5.190  -3.221  1.00  0.00     0.038 A 
HETATM    3  C3  UNL     1       9.295   6.038  -3.880  1.00  0.00     0.065 A 
HETATM    4  C4  UNL     1       7.949   6.074  -3.532  1.00  0.00     0.038 A 
HETATM    5  C5  UNL     1       7.481   5.232  -2.519  1.00  0.00     0.026 A 
HETATM    6  C6  UNL     1       8.339   4.329  -1.883  1.00  0.00     0.005 A 
ENDROOT
BRANCH   6   7
HETATM    7  N1  UNL     1       7.888   3.577  -0.791  1.00  0.00    -0.303 NA
HETATM    8  H5  UNL     1       6.889   3.398  -0.805  1.00  0.00     0.124 HD
HETATM    9  H6  UNL     1       8.206   3.926   0.106  1.00  0.00     0.124 HD
ENDBRANCH   6   7
BRANCH   3  10
HETATM   10  O1  UNL     1       9.797   6.841  -4.860  1.00  0.00    -0.361 OA
HETATM   11  H7  UNL     1       9.576   6.453  -5.722  1.00  0.00     0.217 HD
ENDBRANCH   3  10
TORSDOF 2
ENDMDL
MODEL 9
REMARK VINA RESULT:      -4.2      3.183      3.726
REMARK  2 active torsions:
REMARK  status: ('A' for Active; 'I' for Inactive)
REMARK    1  A    between atoms: C3_3  and  O1_8 
REMARK    2  A    between atoms: C6_6  and  N1_7 
ROOT
HETATM    1  C1  UNL     1      11.735   7.089  -3.661  1.00  0.00     0.026 A 
HETATM    2  C2  UNL     1      12.839   6.720  -2.889  1.00  0.00     0.038 A 
HETATM    3  C3  UNL     1      12.908   5.440  -2.357  1.00  0.00     0.065 A 
HETATM    4  C4  UNL     1      11.897   4.517  -2.599  1.00  0.00     0.038 A 
HETATM    5  C5  UNL     1      10.795   4.894  -3.372  1.00  0.00     0.026 A 
HETATM    6  C6  UNL     1      10.679   6.197  -3.867  1.00  0.00     0.005 A 
ENDROOT
BRANCH   6   7
HETATM    7  N1  UNL     1       9.634   6.530  -4.737  1.00  0.00    -0.303 NA
HETATM    8  H5  UNL     1       9.179   7.409  -4.510  1.00  0.00     0.124 HD
HETATM    9  H6  UNL     1       8.969   5.778  -4.886  1.00  0.00     0.124 HD
ENDBRANCH   6   7
BRANCH   3  10
HETATM   10  O1  UNL     1      14.002   5.117  -1.611  1.00  0.00    -0.361 OA
HETATM   11  H7  UNL     1      14.687   5.789  -1.758  1.00  0.00     0.217 HD
ENDBRANCH   3  10
TORSDOF 2
ENDMDL
MODEL 10
REMARK VINA RESULT:      -4.2      1.578      2.512
REMARK  2 active torsions:
REMARK  status: ('A' for Active; 'I' for Inactive)
REMARK    1  A    between atoms: C3_3  and  O1_8 
REMARK    2  A    between atoms: C6_6  and  N1_7 
ROOT
HETATM    1  C1  UNL     1       7.494   5.615  -2.395  1.00  0.00     0.026 A 
HETATM    2  C2  UNL     1       8.016   6.397  -3.428  1.00  0.00     0.038 A 
HETATM    3  C3  UNL     1       9.318   6.187  -3.859  1.00  0.00     0.065 A 
HETATM    4  C4  UNL     1      10.102   5.193  -3.283  1.00  0.00     0.038 A 
HETATM    5  C5  UNL     1       9.573   4.416  -2.248  1.00  0.00     0.026 A 
HETATM    6  C6  UNL     1       8.284   4.652  -1.761  1.00  0.00     0.005 A 
ENDROOT
BRANCH   6   7
HETATM    7  N1  UNL     1       7.722   3.793  -0.810  1.00  0.00    -0.303 NA
HETATM    8  H5  UNL     1       7.180   3.035  -1.214  1.00  0.00     0.124 HD
HETATM    9  H6  UNL     1       7.223   4.272  -0.068  1.00  0.00     0.124 HD
ENDBRANCH   6   7
BRANCH   3  10
HETATM   10  O1  UNL     1       9.789   6.968  -4.871  1.00  0.00    -0.361 OA
HETATM   11  H7  UNL     1      10.321   6.416  -5.466  1.00  0.00     0.217 HD
ENDBRANCH   3  10
TORSDOF 2
ENDMDL
MODEL 11
REMARK VINA RESULT:      -4.2      1.837      2.051
REMARK  2 active torsions:
REMARK  status: ('A' for Active; 'I' for Inactive)
REMARK    1  A    between atoms: C3_3  and  O1_8 
REMARK    2  A    between atoms: C6_6  and  N1_7 
ROOT
HETATM    1  C1  UNL     1      12.714   5.765  -2.428  1.00  0.00     0.026 A 
HETATM    2  C2  UNL     1      12.732   6.794  -3.372  1.00  0.00     0.038 A 
HETATM    3  C3  UNL     1      11.677   6.927  -4.265  1.00  0.00     0.065 A 
HETATM    4  C4  UNL     1      10.596   6.055  -4.218  1.00  0.00     0.038 A 
HETATM    5  C5  UNL     1      10.585   5.026  -3.271  1.00  0.00     0.026 A 
HETATM    6  C6  UNL     1      11.665   4.840  -2.402  1.00  0.00     0.005 A 
ENDROOT
BRANCH   6   7
HETATM    7  N1  UNL     1      11.593   3.885  -1.382  1.00  0.00    -0.303 NA
HETATM    8  H5  UNL     1      10.645   3.599  -1.158  1.00  0.00     0.124 HD
HETATM    9  H6  UNL     1      12.129   4.126  -0.555  1.00  0.00     0.124 HD
ENDBRANCH   6   7
BRANCH   3  10
HETATM   10  O1  UNL     1      11.731   7.946  -5.169  1.00  0.00    -0.361 OA
HETATM   11  H7  UNL     1      12.264   7.659  -5.927  1.00  0.00     0.217 HD
ENDBRANCH   3  10
TORSDOF 2
ENDMDL
MODEL 12
REMARK VINA RESULT:      -4.2      3.005      3.611
REMARK  2 active torsions:
REMARK  status: ('A' for Active; 'I' for Inactive)
REMARK    1  A    between atoms: C3_3  and  O1_8 
REMARK    2  A    between atoms: C6_6  and  N1_7 
ROOT
HETATM    1  C1  UNL     1      10.804   4.483  -3.121  1.00  0.00     0.026 A 
HETATM    2  C2  UNL     1      11.971   4.332  -2.368  1.00  0.00     0.038 A 
HETATM    3  C3  UNL     1      12.906   5.356  -2.336  1.00  0.00     0.065 A 
HETATM    4  C4  UNL     1      12.686   6.538  -3.034  1.00  0.00     0.038 A 
HETATM    5  C5  UNL     1      11.517   6.682  -3.787  1.00  0.00     0.026 A 
HETATM    6  C6  UNL     1      10.590   5.638  -3.879  1.00  0.00     0.005 A 
ENDROOT
BRANCH   6   7
HETATM    7  N1  UNL     1       9.370   5.835  -4.536  1.00  0.00    -0.303 NA
HETATM    8  H5  UNL     1       8.755   6.492  -4.065  1.00  0.00     0.124 HD
HETATM    9  H6  UNL     1       8.896   4.974  -4.788  1.00  0.00     0.124 HD
ENDBRANCH   6   7
BRANCH   3  10
HETATM   10  O1  UNL     1      14.030   5.171  -1.588  1.00  0.00    -0.361 OA
HETATM   11  H7  UNL     1      14.617   4.556  -2.057  1.00  0.00     0.217 HD
ENDBRANCH   3  10
TORSDOF 2
ENDMDL
MODEL 13
REMARK VINA RESULT:      -4.1      2.985      3.846
REMARK  2 active torsions:
REMARK  status: ('A' for Active; 'I' for Inactive)
REMARK    1  A    between atoms: C3_3  and  O1_8 
REMARK    2  A    between atoms: C6_6  and  N1_7 
ROOT
HETATM    1  C1  UNL     1       8.100   6.475  -3.459  1.00  0.00     0.026 A 
HETATM    2  C2  UNL     1       7.629   5.583  -2.492  1.00  0.00     0.038 A 
HETATM    3  C3  UNL     1       8.506   4.688  -1.896  1.00  0.00     0.065 A 
HETATM    4  C4  UNL     1       9.853   4.682  -2.241  1.00  0.00     0.038 A 
HETATM    5  C5  UNL     1      10.317   5.576  -3.210  1.00  0.00     0.026 A 
HETATM    6  C6  UNL     1       9.438   6.445  -3.864  1.00  0.00     0.005 A 
ENDROOT
BRANCH   6   7
HETATM    7  N1  UNL     1       9.930   7.416  -4.744  1.00  0.00    -0.303 NA
HETATM    8  H5  UNL     1      10.544   8.093  -4.302  1.00  0.00     0.124 HD
HETATM    9  H6  UNL     1       9.214   7.856  -5.312  1.00  0.00     0.124 HD
ENDBRANCH   6   7
BRANCH   3  10
HETATM   10  O1  UNL     1       8.008   3.837  -0.956  1.00  0.00    -0.361 OA
HETATM   11  H7  UNL     1       8.127   4.239  -0.081  1.00  0.00     0.217 HD
ENDBRANCH   3  10
TORSDOF 2
ENDMDL
MODEL 14
REMARK VINA RESULT:      -4.1      4.248      4.857
REMARK  2 active torsions:
REMARK  status: ('A' for Active; 'I' for Inactive)
REMARK    1  A    between atoms: C3_3  and  O1_8 
REMARK    2  A    between atoms: C6_6  and  N1_7 
ROOT
HETATM    1  C1  UNL     1      13.863   7.917  -3.832  1.00  0.00     0.026 A 
HETATM    2  C2  UNL     1      14.240   7.139  -2.735  1.00  0.00     0.038 A 
HETATM    3  C3  UNL     1      13.436   6.082  -2.332  1.00  0.00     0.065 A 
HETATM    4  C4  UNL     1      12.266   5.781  -3.020  1.00  0.00     0.038 A 
HETATM    5  C5  UNL     1      11.894   6.565  -4.116  1.00  0.00     0.026 A 
HETATM    6  C6  UNL     1      12.660   7.670  -4.501  1.00  0.00     0.005 A 
ENDROOT
BRANCH   6   7
HETATM    7  N1  UNL     1      12.344   8.374  -5.668  1.00  0.00    -0.303 NA
HETATM    8  H5  UNL     1      11.920   7.799  -6.389  1.00  0.00     0.124 HD
HETATM    9  H6  UNL     1      13.107   8.941  -6.024  1.00  0.00     0.124 HD
ENDBRANCH   6   7
BRANCH   3  10
HETATM   10  O1  UNL     1      13.841   5.345  -1.260  1.00  0.00    -0.361 OA
HETATM   11  H7  UNL     1      14.601   5.787  -0.849  1.00  0.00     0.217 HD
ENDBRANCH   3  10
TORSDOF 2
ENDMDL
MODEL 15
REMARK VINA RESULT:      -4.1      3.004      3.622
REMARK  2 active torsions:
REMARK  status: ('A' for Active; 'I' for Inactive)
REMARK    1  A    between atoms: C3_3  and  O1_8 
REMARK    2  A    between atoms: C6_6  and  N1_7 
ROOT
HETATM    1  C1  UNL     1      10.091   5.541  -3.353  1.00  0.00     0.026 A 
HETATM    2  C2  UNL     1       9.531   4.703  -2.386  1.00  0.00     0.038 A 
HETATM    3  C3  UNL     1       8.317   5.039  -1.805  1.00  0.00     0.065 A 
HETATM    4  C4  UNL     1       7.644   6.194  -2.188  1.00  0.00     0.038 A 
HETATM    5  C5  UNL     1       8.212   7.029  -3.155  1.00  0.00     0.026 A 
HETATM    6  C6  UNL     1       9.462   6.737  -3.710  1.00  0.00     0.005 A 
ENDROOT
BRANCH   6   7
HETATM    7  N1  UNL     1       9.965   7.512  -4.761  1.00  0.00    -0.303 NA
HETATM    8  H5  UNL     1       9.963   8.509  -4.569  1.00  0.00     0.124 HD
HETATM    9  H6  UNL     1       9.559   7.292  -5.664  1.00  0.00     0.124 HD
ENDBRANCH   6   7
BRANCH   3  10
HETATM   10  O1  UNL     1       7.802   4.195  -0.867  1.00  0.00    -0.361 OA
HETATM   11  H7  UNL     1       6.834   4.202  -0.942  1.00  0.00     0.217 HD
ENDBRANCH   3  10
TORSDOF 2
ENDMDL
MODEL 16
REMARK VINA RESULT:      -4.0      2.574      3.047
REMARK  2 active torsions:
REMARK  status: ('A' for Active; 'I' for Inactive)
REMARK    1  A    between atoms: C3_3  and  O1_8 
REMARK    2  A    between atoms: C6_6  and  N1_7 
ROOT
HETATM    1  C1  UNL     1      10.010   6.593  -4.278  1.00  0.00     0.026 A 
HETATM    2  C2  UNL     1      11.363   6.608  -3.933  1.00  0.00     0.038 A 
HETATM    3  C3  UNL     1      11.828   5.763  -2.934  1.00  0.00     0.065 A 
HETATM    4  C4  UNL     1      10.962   4.891  -2.285  1.00  0.00     0.038 A 
HETATM    5  C5  UNL     1       9.608   4.882  -2.635  1.00  0.00     0.026 A 
HETATM    6  C6  UNL     1       9.110   5.767  -3.597  1.00  0.00     0.005 A 
ENDROOT
BRANCH   6   7
HETATM    7  N1  UNL     1       7.781   5.668  -4.024  1.00  0.00    -0.303 NA
HETATM    8  H5  UNL     1       7.264   4.917  -3.578  1.00  0.00     0.124 HD
HETATM    9  H6  UNL     1       7.673   5.666  -5.032  1.00  0.00     0.124 HD
ENDBRANCH   6   7
BRANCH   3  10
HETATM   10  O1  UNL     1      13.155   5.806  -2.629  1.00  0.00    -0.361 OA
HETATM   11  H7  UNL     1      13.400   6.726  -2.438  1.00  0.00     0.217 HD
ENDBRANCH   3  10
TORSDOF 2
ENDMDL
MODEL 17
REMARK VINA RESULT:      -3.9      2.895      3.735
REMARK  2 active torsions:
REMARK  status: ('A' for Active; 'I' for Inactive)
REMARK    1  A    between atoms: C3_3  and  O1_8 
REMARK    2  A    between atoms: C6_6  and  N1_7 
ROOT
HETATM    1  C1  UNL     1       8.326   7.537  -3.022  1.00  0.00     0.026 A 
HETATM    2  C2  UNL     1       9.332   8.482  -2.809  1.00  0.00     0.038 A 
HETATM    3  C3  UNL     1      10.616   8.235  -3.273  1.00  0.00     0.065 A 
HETATM    4  C4  UNL     1      10.907   7.063  -3.962  1.00  0.00     0.038 A 
HETATM    5  C5  UNL     1       9.895   6.121  -4.170  1.00  0.00     0.026 A 
HETATM    6  C6  UNL     1       8.609   6.325  -3.659  1.00  0.00     0.005 A 
ENDROOT
BRANCH   6   7
HETATM    7  N1  UNL     1       7.576   5.434  -3.974  1.00  0.00    -0.303 NA
HETATM    8  H5  UNL     1       7.873   4.464  -4.016  1.00  0.00     0.124 HD
HETATM    9  H6  UNL     1       7.033   5.707  -4.785  1.00  0.00     0.124 HD
ENDBRANCH   6   7
BRANCH   3  10
HETATM   10  O1  UNL     1      11.569   9.183  -3.049  1.00  0.00    -0.361 OA
HETATM   11  H7  UNL     1      11.731   9.662  -3.877  1.00  0.00     0.217 HD
ENDBRANCH   3  10
TORSDOF 2
ENDMDL
MODEL 18
REMARK VINA RESULT:      -3.8      1.522      2.385
REMARK  2 active torsions:
REMARK  status: ('A' for Active; 'I' for Inactive)
REMARK    1  A    between atoms: C3_3  and  O1_8 
REMARK    2  A    between atoms: C6_6  and  N1_7 
ROOT
HETATM    1  C1  UNL     1       9.471   5.321  -2.341  1.00  0.00     0.026 A 
HETATM    2  C2  UNL     1       8.950   6.604  -2.525  1.00  0.00     0.038 A 
HETATM    3  C3  UNL     1       9.477   7.424  -3.513  1.00  0.00     0.065 A 
HETATM    4  C4  UNL     1      10.507   6.975  -4.331  1.00  0.00     0.038 A 
HETATM    5  C5  UNL     1      11.024   5.690  -4.140  1.00  0.00     0.026 A 
HETATM    6  C6  UNL     1      10.546   4.870  -3.112  1.00  0.00     0.005 A 
ENDROOT
BRANCH   6   7
HETATM    7  N1  UNL     1      10.986   3.546  -3.005  1.00  0.00    -0.303 NA
HETATM    8  H5  UNL     1      11.122   3.238  -2.047  1.00  0.00     0.124 HD
HETATM    9  H6  UNL     1      11.780   3.328  -3.597  1.00  0.00     0.124 HD
ENDBRANCH   6   7
BRANCH   3  10
HETATM   10  O1  UNL     1       8.940   8.667  -3.663  1.00  0.00    -0.361 OA
HETATM   11  H7  UNL     1       8.731   8.803  -4.601  1.00  0.00     0.217 HD
ENDBRANCH   3  10
TORSDOF 2
ENDMDL
MODEL 19
REMARK VINA RESULT:      -3.8      2.991      3.592
REMARK  2 active torsions:
REMARK  status: ('A' for Active; 'I' for Inactive)
REMARK    1  A    between atoms: C3_3  and  O1_8 
REMARK    2  A    between atoms: C6_6  and  N1_7 
ROOT
HETATM    1  C1  UNL     1      12.974   5.761  -2.371  1.00  0.00     0.026 A 
HETATM    2  C2  UNL     1      12.215   4.597  -2.238  1.00  0.00     0.038 A 
HETATM    3  C3  UNL     1      11.179   4.346  -3.126  1.00  0.00     0.065 A 
HETATM    4  C4  UNL     1      10.900   5.236  -4.158  1.00  0.00     0.038 A 
HETATM    5  C5  UNL     1      11.663   6.400  -4.284  1.00  0.00     0.026 A 
HETATM    6  C6  UNL     1      12.673   6.699  -3.364  1.00  0.00     0.005 A 
ENDROOT
BRANCH   6   7
HETATM    7  N1  UNL     1      13.507   7.804  -3.567  1.00  0.00    -0.303 NA
HETATM    8  H5  UNL     1      13.757   7.953  -4.540  1.00  0.00     0.124 HD
HETATM    9  H6  UNL     1      14.315   7.826  -2.954  1.00  0.00     0.124 HD
ENDBRANCH   6   7
BRANCH   3  10
HETATM   10  O1  UNL     1      10.463   3.197  -2.965  1.00  0.00    -0.361 OA
HETATM   11  H7  UNL     1      10.948   2.469  -3.386  1.00  0.00     0.217 HD
ENDBRANCH   3  10
TORSDOF 2
ENDMDL
