MODEL 1
REMARK VINA RESULT:      -6.7      0.000      0.000
REMARK  27 active torsions:
REMARK  status: ('A' for Active; 'I' for Inactive)
REMARK    1  A    between atoms: C2_2  and  S1_4 
REMARK    2  A    between atoms: S1_4  and  C3_5 
REMARK    3  A    between atoms: C3_5  and  C4_6 
REMARK    4  A    between atoms: C4_6  and  N1_7 
REMARK       I    between atoms: N1_7  and  C5_8 
REMARK    5  A    between atoms: C5_8  and  C6_10 
REMARK    6  A    between atoms: C6_10  and  C7_11 
REMARK    7  A    between atoms: C7_11  and  N2_12 
REMARK       I    between atoms: N2_12  and  C8_13 
REMARK    8  A    between atoms: C8_13  and  C9_15 
REMARK    9  A    between atoms: C9_15  and  C10_16 
REMARK   10  A    between atoms: C9_15  and  O17_54 
REMARK   11  A    between atoms: C10_16  and  C13_19 
REMARK   12  A    between atoms: C13_19  and  O4_20 
REMARK   13  A    between atoms: O4_20  and  P1_21 
REMARK   14  A    between atoms: P1_21  and  O6_23 
REMARK   15  A    between atoms: P1_21  and  O7_24 
REMARK   16  A    between atoms: O7_24  and  P2_25 
REMARK   17  A    between atoms: P2_25  and  O9_27 
REMARK   18  A    between atoms: P2_25  and  O10_28 
REMARK   19  A    between atoms: O10_28  and  C14_29 
REMARK   20  A    between atoms: C14_29  and  C15_30 
REMARK   21  A    between atoms: C16_31  and  O13_49 
REMARK   22  A    between atoms: C17_32  and  O12_48 
REMARK   23  A    between atoms: C18_33  and  N3_35 
REMARK   24  A    between atoms: C21_40  and  N7_47 
REMARK   25  A    between atoms: O13_49  and  P3_50 
REMARK   26  A    between atoms: P3_50  and  O15_52 
REMARK   27  A    between atoms: P3_50  and  O16_53 
ROOT
HETATM    1  C1  UNL     1       6.337  14.796  -3.773  1.00  0.00     0.104 C 
HETATM    2  C2  UNL     1       5.890  13.467  -4.299  1.00  0.00     0.182 C 
HETATM    3  O1  UNL     1       6.329  12.967  -5.332  1.00  0.00    -0.286 OA
ENDROOT
BRANCH   2   4
HETATM    4  S1  UNL     1       4.644  12.687  -3.333  1.00  0.00    -0.091 SA
BRANCH   4   5
HETATM    5  C3  UNL     1       5.573  11.251  -2.705  1.00  0.00     0.102 C 
BRANCH   5   6
HETATM    6  C4  UNL     1       5.880  11.380  -1.212  1.00  0.00     0.133 C 
BRANCH   6   7
HETATM    7  N1  UNL     1       6.713  12.526  -0.909  1.00  0.00    -0.360 N 
HETATM    8  C5  UNL     1       8.086  12.458  -0.963  1.00  0.00     0.219 C 
HETATM    9  O2  UNL     1       8.686  11.414  -1.188  1.00  0.00    -0.274 OA
HETATM   10  H8  UNL     1       6.267  13.399  -0.659  1.00  0.00     0.162 HD
BRANCH   8  11
HETATM   11  C6  UNL     1       8.763  13.778  -0.666  1.00  0.00     0.122 C 
BRANCH  11  12
HETATM   12  C7  UNL     1      10.286  13.652  -0.671  1.00  0.00     0.132 C 
BRANCH  12  13
HETATM   13  N2  UNL     1      10.820  13.169   0.584  1.00  0.00    -0.358 N 
HETATM   14  C8  UNL     1      11.636  12.052   0.611  1.00  0.00     0.247 C 
HETATM   15  O3  UNL     1      11.839  11.370  -0.385  1.00  0.00    -0.271 OA
HETATM   16  H13 UNL     1      10.982  13.880   1.295  1.00  0.00     0.162 HD
BRANCH  14  17
HETATM   17  C9  UNL     1      12.275  11.753   1.975  1.00  0.00     0.219 C 
BRANCH  17  18
HETATM   18  C10 UNL     1      13.805  12.003   2.037  1.00  0.00     0.009 C 
HETATM   19  C11 UNL     1      14.241  13.150   1.114  1.00  0.00     0.020 C 
HETATM   20  C12 UNL     1      14.265  12.343   3.469  1.00  0.00     0.020 C 
BRANCH  18  21
HETATM   21  C13 UNL     1      14.472  10.677   1.572  1.00  0.00     0.192 C 
BRANCH  21  22
HETATM   22  O4  UNL     1      15.696  10.896   0.900  1.00  0.00    -0.296 OA
BRANCH  22  23
HETATM   23  P1  UNL     1      16.614   9.702   0.350  1.00  0.00     0.401 P 
HETATM   24  O5  UNL     1      17.717   9.302   1.277  1.00  0.00    -0.631 OA
BRANCH  23  25
HETATM   25  O6  UNL     1      17.122  10.142  -1.113  1.00  0.00    -0.307 OA
HETATM   26  H23 UNL     1      16.439  10.613  -1.607  1.00  0.00     0.222 HD
ENDBRANCH  23  25
BRANCH  23  27
HETATM   27  O7  UNL     1      15.595   8.536  -0.015  1.00  0.00    -0.195 OA
BRANCH  27  28
HETATM   28  P2  UNL     1      15.880   7.639  -1.301  1.00  0.00     0.401 P 
HETATM   29  O8  UNL     1      17.254   7.068  -1.437  1.00  0.00    -0.631 OA
BRANCH  28  30
HETATM   30  O9  UNL     1      14.722   6.542  -1.246  1.00  0.00    -0.307 OA
HETATM   31  H24 UNL     1      13.998   6.750  -0.607  1.00  0.00     0.222 HD
ENDBRANCH  28  30
BRANCH  28  32
HETATM   32  O10 UNL     1      15.375   8.539  -2.519  1.00  0.00    -0.294 OA
BRANCH  32  33
HETATM   33  C14 UNL     1      15.230   7.975  -3.796  1.00  0.00     0.215 C 
BRANCH  33  34
HETATM   34  C15 UNL     1      13.929   8.538  -4.366  1.00  0.00     0.180 C 
HETATM   35  C16 UNL     1      13.259   9.435  -3.333  1.00  0.00     0.197 C 
HETATM   36  C17 UNL     1      11.932   8.761  -3.041  1.00  0.00     0.199 C 
HETATM   37  C18 UNL     1      11.680   7.972  -4.328  1.00  0.00     0.262 C 
HETATM   38  O11 UNL     1      12.991   7.518  -4.730  1.00  0.00    -0.353 OA
BRANCH  35  39
HETATM   39  O13 UNL     1      13.090  10.725  -3.913  1.00  0.00    -0.286 OA
BRANCH  39  40
HETATM   40  P3  UNL     1      13.867  11.916  -3.183  1.00  0.00     0.391 P 
HETATM   41  O14 UNL     1      13.068  13.173  -3.064  1.00  0.00    -0.632 OA
BRANCH  40  42
HETATM   42  O15 UNL     1      15.211  11.971  -4.048  1.00  0.00    -0.307 OA
HETATM   43  H36 UNL     1      15.294  11.169  -4.616  1.00  0.00     0.222 HD
ENDBRANCH  40  42
BRANCH  40  44
HETATM   44  O16 UNL     1      14.333  11.209  -1.836  1.00  0.00    -0.307 OA
HETATM   45  H37 UNL     1      13.609  11.096  -1.201  1.00  0.00     0.222 HD
ENDBRANCH  40  44
ENDBRANCH  39  40
ENDBRANCH  35  39
BRANCH  36  46
HETATM   46  O12 UNL     1      10.954   9.734  -2.665  1.00  0.00    -0.388 OA
HETATM   47  H35 UNL     1      10.515   9.387  -1.852  1.00  0.00     0.210 HD
ENDBRANCH  36  46
BRANCH  37  48
HETATM   48  N3  UNL     1      10.831   6.817  -4.115  1.00  0.00    -0.297 N 
HETATM   49  C19 UNL     1      11.198   5.493  -4.182  1.00  0.00     0.188 A 
HETATM   50  N4  UNL     1      10.226   4.688  -3.813  1.00  0.00    -0.346 N 
HETATM   51  C20 UNL     1       9.179   5.531  -3.486  1.00  0.00     0.116 A 
HETATM   52  H4  UNL     1      10.240   3.669  -3.776  1.00  0.00     0.167 HD
HETATM   53  C21 UNL     1       7.886   5.296  -2.986  1.00  0.00     0.109 A 
HETATM   54  C23 UNL     1       9.527   6.851  -3.706  1.00  0.00     0.142 A 
HETATM   55  N5  UNL     1       7.070   6.357  -2.772  1.00  0.00    -0.341 N 
HETATM   56  C22 UNL     1       7.538   7.589  -3.055  1.00  0.00     0.183 A 
HETATM   57  H5  UNL     1       6.127   6.226  -2.407  1.00  0.00     0.167 HD
HETATM   58  N6  UNL     1       8.753   7.936  -3.527  1.00  0.00    -0.336 N 
HETATM   59  H6  UNL     1       9.046   8.894  -3.721  1.00  0.00     0.168 HD
BRANCH  53  60
HETATM   60  N7  UNL     1       7.395   4.030  -2.707  1.00  0.00    -0.287 NA
HETATM   61  H33 UNL     1       6.425   4.016  -2.402  1.00  0.00     0.125 HD
HETATM   62  H34 UNL     1       8.046   3.461  -2.183  1.00  0.00     0.125 HD
ENDBRANCH  53  60
ENDBRANCH  37  48
ENDBRANCH  33  34
ENDBRANCH  32  33
ENDBRANCH  28  32
ENDBRANCH  27  28
ENDBRANCH  23  27
ENDBRANCH  22  23
ENDBRANCH  21  22
ENDBRANCH  18  21
ENDBRANCH  17  18
BRANCH  17  63
HETATM   63  O17 UNL     1      11.645  12.535   2.996  1.00  0.00    -0.385 OA
HETATM   64  H38 UNL     1      11.808  12.102   3.851  1.00  0.00     0.210 HD
ENDBRANCH  17  63
ENDBRANCH  14  17
ENDBRANCH  12  13
ENDBRANCH  11  12
ENDBRANCH   8  11
ENDBRANCH   6   7
ENDBRANCH   5   6
ENDBRANCH   4   5
ENDBRANCH   2   4
TORSDOF 27
ENDMDL
MODEL 2
REMARK VINA RESULT:      -6.6      3.826      6.032
REMARK  27 active torsions:
REMARK  status: ('A' for Active; 'I' for Inactive)
REMARK    1  A    between atoms: C2_2  and  S1_4 
REMARK    2  A    between atoms: S1_4  and  C3_5 
REMARK    3  A    between atoms: C3_5  and  C4_6 
REMARK    4  A    between atoms: C4_6  and  N1_7 
REMARK       I    between atoms: N1_7  and  C5_8 
REMARK    5  A    between atoms: C5_8  and  C6_10 
REMARK    6  A    between atoms: C6_10  and  C7_11 
REMARK    7  A    between atoms: C7_11  and  N2_12 
REMARK       I    between atoms: N2_12  and  C8_13 
REMARK    8  A    between atoms: C8_13  and  C9_15 
REMARK    9  A    between atoms: C9_15  and  C10_16 
REMARK   10  A    between atoms: C9_15  and  O17_54 
REMARK   11  A    between atoms: C10_16  and  C13_19 
REMARK   12  A    between atoms: C13_19  and  O4_20 
REMARK   13  A    between atoms: O4_20  and  P1_21 
REMARK   14  A    between atoms: P1_21  and  O6_23 
REMARK   15  A    between atoms: P1_21  and  O7_24 
REMARK   16  A    between atoms: O7_24  and  P2_25 
REMARK   17  A    between atoms: P2_25  and  O9_27 
REMARK   18  A    between atoms: P2_25  and  O10_28 
REMARK   19  A    between atoms: O10_28  and  C14_29 
REMARK   20  A    between atoms: C14_29  and  C15_30 
REMARK   21  A    between atoms: C16_31  and  O13_49 
REMARK   22  A    between atoms: C17_32  and  O12_48 
REMARK   23  A    between atoms: C18_33  and  N3_35 
REMARK   24  A    between atoms: C21_40  and  N7_47 
REMARK   25  A    between atoms: O13_49  and  P3_50 
REMARK   26  A    between atoms: P3_50  and  O15_52 
REMARK   27  A    between atoms: P3_50  and  O16_53 
ROOT
HETATM    1  C1  UNL     1       9.860  13.245   6.841  1.00  0.00     0.104 C 
HETATM    2  C2  UNL     1       8.377  13.046   6.910  1.00  0.00     0.182 C 
HETATM    3  O1  UNL     1       7.578  13.970   7.040  1.00  0.00    -0.286 OA
ENDROOT
BRANCH   2   4
HETATM    4  S1  UNL     1       7.866  11.365   6.829  1.00  0.00    -0.091 SA
BRANCH   4   5
HETATM    5  C3  UNL     1       7.692  10.995   8.604  1.00  0.00     0.102 C 
BRANCH   5   6
HETATM    6  C4  UNL     1       8.612   9.853   9.041  1.00  0.00     0.133 C 
BRANCH   6   7
HETATM    7  N1  UNL     1       9.786   9.729   8.203  1.00  0.00    -0.360 N 
HETATM    8  C5  UNL     1      10.997  10.272   8.568  1.00  0.00     0.219 C 
HETATM    9  O2  UNL     1      11.136  10.956   9.575  1.00  0.00    -0.274 OA
HETATM   10  H8  UNL     1       9.711   9.223   7.331  1.00  0.00     0.162 HD
BRANCH   8  11
HETATM   11  C6  UNL     1      12.106   9.981   7.581  1.00  0.00     0.122 C 
BRANCH  11  12
HETATM   12  C7  UNL     1      11.567   9.419   6.266  1.00  0.00     0.132 C 
BRANCH  12  13
HETATM   13  N2  UNL     1      11.547  10.395   5.197  1.00  0.00    -0.358 N 
HETATM   14  C8  UNL     1      12.569  10.429   4.266  1.00  0.00     0.247 C 
HETATM   15  O3  UNL     1      13.570   9.733   4.372  1.00  0.00    -0.271 OA
HETATM   16  H13 UNL     1      10.622  10.683   4.884  1.00  0.00     0.162 HD
BRANCH  14  17
HETATM   17  C9  UNL     1      12.336  11.389   3.089  1.00  0.00     0.219 C 
BRANCH  17  18
HETATM   18  C10 UNL     1      12.603  12.882   3.415  1.00  0.00     0.009 C 
HETATM   19  C11 UNL     1      11.306  13.702   3.477  1.00  0.00     0.020 C 
HETATM   20  C12 UNL     1      13.333  13.044   4.764  1.00  0.00     0.020 C 
BRANCH  18  21
HETATM   21  C13 UNL     1      13.504  13.416   2.264  1.00  0.00     0.192 C 
BRANCH  21  22
HETATM   22  O4  UNL     1      12.796  14.250   1.370  1.00  0.00    -0.296 OA
BRANCH  22  23
HETATM   23  P1  UNL     1      12.676  13.942  -0.199  1.00  0.00     0.401 P 
HETATM   24  O5  UNL     1      13.862  14.377  -1.001  1.00  0.00    -0.631 OA
BRANCH  23  25
HETATM   25  O6  UNL     1      11.286  14.585  -0.694  1.00  0.00    -0.307 OA
HETATM   26  H23 UNL     1      10.629  13.909  -0.905  1.00  0.00     0.222 HD
ENDBRANCH  23  25
BRANCH  23  27
HETATM   27  O7  UNL     1      12.346  12.388  -0.288  1.00  0.00    -0.195 OA
BRANCH  27  28
HETATM   28  P2  UNL     1      11.624  11.828  -1.593  1.00  0.00     0.401 P 
HETATM   29  O8  UNL     1      10.139  11.972  -1.659  1.00  0.00    -0.631 OA
BRANCH  28  30
HETATM   30  O9  UNL     1      12.403  12.553  -2.783  1.00  0.00    -0.307 OA
HETATM   31  H24 UNL     1      12.493  13.531  -2.669  1.00  0.00     0.222 HD
ENDBRANCH  28  30
BRANCH  28  32
HETATM   32  O10 UNL     1      12.187  10.340  -1.737  1.00  0.00    -0.294 OA
BRANCH  32  33
HETATM   33  C14 UNL     1      13.484  10.035  -1.297  1.00  0.00     0.215 C 
BRANCH  33  34
HETATM   34  C15 UNL     1      14.000   8.934  -2.223  1.00  0.00     0.180 C 
HETATM   35  C16 UNL     1      14.198   9.491  -3.627  1.00  0.00     0.197 C 
HETATM   36  C17 UNL     1      13.239   8.698  -4.494  1.00  0.00     0.199 C 
HETATM   37  C18 UNL     1      13.086   7.398  -3.700  1.00  0.00     0.262 C 
HETATM   38  O11 UNL     1      13.107   7.819  -2.318  1.00  0.00    -0.353 OA
BRANCH  35  39
HETATM   39  O13 UNL     1      15.556   9.281  -3.998  1.00  0.00    -0.286 OA
BRANCH  39  40
HETATM   40  P3  UNL     1      16.580  10.420  -3.538  1.00  0.00     0.391 P 
HETATM   41  O14 UNL     1      16.916  10.377  -2.083  1.00  0.00    -0.632 OA
BRANCH  40  42
HETATM   42  O15 UNL     1      15.841  11.727  -4.089  1.00  0.00    -0.307 OA
HETATM   43  H36 UNL     1      14.926  11.791  -3.724  1.00  0.00     0.222 HD
ENDBRANCH  40  42
BRANCH  40  44
HETATM   44  O16 UNL     1      17.768  10.213  -4.575  1.00  0.00    -0.307 OA
HETATM   45  H37 UNL     1      17.455  10.002  -5.469  1.00  0.00     0.222 HD
ENDBRANCH  40  44
ENDBRANCH  39  40
ENDBRANCH  35  39
BRANCH  36  46
HETATM   46  O12 UNL     1      13.744   8.598  -5.828  1.00  0.00    -0.388 OA
HETATM   47  H35 UNL     1      13.099   8.042  -6.328  1.00  0.00     0.210 HD
ENDBRANCH  36  46
BRANCH  37  48
HETATM   48  N3  UNL     1      11.829   6.728  -3.965  1.00  0.00    -0.297 N 
HETATM   49  C19 UNL     1      11.652   5.473  -4.497  1.00  0.00     0.188 A 
HETATM   50  N4  UNL     1      10.390   5.103  -4.494  1.00  0.00    -0.346 N 
HETATM   51  C20 UNL     1       9.715   6.170  -3.927  1.00  0.00     0.116 A 
HETATM   52  H4  UNL     1       9.995   4.226  -4.833  1.00  0.00     0.167 HD
HETATM   53  C21 UNL     1       8.363   6.381  -3.606  1.00  0.00     0.109 A 
HETATM   54  C23 UNL     1      10.590   7.200  -3.631  1.00  0.00     0.142 A 
HETATM   55  N5  UNL     1       8.004   7.566  -3.055  1.00  0.00    -0.341 N 
HETATM   56  C22 UNL     1       8.963   8.488  -2.844  1.00  0.00     0.183 A 
HETATM   57  H5  UNL     1       7.033   7.754  -2.805  1.00  0.00     0.167 HD
HETATM   58  N6  UNL     1      10.284   8.397  -3.100  1.00  0.00    -0.336 N 
HETATM   59  H6  UNL     1      10.962   9.137  -2.916  1.00  0.00     0.168 HD
BRANCH  53  60
HETATM   60  N7  UNL     1       7.370   5.441  -3.835  1.00  0.00    -0.287 NA
HETATM   61  H33 UNL     1       7.072   5.374  -4.805  1.00  0.00     0.125 HD
HETATM   62  H34 UNL     1       6.641   5.460  -3.135  1.00  0.00     0.125 HD
ENDBRANCH  53  60
ENDBRANCH  37  48
ENDBRANCH  33  34
ENDBRANCH  32  33
ENDBRANCH  28  32
ENDBRANCH  27  28
ENDBRANCH  23  27
ENDBRANCH  22  23
ENDBRANCH  21  22
ENDBRANCH  18  21
ENDBRANCH  17  18
BRANCH  17  63
HETATM   63  O17 UNL     1      13.156  11.013   1.977  1.00  0.00    -0.385 OA
HETATM   64  H38 UNL     1      13.449  10.097   2.114  1.00  0.00     0.210 HD
ENDBRANCH  17  63
ENDBRANCH  14  17
ENDBRANCH  12  13
ENDBRANCH  11  12
ENDBRANCH   8  11
ENDBRANCH   6   7
ENDBRANCH   5   6
ENDBRANCH   4   5
ENDBRANCH   2   4
TORSDOF 27
ENDMDL
MODEL 3
REMARK VINA RESULT:      -6.4      3.842      8.146
REMARK  27 active torsions:
REMARK  status: ('A' for Active; 'I' for Inactive)
REMARK    1  A    between atoms: C2_2  and  S1_4 
REMARK    2  A    between atoms: S1_4  and  C3_5 
REMARK    3  A    between atoms: C3_5  and  C4_6 
REMARK    4  A    between atoms: C4_6  and  N1_7 
REMARK       I    between atoms: N1_7  and  C5_8 
REMARK    5  A    between atoms: C5_8  and  C6_10 
REMARK    6  A    between atoms: C6_10  and  C7_11 
REMARK    7  A    between atoms: C7_11  and  N2_12 
REMARK       I    between atoms: N2_12  and  C8_13 
REMARK    8  A    between atoms: C8_13  and  C9_15 
REMARK    9  A    between atoms: C9_15  and  C10_16 
REMARK   10  A    between atoms: C9_15  and  O17_54 
REMARK   11  A    between atoms: C10_16  and  C13_19 
REMARK   12  A    between atoms: C13_19  and  O4_20 
REMARK   13  A    between atoms: O4_20  and  P1_21 
REMARK   14  A    between atoms: P1_21  and  O6_23 
REMARK   15  A    between atoms: P1_21  and  O7_24 
REMARK   16  A    between atoms: O7_24  and  P2_25 
REMARK   17  A    between atoms: P2_25  and  O9_27 
REMARK   18  A    between atoms: P2_25  and  O10_28 
REMARK   19  A    between atoms: O10_28  and  C14_29 
REMARK   20  A    between atoms: C14_29  and  C15_30 
REMARK   21  A    between atoms: C16_31  and  O13_49 
REMARK   22  A    between atoms: C17_32  and  O12_48 
REMARK   23  A    between atoms: C18_33  and  N3_35 
REMARK   24  A    between atoms: C21_40  and  N7_47 
REMARK   25  A    between atoms: O13_49  and  P3_50 
REMARK   26  A    between atoms: P3_50  and  O15_52 
REMARK   27  A    between atoms: P3_50  and  O16_53 
ROOT
HETATM    1  C1  UNL     1       8.206   6.787  -1.175  1.00  0.00     0.104 C 
HETATM    2  C2  UNL     1       7.705   5.430  -1.565  1.00  0.00     0.182 C 
HETATM    3  O1  UNL     1       7.224   4.633  -0.763  1.00  0.00    -0.286 OA
ENDROOT
BRANCH   2   4
HETATM    4  S1  UNL     1       7.897   5.048  -3.270  1.00  0.00    -0.091 SA
BRANCH   4   5
HETATM    5  C3  UNL     1       9.191   6.247  -3.726  1.00  0.00     0.102 C 
BRANCH   5   6
HETATM    6  C4  UNL     1      10.348   5.579  -4.473  1.00  0.00     0.133 C 
BRANCH   6   7
HETATM    7  N1  UNL     1      11.645   5.997  -3.982  1.00  0.00    -0.360 N 
HETATM    8  C5  UNL     1      12.238   7.163  -4.405  1.00  0.00     0.219 C 
HETATM    9  O2  UNL     1      11.749   7.875  -5.275  1.00  0.00    -0.274 OA
HETATM   10  H8  UNL     1      12.119   5.414  -3.305  1.00  0.00     0.162 HD
BRANCH   8  11
HETATM   11  C6  UNL     1      13.564   7.441  -3.729  1.00  0.00     0.122 C 
BRANCH  11  12
HETATM   12  C7  UNL     1      13.466   7.318  -2.209  1.00  0.00     0.132 C 
BRANCH  12  13
HETATM   13  N2  UNL     1      14.173   8.369  -1.508  1.00  0.00    -0.358 N 
HETATM   14  C8  UNL     1      15.497   8.199  -1.150  1.00  0.00     0.247 C 
HETATM   15  O3  UNL     1      16.081   7.133  -1.299  1.00  0.00    -0.271 OA
HETATM   16  H13 UNL     1      13.864   9.317  -1.713  1.00  0.00     0.162 HD
BRANCH  14  17
HETATM   17  C9  UNL     1      16.174   9.452  -0.573  1.00  0.00     0.219 C 
BRANCH  17  18
HETATM   18  C10 UNL     1      16.878  10.345  -1.629  1.00  0.00     0.009 C 
HETATM   19  C11 UNL     1      18.211  10.909  -1.114  1.00  0.00     0.020 C 
HETATM   20  C12 UNL     1      17.162   9.567  -2.929  1.00  0.00     0.020 C 
BRANCH  18  21
HETATM   21  C13 UNL     1      15.895  11.515  -1.922  1.00  0.00     0.192 C 
BRANCH  21  22
HETATM   22  O4  UNL     1      14.846  11.132  -2.788  1.00  0.00    -0.296 OA
BRANCH  22  23
HETATM   23  P1  UNL     1      13.334  11.632  -2.599  1.00  0.00     0.401 P 
HETATM   24  O5  UNL     1      12.304  10.589  -2.898  1.00  0.00    -0.631 OA
BRANCH  23  25
HETATM   25  O6  UNL     1      13.175  12.973  -3.475  1.00  0.00    -0.307 OA
HETATM   26  H23 UNL     1      12.918  13.730  -2.934  1.00  0.00     0.222 HD
ENDBRANCH  23  25
BRANCH  23  27
HETATM   27  O7  UNL     1      13.277  12.219  -1.122  1.00  0.00    -0.195 OA
BRANCH  27  28
HETATM   28  P2  UNL     1      12.179  13.319  -0.773  1.00  0.00     0.401 P 
HETATM   29  O8  UNL     1      12.444  14.712  -1.241  1.00  0.00    -0.631 OA
BRANCH  28  30
HETATM   30  O9  UNL     1      10.830  12.685  -1.345  1.00  0.00    -0.307 OA
HETATM   31  H24 UNL     1      10.582  13.009  -2.245  1.00  0.00     0.222 HD
ENDBRANCH  28  30
BRANCH  28  32
HETATM   32  O10 UNL     1      11.943  13.144   0.797  1.00  0.00    -0.294 OA
BRANCH  32  33
HETATM   33  C14 UNL     1      11.473  14.223   1.561  1.00  0.00     0.215 C 
BRANCH  33  34
HETATM   34  C15 UNL     1      11.978  13.991   2.984  1.00  0.00     0.180 C 
HETATM   35  C16 UNL     1      13.057  12.917   2.979  1.00  0.00     0.197 C 
HETATM   36  C17 UNL     1      12.489  11.796   3.828  1.00  0.00     0.199 C 
HETATM   37  C18 UNL     1      11.506  12.543   4.733  1.00  0.00     0.262 C 
HETATM   38  O11 UNL     1      10.945  13.567   3.881  1.00  0.00    -0.353 OA
BRANCH  35  39
HETATM   39  O13 UNL     1      14.237  13.475   3.548  1.00  0.00    -0.286 OA
BRANCH  39  40
HETATM   40  P3  UNL     1      15.562  13.335   2.663  1.00  0.00     0.391 P 
HETATM   41  O14 UNL     1      16.393  14.576   2.622  1.00  0.00    -0.632 OA
BRANCH  40  42
HETATM   42  O15 UNL     1      14.946  12.810   1.283  1.00  0.00    -0.307 OA
HETATM   43  H36 UNL     1      15.434  12.014   0.964  1.00  0.00     0.222 HD
ENDBRANCH  40  42
BRANCH  40  44
HETATM   44  O16 UNL     1      16.220  12.028   3.286  1.00  0.00    -0.307 OA
HETATM   45  H37 UNL     1      15.607  11.531   3.850  1.00  0.00     0.222 HD
ENDBRANCH  40  44
ENDBRANCH  39  40
ENDBRANCH  35  39
BRANCH  36  46
HETATM   46  O12 UNL     1      13.544  11.070   4.463  1.00  0.00    -0.388 OA
HETATM   47  H35 UNL     1      13.321  10.114   4.368  1.00  0.00     0.210 HD
ENDBRANCH  36  46
BRANCH  37  48
HETATM   48  N3  UNL     1      10.432  11.694   5.209  1.00  0.00    -0.297 N 
HETATM   49  C19 UNL     1      10.358  10.323   5.126  1.00  0.00     0.188 A 
HETATM   50  N4  UNL     1       9.315   9.841   5.765  1.00  0.00    -0.346 N 
HETATM   51  C20 UNL     1       8.684  10.954   6.293  1.00  0.00     0.116 A 
HETATM   52  H4  UNL     1       9.033   8.864   5.853  1.00  0.00     0.167 HD
HETATM   53  C21 UNL     1       7.548  11.109   7.107  1.00  0.00     0.109 A 
HETATM   54  C23 UNL     1       9.344  12.111   5.923  1.00  0.00     0.142 A 
HETATM   55  N5  UNL     1       7.167  12.362   7.457  1.00  0.00    -0.341 N 
HETATM   56  C22 UNL     1       7.895  13.401   7.002  1.00  0.00     0.183 A 
HETATM   57  H5  UNL     1       6.350  12.513   8.049  1.00  0.00     0.167 HD
HETATM   58  N6  UNL     1       8.999  13.375   6.229  1.00  0.00    -0.336 N 
HETATM   59  H6  UNL     1       9.507  14.203   5.917  1.00  0.00     0.168 HD
BRANCH  53  60
HETATM   60  N7  UNL     1       6.788  10.045   7.566  1.00  0.00    -0.287 NA
HETATM   61  H33 UNL     1       6.639   9.309   6.878  1.00  0.00     0.125 HD
HETATM   62  H34 UNL     1       5.982  10.338   8.101  1.00  0.00     0.125 HD
ENDBRANCH  53  60
ENDBRANCH  37  48
ENDBRANCH  33  34
ENDBRANCH  32  33
ENDBRANCH  28  32
ENDBRANCH  27  28
ENDBRANCH  23  27
ENDBRANCH  22  23
ENDBRANCH  21  22
ENDBRANCH  18  21
ENDBRANCH  17  18
BRANCH  17  63
HETATM   63  O17 UNL     1      15.217  10.250   0.132  1.00  0.00    -0.385 OA
HETATM   64  H38 UNL     1      14.410  10.298  -0.407  1.00  0.00     0.210 HD
ENDBRANCH  17  63
ENDBRANCH  14  17
ENDBRANCH  12  13
ENDBRANCH  11  12
ENDBRANCH   8  11
ENDBRANCH   6   7
ENDBRANCH   5   6
ENDBRANCH   4   5
ENDBRANCH   2   4
TORSDOF 27
ENDMDL
MODEL 4
REMARK VINA RESULT:      -6.3      2.350      3.333
REMARK  27 active torsions:
REMARK  status: ('A' for Active; 'I' for Inactive)
REMARK    1  A    between atoms: C2_2  and  S1_4 
REMARK    2  A    between atoms: S1_4  and  C3_5 
REMARK    3  A    between atoms: C3_5  and  C4_6 
REMARK    4  A    between atoms: C4_6  and  N1_7 
REMARK       I    between atoms: N1_7  and  C5_8 
REMARK    5  A    between atoms: C5_8  and  C6_10 
REMARK    6  A    between atoms: C6_10  and  C7_11 
REMARK    7  A    between atoms: C7_11  and  N2_12 
REMARK       I    between atoms: N2_12  and  C8_13 
REMARK    8  A    between atoms: C8_13  and  C9_15 
REMARK    9  A    between atoms: C9_15  and  C10_16 
REMARK   10  A    between atoms: C9_15  and  O17_54 
REMARK   11  A    between atoms: C10_16  and  C13_19 
REMARK   12  A    between atoms: C13_19  and  O4_20 
REMARK   13  A    between atoms: O4_20  and  P1_21 
REMARK   14  A    between atoms: P1_21  and  O6_23 
REMARK   15  A    between atoms: P1_21  and  O7_24 
REMARK   16  A    between atoms: O7_24  and  P2_25 
REMARK   17  A    between atoms: P2_25  and  O9_27 
REMARK   18  A    between atoms: P2_25  and  O10_28 
REMARK   19  A    between atoms: O10_28  and  C14_29 
REMARK   20  A    between atoms: C14_29  and  C15_30 
REMARK   21  A    between atoms: C16_31  and  O13_49 
REMARK   22  A    between atoms: C17_32  and  O12_48 
REMARK   23  A    between atoms: C18_33  and  N3_35 
REMARK   24  A    between atoms: C21_40  and  N7_47 
REMARK   25  A    between atoms: O13_49  and  P3_50 
REMARK   26  A    between atoms: P3_50  and  O15_52 
REMARK   27  A    between atoms: P3_50  and  O16_53 
ROOT
HETATM    1  C1  UNL     1       4.529  10.699  -3.820  1.00  0.00     0.104 C 
HETATM    2  C2  UNL     1       4.655  11.913  -2.951  1.00  0.00     0.182 C 
HETATM    3  O1  UNL     1       3.945  12.907  -3.073  1.00  0.00    -0.286 OA
ENDROOT
BRANCH   2   4
HETATM    4  S1  UNL     1       5.941  11.816  -1.754  1.00  0.00    -0.091 SA
BRANCH   4   5
HETATM    5  C3  UNL     1       6.726  10.248  -2.249  1.00  0.00     0.102 C 
BRANCH   5   6
HETATM    6  C4  UNL     1       7.868   9.861  -1.308  1.00  0.00     0.133 C 
BRANCH   6   7
HETATM    7  N1  UNL     1       8.605  11.008  -0.821  1.00  0.00    -0.360 N 
HETATM    8  C5  UNL     1       9.891  11.271  -1.232  1.00  0.00     0.219 C 
HETATM    9  O2  UNL     1      10.517  10.514  -1.966  1.00  0.00    -0.274 OA
HETATM   10  H8  UNL     1       8.155  11.634  -0.166  1.00  0.00     0.162 HD
BRANCH   8  11
HETATM   11  C6  UNL     1      10.459  12.546  -0.648  1.00  0.00     0.122 C 
BRANCH  11  12
HETATM   12  C7  UNL     1      11.660  13.054  -1.445  1.00  0.00     0.132 C 
BRANCH  12  13
HETATM   13  N2  UNL     1      12.845  12.243  -1.265  1.00  0.00    -0.358 N 
HETATM   14  C8  UNL     1      13.635  11.911  -2.350  1.00  0.00     0.247 C 
HETATM   15  O3  UNL     1      13.309  12.181  -3.500  1.00  0.00    -0.271 OA
HETATM   16  H13 UNL     1      13.309  12.339  -0.364  1.00  0.00     0.162 HD
BRANCH  14  17
HETATM   17  C9  UNL     1      14.950  11.201  -1.998  1.00  0.00     0.219 C 
BRANCH  17  18
HETATM   18  C10 UNL     1      16.220  12.074  -2.177  1.00  0.00     0.009 C 
HETATM   19  C11 UNL     1      16.670  12.145  -3.644  1.00  0.00     0.020 C 
HETATM   20  C12 UNL     1      15.990  13.516  -1.680  1.00  0.00     0.020 C 
BRANCH  18  21
HETATM   21  C13 UNL     1      17.329  11.395  -1.323  1.00  0.00     0.192 C 
BRANCH  21  22
HETATM   22  O4  UNL     1      18.081  10.457  -2.065  1.00  0.00    -0.296 OA
BRANCH  22  23
HETATM   23  P1  UNL     1      18.465   9.006  -1.500  1.00  0.00     0.401 P 
HETATM   24  O5  UNL     1      19.810   8.940  -0.847  1.00  0.00    -0.631 OA
BRANCH  23  25
HETATM   25  O6  UNL     1      18.283   7.969  -2.717  1.00  0.00    -0.307 OA
HETATM   26  H23 UNL     1      17.413   8.046  -3.130  1.00  0.00     0.222 HD
ENDBRANCH  23  25
BRANCH  23  27
HETATM   27  O7  UNL     1      17.249   8.597  -0.559  1.00  0.00    -0.195 OA
BRANCH  27  28
HETATM   28  P2  UNL     1      17.002   7.054  -0.248  1.00  0.00     0.401 P 
HETATM   29  O8  UNL     1      18.210   6.179  -0.165  1.00  0.00    -0.631 OA
BRANCH  28  30
HETATM   30  O9  UNL     1      16.127   7.085   1.087  1.00  0.00    -0.307 OA
HETATM   31  H24 UNL     1      15.957   7.993   1.437  1.00  0.00     0.222 HD
ENDBRANCH  28  30
BRANCH  28  32
HETATM   32  O10 UNL     1      15.896   6.617  -1.314  1.00  0.00    -0.294 OA
BRANCH  32  33
HETATM   33  C14 UNL     1      14.876   7.512  -1.674  1.00  0.00     0.215 C 
BRANCH  33  34
HETATM   34  C15 UNL     1      14.163   6.886  -2.871  1.00  0.00     0.180 C 
HETATM   35  C16 UNL     1      13.671   7.980  -3.809  1.00  0.00     0.197 C 
HETATM   36  C17 UNL     1      12.162   7.831  -3.817  1.00  0.00     0.199 C 
HETATM   37  C18 UNL     1      11.982   6.355  -3.454  1.00  0.00     0.262 C 
HETATM   38  O11 UNL     1      13.030   6.093  -2.495  1.00  0.00    -0.353 OA
BRANCH  35  39
HETATM   39  O13 UNL     1      14.241   7.749  -5.093  1.00  0.00    -0.286 OA
BRANCH  39  40
HETATM   40  P3  UNL     1      15.176   8.919  -5.653  1.00  0.00     0.391 P 
HETATM   41  O14 UNL     1      16.554   8.917  -5.076  1.00  0.00    -0.632 OA
BRANCH  40  42
HETATM   42  O15 UNL     1      14.256  10.198  -5.371  1.00  0.00    -0.307 OA
HETATM   43  H36 UNL     1      13.311   9.933  -5.270  1.00  0.00     0.222 HD
ENDBRANCH  40  42
BRANCH  40  44
HETATM   44  O16 UNL     1      15.034   8.712  -7.223  1.00  0.00    -0.307 OA
HETATM   45  H37 UNL     1      14.612   7.869  -7.455  1.00  0.00     0.222 HD
ENDBRANCH  40  44
ENDBRANCH  39  40
ENDBRANCH  35  39
BRANCH  36  46
HETATM   46  O12 UNL     1      11.627   8.269  -5.069  1.00  0.00    -0.388 OA
HETATM   47  H35 UNL     1      10.993   8.996  -4.861  1.00  0.00     0.210 HD
ENDBRANCH  36  46
BRANCH  37  48
HETATM   48  N3  UNL     1      10.702   6.088  -2.829  1.00  0.00    -0.297 N 
HETATM   49  C19 UNL     1       9.618   6.932  -2.760  1.00  0.00     0.188 A 
HETATM   50  N4  UNL     1       8.562   6.347  -2.238  1.00  0.00    -0.346 N 
HETATM   51  C20 UNL     1       8.981   5.058  -1.959  1.00  0.00     0.116 A 
HETATM   52  H4  UNL     1       7.641   6.752  -2.075  1.00  0.00     0.167 HD
HETATM   53  C21 UNL     1       8.319   3.934  -1.435  1.00  0.00     0.109 A 
HETATM   54  C23 UNL     1      10.315   4.895  -2.284  1.00  0.00     0.142 A 
HETATM   55  N5  UNL     1       9.021   2.787  -1.266  1.00  0.00    -0.341 N 
HETATM   56  C22 UNL     1      10.326   2.782  -1.606  1.00  0.00     0.183 A 
HETATM   57  H5  UNL     1       8.574   1.950  -0.892  1.00  0.00     0.167 HD
HETATM   58  N6  UNL     1      11.061   3.788  -2.122  1.00  0.00    -0.336 N 
HETATM   59  H6  UNL     1      12.051   3.718  -2.359  1.00  0.00     0.168 HD
BRANCH  53  60
HETATM   60  N7  UNL     1       6.982   3.938  -1.070  1.00  0.00    -0.287 NA
HETATM   61  H33 UNL     1       6.797   4.354  -0.160  1.00  0.00     0.125 HD
HETATM   62  H34 UNL     1       6.514   3.065  -1.276  1.00  0.00     0.125 HD
ENDBRANCH  53  60
ENDBRANCH  37  48
ENDBRANCH  33  34
ENDBRANCH  32  33
ENDBRANCH  28  32
ENDBRANCH  27  28
ENDBRANCH  23  27
ENDBRANCH  22  23
ENDBRANCH  21  22
ENDBRANCH  18  21
ENDBRANCH  17  18
BRANCH  17  63
HETATM   63  O17 UNL     1      14.909  10.731  -0.646  1.00  0.00    -0.385 OA
HETATM   64  H38 UNL     1      14.785  11.499  -0.063  1.00  0.00     0.210 HD
ENDBRANCH  17  63
ENDBRANCH  14  17
ENDBRANCH  12  13
ENDBRANCH  11  12
ENDBRANCH   8  11
ENDBRANCH   6   7
ENDBRANCH   5   6
ENDBRANCH   4   5
ENDBRANCH   2   4
TORSDOF 27
ENDMDL
MODEL 5
REMARK VINA RESULT:      -6.1      3.558      7.944
REMARK  27 active torsions:
REMARK  status: ('A' for Active; 'I' for Inactive)
REMARK    1  A    between atoms: C2_2  and  S1_4 
REMARK    2  A    between atoms: S1_4  and  C3_5 
REMARK    3  A    between atoms: C3_5  and  C4_6 
REMARK    4  A    between atoms: C4_6  and  N1_7 
REMARK       I    between atoms: N1_7  and  C5_8 
REMARK    5  A    between atoms: C5_8  and  C6_10 
REMARK    6  A    between atoms: C6_10  and  C7_11 
REMARK    7  A    between atoms: C7_11  and  N2_12 
REMARK       I    between atoms: N2_12  and  C8_13 
REMARK    8  A    between atoms: C8_13  and  C9_15 
REMARK    9  A    between atoms: C9_15  and  C10_16 
REMARK   10  A    between atoms: C9_15  and  O17_54 
REMARK   11  A    between atoms: C10_16  and  C13_19 
REMARK   12  A    between atoms: C13_19  and  O4_20 
REMARK   13  A    between atoms: O4_20  and  P1_21 
REMARK   14  A    between atoms: P1_21  and  O6_23 
REMARK   15  A    between atoms: P1_21  and  O7_24 
REMARK   16  A    between atoms: O7_24  and  P2_25 
REMARK   17  A    between atoms: P2_25  and  O9_27 
REMARK   18  A    between atoms: P2_25  and  O10_28 
REMARK   19  A    between atoms: O10_28  and  C14_29 
REMARK   20  A    between atoms: C14_29  and  C15_30 
REMARK   21  A    between atoms: C16_31  and  O13_49 
REMARK   22  A    between atoms: C17_32  and  O12_48 
REMARK   23  A    between atoms: C18_33  and  N3_35 
REMARK   24  A    between atoms: C21_40  and  N7_47 
REMARK   25  A    between atoms: O13_49  and  P3_50 
REMARK   26  A    between atoms: P3_50  and  O15_52 
REMARK   27  A    between atoms: P3_50  and  O16_53 
ROOT
HETATM    1  C1  UNL     1      10.438  15.132  -1.194  1.00  0.00     0.104 C 
HETATM    2  C2  UNL     1       9.574  13.908  -1.205  1.00  0.00     0.182 C 
HETATM    3  O1  UNL     1       8.556  13.807  -1.884  1.00  0.00    -0.286 OA
ENDROOT
BRANCH   2   4
HETATM    4  S1  UNL     1      10.116  12.629  -0.127  1.00  0.00    -0.091 SA
BRANCH   4   5
HETATM    5  C3  UNL     1       9.837  11.173  -1.186  1.00  0.00     0.102 C 
BRANCH   5   6
HETATM    6  C4  UNL     1       8.396  10.667  -1.093  1.00  0.00     0.133 C 
BRANCH   6   7
HETATM    7  N1  UNL     1       8.307   9.222  -1.131  1.00  0.00    -0.360 N 
HETATM    8  C5  UNL     1       8.291   8.529  -2.320  1.00  0.00     0.219 C 
HETATM    9  O2  UNL     1       8.271   9.089  -3.410  1.00  0.00    -0.274 OA
HETATM   10  H8  UNL     1       8.262   8.714  -0.258  1.00  0.00     0.162 HD
BRANCH   8  11
HETATM   11  C6  UNL     1       8.250   7.028  -2.137  1.00  0.00     0.122 C 
BRANCH  11  12
HETATM   12  C7  UNL     1       9.482   6.346  -2.733  1.00  0.00     0.132 C 
BRANCH  12  13
HETATM   13  N2  UNL     1      10.540   7.276  -3.065  1.00  0.00    -0.358 N 
HETATM   14  C8  UNL     1      11.468   6.956  -4.040  1.00  0.00     0.247 C 
HETATM   15  O3  UNL     1      11.506   5.851  -4.565  1.00  0.00    -0.271 OA
HETATM   16  H13 UNL     1      10.311   8.261  -2.945  1.00  0.00     0.162 HD
BRANCH  14  17
HETATM   17  C9  UNL     1      12.424   8.097  -4.418  1.00  0.00     0.219 C 
BRANCH  17  18
HETATM   18  C10 UNL     1      13.694   8.192  -3.532  1.00  0.00     0.009 C 
HETATM   19  C11 UNL     1      13.923   6.914  -2.712  1.00  0.00     0.020 C 
HETATM   20  C12 UNL     1      14.957   8.446  -4.379  1.00  0.00     0.020 C 
BRANCH  18  21
HETATM   21  C13 UNL     1      13.456   9.393  -2.572  1.00  0.00     0.192 C 
BRANCH  21  22
HETATM   22  O4  UNL     1      13.098  10.573  -3.264  1.00  0.00    -0.296 OA
BRANCH  22  23
HETATM   23  P1  UNL     1      13.584  12.031  -2.808  1.00  0.00     0.401 P 
HETATM   24  O5  UNL     1      12.747  13.150  -3.342  1.00  0.00    -0.631 OA
BRANCH  23  25
HETATM   25  O6  UNL     1      15.143  12.144  -3.197  1.00  0.00    -0.307 OA
HETATM   26  H23 UNL     1      15.576  11.281  -3.207  1.00  0.00     0.222 HD
ENDBRANCH  23  25
BRANCH  23  27
HETATM   27  O7  UNL     1      13.666  11.960  -1.221  1.00  0.00    -0.195 OA
BRANCH  27  28
HETATM   28  P2  UNL     1      14.567  13.022  -0.448  1.00  0.00     0.401 P 
HETATM   29  O8  UNL     1      16.014  12.689  -0.282  1.00  0.00    -0.631 OA
BRANCH  28  30
HETATM   30  O9  UNL     1      14.297  14.379  -1.244  1.00  0.00    -0.307 OA
HETATM   31  H24 UNL     1      15.037  15.033  -1.188  1.00  0.00     0.222 HD
ENDBRANCH  28  30
BRANCH  28  32
HETATM   32  O10 UNL     1      13.758  13.306   0.900  1.00  0.00    -0.294 OA
BRANCH  32  33
HETATM   33  C14 UNL     1      13.235  12.237   1.644  1.00  0.00     0.215 C 
BRANCH  33  34
HETATM   34  C15 UNL     1      13.097  12.743   3.079  1.00  0.00     0.180 C 
HETATM   35  C16 UNL     1      14.055  11.985   3.987  1.00  0.00     0.197 C 
HETATM   36  C17 UNL     1      13.159  11.266   4.978  1.00  0.00     0.199 C 
HETATM   37  C18 UNL     1      11.906  12.146   4.977  1.00  0.00     0.262 C 
HETATM   38  O11 UNL     1      11.775  12.578   3.604  1.00  0.00    -0.353 OA
BRANCH  35  39
HETATM   39  O13 UNL     1      14.904  12.935   4.623  1.00  0.00    -0.286 OA
BRANCH  39  40
HETATM   40  P3  UNL     1      16.451  12.848   4.230  1.00  0.00     0.391 P 
HETATM   41  O14 UNL     1      17.079  11.528   4.541  1.00  0.00    -0.632 OA
BRANCH  40  42
HETATM   42  O15 UNL     1      17.025  14.138   4.983  1.00  0.00    -0.307 OA
HETATM   43  H36 UNL     1      16.302  14.784   5.167  1.00  0.00     0.222 HD
ENDBRANCH  40  42
BRANCH  40  44
HETATM   44  O16 UNL     1      16.415  13.306   2.707  1.00  0.00    -0.307 OA
HETATM   45  H37 UNL     1      16.250  14.256   2.603  1.00  0.00     0.222 HD
ENDBRANCH  40  44
ENDBRANCH  39  40
ENDBRANCH  35  39
BRANCH  36  46
HETATM   46  O12 UNL     1      13.837  11.091   6.224  1.00  0.00    -0.388 OA
HETATM   47  H35 UNL     1      14.260  11.957   6.435  1.00  0.00     0.210 HD
ENDBRANCH  36  46
BRANCH  37  48
HETATM   48  N3  UNL     1      10.712  11.415   5.352  1.00  0.00    -0.297 N 
HETATM   49  C19 UNL     1      10.497  10.061   5.239  1.00  0.00     0.188 A 
HETATM   50  N4  UNL     1       9.359   9.690   5.785  1.00  0.00    -0.346 N 
HETATM   51  C20 UNL     1       8.812  10.861   6.280  1.00  0.00     0.116 A 
HETATM   52  H4  UNL     1       8.968   8.750   5.833  1.00  0.00     0.167 HD
HETATM   53  C21 UNL     1       7.638  11.132   7.004  1.00  0.00     0.109 A 
HETATM   54  C23 UNL     1       9.621  11.943   5.984  1.00  0.00     0.142 A 
HETATM   55  N5  UNL     1       7.367  12.416   7.344  1.00  0.00    -0.341 N 
HETATM   56  C22 UNL     1       8.237  13.373   6.966  1.00  0.00     0.183 A 
HETATM   57  H5  UNL     1       6.526  12.651   7.872  1.00  0.00     0.167 HD
HETATM   58  N6  UNL     1       9.392  13.234   6.283  1.00  0.00    -0.336 N 
HETATM   59  H6  UNL     1      10.009  14.004   6.026  1.00  0.00     0.168 HD
BRANCH  53  60
HETATM   60  N7  UNL     1       6.732  10.154   7.382  1.00  0.00    -0.287 NA
HETATM   61  H33 UNL     1       6.753   9.317   6.802  1.00  0.00     0.125 HD
HETATM   62  H34 UNL     1       5.821  10.527   7.611  1.00  0.00     0.125 HD
ENDBRANCH  53  60
ENDBRANCH  37  48
ENDBRANCH  33  34
ENDBRANCH  32  33
ENDBRANCH  28  32
ENDBRANCH  27  28
ENDBRANCH  23  27
ENDBRANCH  22  23
ENDBRANCH  21  22
ENDBRANCH  18  21
ENDBRANCH  17  18
BRANCH  17  63
HETATM   63  O17 UNL     1      12.832   7.966  -5.784  1.00  0.00    -0.385 OA
HETATM   64  H38 UNL     1      13.489   8.658  -5.971  1.00  0.00     0.210 HD
ENDBRANCH  17  63
ENDBRANCH  14  17
ENDBRANCH  12  13
ENDBRANCH  11  12
ENDBRANCH   8  11
ENDBRANCH   6   7
ENDBRANCH   5   6
ENDBRANCH   4   5
ENDBRANCH   2   4
TORSDOF 27
ENDMDL
MODEL 6
REMARK VINA RESULT:      -5.9      3.949      8.044
REMARK  27 active torsions:
REMARK  status: ('A' for Active; 'I' for Inactive)
REMARK    1  A    between atoms: C2_2  and  S1_4 
REMARK    2  A    between atoms: S1_4  and  C3_5 
REMARK    3  A    between atoms: C3_5  and  C4_6 
REMARK    4  A    between atoms: C4_6  and  N1_7 
REMARK       I    between atoms: N1_7  and  C5_8 
REMARK    5  A    between atoms: C5_8  and  C6_10 
REMARK    6  A    between atoms: C6_10  and  C7_11 
REMARK    7  A    between atoms: C7_11  and  N2_12 
REMARK       I    between atoms: N2_12  and  C8_13 
REMARK    8  A    between atoms: C8_13  and  C9_15 
REMARK    9  A    between atoms: C9_15  and  C10_16 
REMARK   10  A    between atoms: C9_15  and  O17_54 
REMARK   11  A    between atoms: C10_16  and  C13_19 
REMARK   12  A    between atoms: C13_19  and  O4_20 
REMARK   13  A    between atoms: O4_20  and  P1_21 
REMARK   14  A    between atoms: P1_21  and  O6_23 
REMARK   15  A    between atoms: P1_21  and  O7_24 
REMARK   16  A    between atoms: O7_24  and  P2_25 
REMARK   17  A    between atoms: P2_25  and  O9_27 
REMARK   18  A    between atoms: P2_25  and  O10_28 
REMARK   19  A    between atoms: O10_28  and  C14_29 
REMARK   20  A    between atoms: C14_29  and  C15_30 
REMARK   21  A    between atoms: C16_31  and  O13_49 
REMARK   22  A    between atoms: C17_32  and  O12_48 
REMARK   23  A    between atoms: C18_33  and  N3_35 
REMARK   24  A    between atoms: C21_40  and  N7_47 
REMARK   25  A    between atoms: O13_49  and  P3_50 
REMARK   26  A    between atoms: P3_50  and  O15_52 
REMARK   27  A    between atoms: P3_50  and  O16_53 
ROOT
HETATM    1  C1  UNL     1       7.471   5.772  -2.318  1.00  0.00     0.104 C 
HETATM    2  C2  UNL     1       8.063   4.545  -1.694  1.00  0.00     0.182 C 
HETATM    3  O1  UNL     1       7.490   3.883  -0.832  1.00  0.00    -0.286 OA
ENDROOT
BRANCH   2   4
HETATM    4  S1  UNL     1       9.675   4.144  -2.270  1.00  0.00    -0.091 SA
BRANCH   4   5
HETATM    5  C3  UNL     1       9.976   5.548  -3.393  1.00  0.00     0.102 C 
BRANCH   5   6
HETATM    6  C4  UNL     1      11.450   5.656  -3.788  1.00  0.00     0.133 C 
BRANCH   6   7
HETATM    7  N1  UNL     1      12.064   6.884  -3.328  1.00  0.00    -0.360 N 
HETATM    8  C5  UNL     1      12.172   7.988  -4.141  1.00  0.00     0.219 C 
HETATM    9  O2  UNL     1      11.833   7.976  -5.319  1.00  0.00    -0.274 OA
HETATM   10  H8  UNL     1      12.414   6.928  -2.380  1.00  0.00     0.162 HD
BRANCH   8  11
HETATM   11  C6  UNL     1      12.793   9.183  -3.450  1.00  0.00     0.122 C 
BRANCH  11  12
HETATM   12  C7  UNL     1      14.320   9.137  -3.492  1.00  0.00     0.132 C 
BRANCH  12  13
HETATM   13  N2  UNL     1      14.920   9.001  -2.182  1.00  0.00    -0.358 N 
HETATM   14  C8  UNL     1      15.318   7.759  -1.723  1.00  0.00     0.247 C 
HETATM   15  O3  UNL     1      15.077   6.729  -2.339  1.00  0.00    -0.271 OA
HETATM   16  H13 UNL     1      15.447   9.809  -1.855  1.00  0.00     0.162 HD
BRANCH  14  17
HETATM   17  C9  UNL     1      16.097   7.781  -0.399  1.00  0.00     0.219 C 
BRANCH  17  18
HETATM   18  C10 UNL     1      17.617   8.052  -0.552  1.00  0.00     0.009 C 
HETATM   19  C11 UNL     1      18.458   7.179   0.390  1.00  0.00     0.020 C 
HETATM   20  C12 UNL     1      18.095   7.792  -1.995  1.00  0.00     0.020 C 
BRANCH  18  21
HETATM   21  C13 UNL     1      17.820   9.553  -0.194  1.00  0.00     0.192 C 
BRANCH  21  22
HETATM   22  O4  UNL     1      17.727  10.393  -1.326  1.00  0.00    -0.296 OA
BRANCH  22  23
HETATM   23  P1  UNL     1      16.851  11.736  -1.344  1.00  0.00     0.401 P 
HETATM   24  O5  UNL     1      16.433  12.176  -2.712  1.00  0.00    -0.631 OA
BRANCH  23  25
HETATM   25  O6  UNL     1      17.685  12.847  -0.531  1.00  0.00    -0.307 OA
HETATM   26  H23 UNL     1      18.248  12.452   0.146  1.00  0.00     0.222 HD
ENDBRANCH  23  25
BRANCH  23  27
HETATM   27  O7  UNL     1      15.649  11.456  -0.340  1.00  0.00    -0.195 OA
BRANCH  27  28
HETATM   28  P2  UNL     1      14.404  12.449  -0.334  1.00  0.00     0.401 P 
HETATM   29  O8  UNL     1      14.702  13.910  -0.425  1.00  0.00    -0.631 OA
BRANCH  28  30
HETATM   30  O9  UNL     1      13.488  11.896  -1.519  1.00  0.00    -0.307 OA
HETATM   31  H24 UNL     1      13.150  10.979  -1.374  1.00  0.00     0.222 HD
ENDBRANCH  28  30
BRANCH  28  32
HETATM   32  O10 UNL     1      13.550  11.989   0.935  1.00  0.00    -0.294 OA
BRANCH  32  33
HETATM   33  C14 UNL     1      12.572  12.842   1.471  1.00  0.00     0.215 C 
BRANCH  33  34
HETATM   34  C15 UNL     1      12.814  12.874   2.979  1.00  0.00     0.180 C 
HETATM   35  C16 UNL     1      13.774  11.759   3.371  1.00  0.00     0.197 C 
HETATM   36  C17 UNL     1      12.972  10.869   4.301  1.00  0.00     0.199 C 
HETATM   37  C18 UNL     1      11.928  11.841   4.857  1.00  0.00     0.262 C 
HETATM   38  O11 UNL     1      11.613  12.702   3.741  1.00  0.00    -0.353 OA
BRANCH  35  39
HETATM   39  O13 UNL     1      14.892  12.350   4.026  1.00  0.00    -0.286 OA
BRANCH  39  40
HETATM   40  P3  UNL     1      16.305  12.129   3.311  1.00  0.00     0.391 P 
HETATM   41  O14 UNL     1      17.467  12.163   4.251  1.00  0.00    -0.632 OA
BRANCH  40  42
HETATM   42  O15 UNL     1      16.242  13.249   2.171  1.00  0.00    -0.307 OA
HETATM   43  H36 UNL     1      17.147  13.457   1.836  1.00  0.00     0.222 HD
ENDBRANCH  40  42
BRANCH  40  44
HETATM   44  O16 UNL     1      16.045  10.781   2.509  1.00  0.00    -0.307 OA
HETATM   45  H37 UNL     1      16.440  10.006   2.938  1.00  0.00     0.222 HD
ENDBRANCH  40  44
ENDBRANCH  39  40
ENDBRANCH  35  39
BRANCH  36  46
HETATM   46  O12 UNL     1      13.837  10.226   5.241  1.00  0.00    -0.388 OA
HETATM   47  H35 UNL     1      13.601  10.588   6.128  1.00  0.00     0.210 HD
ENDBRANCH  36  46
BRANCH  37  48
HETATM   48  N3  UNL     1      10.717  11.171   5.285  1.00  0.00    -0.297 N 
HETATM   49  C19 UNL     1      10.457   9.820   5.251  1.00  0.00     0.188 A 
HETATM   50  N4  UNL     1       9.316   9.517   5.829  1.00  0.00    -0.346 N 
HETATM   51  C20 UNL     1       8.812  10.730   6.265  1.00  0.00     0.116 A 
HETATM   52  H4  UNL     1       8.895   8.594   5.934  1.00  0.00     0.167 HD
HETATM   53  C21 UNL     1       7.657  11.079   6.986  1.00  0.00     0.109 A 
HETATM   54  C23 UNL     1       9.651  11.767   5.900  1.00  0.00     0.142 A 
HETATM   55  N5  UNL     1       7.431  12.388   7.257  1.00  0.00    -0.341 N 
HETATM   56  C22 UNL     1       8.327  13.294   6.816  1.00  0.00     0.183 A 
HETATM   57  H5  UNL     1       6.606  12.679   7.780  1.00  0.00     0.167 HD
HETATM   58  N6  UNL     1       9.467  13.080   6.129  1.00  0.00    -0.336 N 
HETATM   59  H6  UNL     1      10.105  13.815   5.823  1.00  0.00     0.168 HD
BRANCH  53  60
HETATM   60  N7  UNL     1       6.726  10.153   7.428  1.00  0.00    -0.287 NA
HETATM   61  H33 UNL     1       7.131   9.320   7.850  1.00  0.00     0.125 HD
HETATM   62  H34 UNL     1       5.970  10.009   6.772  1.00  0.00     0.125 HD
ENDBRANCH  53  60
ENDBRANCH  37  48
ENDBRANCH  33  34
ENDBRANCH  32  33
ENDBRANCH  28  32
ENDBRANCH  27  28
ENDBRANCH  23  27
ENDBRANCH  22  23
ENDBRANCH  21  22
ENDBRANCH  18  21
ENDBRANCH  17  18
BRANCH  17  63
HETATM   63  O17 UNL     1      15.546   8.766   0.482  1.00  0.00    -0.385 OA
HETATM   64  H38 UNL     1      15.044   9.403  -0.055  1.00  0.00     0.210 HD
ENDBRANCH  17  63
ENDBRANCH  14  17
ENDBRANCH  12  13
ENDBRANCH  11  12
ENDBRANCH   8  11
ENDBRANCH   6   7
ENDBRANCH   5   6
ENDBRANCH   4   5
ENDBRANCH   2   4
TORSDOF 27
ENDMDL
MODEL 7
REMARK VINA RESULT:      -5.8      4.674      7.537
REMARK  27 active torsions:
REMARK  status: ('A' for Active; 'I' for Inactive)
REMARK    1  A    between atoms: C2_2  and  S1_4 
REMARK    2  A    between atoms: S1_4  and  C3_5 
REMARK    3  A    between atoms: C3_5  and  C4_6 
REMARK    4  A    between atoms: C4_6  and  N1_7 
REMARK       I    between atoms: N1_7  and  C5_8 
REMARK    5  A    between atoms: C5_8  and  C6_10 
REMARK    6  A    between atoms: C6_10  and  C7_11 
REMARK    7  A    between atoms: C7_11  and  N2_12 
REMARK       I    between atoms: N2_12  and  C8_13 
REMARK    8  A    between atoms: C8_13  and  C9_15 
REMARK    9  A    between atoms: C9_15  and  C10_16 
REMARK   10  A    between atoms: C9_15  and  O17_54 
REMARK   11  A    between atoms: C10_16  and  C13_19 
REMARK   12  A    between atoms: C13_19  and  O4_20 
REMARK   13  A    between atoms: O4_20  and  P1_21 
REMARK   14  A    between atoms: P1_21  and  O6_23 
REMARK   15  A    between atoms: P1_21  and  O7_24 
REMARK   16  A    between atoms: O7_24  and  P2_25 
REMARK   17  A    between atoms: P2_25  and  O9_27 
REMARK   18  A    between atoms: P2_25  and  O10_28 
REMARK   19  A    between atoms: O10_28  and  C14_29 
REMARK   20  A    between atoms: C14_29  and  C15_30 
REMARK   21  A    between atoms: C16_31  and  O13_49 
REMARK   22  A    between atoms: C17_32  and  O12_48 
REMARK   23  A    between atoms: C18_33  and  N3_35 
REMARK   24  A    between atoms: C21_40  and  N7_47 
REMARK   25  A    between atoms: O13_49  and  P3_50 
REMARK   26  A    between atoms: P3_50  and  O15_52 
REMARK   27  A    between atoms: P3_50  and  O16_53 
ROOT
HETATM    1  C1  UNL     1       8.583  13.693   6.416  1.00  0.00     0.104 C 
HETATM    2  C2  UNL     1       7.570  12.639   6.741  1.00  0.00     0.182 C 
HETATM    3  O1  UNL     1       6.414  12.892   7.071  1.00  0.00    -0.286 OA
ENDROOT
BRANCH   2   4
HETATM    4  S1  UNL     1       8.182  10.993   6.652  1.00  0.00    -0.091 SA
BRANCH   4   5
HETATM    5  C3  UNL     1       7.703  10.379   8.299  1.00  0.00     0.102 C 
BRANCH   5   6
HETATM    6  C4  UNL     1       8.827   9.578   8.959  1.00  0.00     0.133 C 
BRANCH   6   7
HETATM    7  N1  UNL     1      10.047   9.579   8.177  1.00  0.00    -0.360 N 
HETATM    8  C5  UNL     1      11.185  10.218   8.612  1.00  0.00     0.219 C 
HETATM    9  O2  UNL     1      11.214  10.889   9.637  1.00  0.00    -0.274 OA
HETATM   10  H8  UNL     1      10.058   9.088   7.294  1.00  0.00     0.162 HD
BRANCH   8  11
HETATM   11  C6  UNL     1      12.361  10.050   7.675  1.00  0.00     0.122 C 
BRANCH  11  12
HETATM   12  C7  UNL     1      11.943   9.440   6.337  1.00  0.00     0.132 C 
BRANCH  12  13
HETATM   13  N2  UNL     1      11.972  10.392   5.246  1.00  0.00    -0.358 N 
HETATM   14  C8  UNL     1      12.926  10.283   4.252  1.00  0.00     0.247 C 
HETATM   15  O3  UNL     1      13.841   9.471   4.312  1.00  0.00    -0.271 OA
HETATM   16  H13 UNL     1      11.070  10.786   4.985  1.00  0.00     0.162 HD
BRANCH  14  17
HETATM   17  C9  UNL     1      12.736  11.243   3.068  1.00  0.00     0.219 C 
BRANCH  17  18
HETATM   18  C10 UNL     1      13.246  12.686   3.321  1.00  0.00     0.009 C 
HETATM   19  C11 UNL     1      12.094  13.675   3.552  1.00  0.00     0.020 C 
HETATM   20  C12 UNL     1      14.179  12.748   4.547  1.00  0.00     0.020 C 
BRANCH  18  21
HETATM   21  C13 UNL     1      14.034  13.090   2.042  1.00  0.00     0.192 C 
BRANCH  21  22
HETATM   22  O4  UNL     1      13.289  13.945   1.199  1.00  0.00    -0.296 OA
BRANCH  22  23
HETATM   23  P1  UNL     1      13.203  13.743  -0.390  1.00  0.00     0.401 P 
HETATM   24  O5  UNL     1      14.369  14.302  -1.142  1.00  0.00    -0.631 OA
BRANCH  23  25
HETATM   25  O6  UNL     1      11.782  14.337  -0.858  1.00  0.00    -0.307 OA
HETATM   26  H23 UNL     1      11.137  13.639  -1.030  1.00  0.00     0.222 HD
ENDBRANCH  23  25
BRANCH  23  27
HETATM   27  O7  UNL     1      12.967  12.182  -0.593  1.00  0.00    -0.195 OA
BRANCH  27  28
HETATM   28  P2  UNL     1      12.108  11.689  -1.841  1.00  0.00     0.401 P 
HETATM   29  O8  UNL     1      10.623  11.799  -1.726  1.00  0.00    -0.631 OA
BRANCH  28  30
HETATM   30  O9  UNL     1      12.730  12.511  -3.061  1.00  0.00    -0.307 OA
HETATM   31  H24 UNL     1      12.716  12.026  -3.922  1.00  0.00     0.222 HD
ENDBRANCH  28  30
BRANCH  28  32
HETATM   32  O10 UNL     1      12.678  10.230  -2.149  1.00  0.00    -0.294 OA
BRANCH  32  33
HETATM   33  C14 UNL     1      11.961   9.357  -2.983  1.00  0.00     0.215 C 
BRANCH  33  34
HETATM   34  C15 UNL     1      12.945   8.269  -3.409  1.00  0.00     0.180 C 
HETATM   35  C16 UNL     1      12.524   6.932  -2.813  1.00  0.00     0.197 C 
HETATM   36  C17 UNL     1      13.675   6.534  -1.909  1.00  0.00     0.199 C 
HETATM   37  C18 UNL     1      14.854   7.279  -2.541  1.00  0.00     0.262 C 
HETATM   38  O11 UNL     1      14.287   8.532  -2.985  1.00  0.00    -0.353 OA
BRANCH  35  39
HETATM   39  O13 UNL     1      12.338   6.011  -3.883  1.00  0.00    -0.286 OA
BRANCH  39  40
HETATM   40  P3  UNL     1      10.885   5.353  -3.982  1.00  0.00     0.391 P 
HETATM   41  O14 UNL     1       9.836   6.282  -4.502  1.00  0.00    -0.632 OA
BRANCH  40  42
HETATM   42  O15 UNL     1      10.708   4.795  -2.493  1.00  0.00    -0.307 OA
HETATM   43  H36 UNL     1       9.773   4.523  -2.331  1.00  0.00     0.222 HD
ENDBRANCH  40  42
BRANCH  40  44
HETATM   44  O16 UNL     1      11.190   4.040  -4.826  1.00  0.00    -0.307 OA
HETATM   45  H37 UNL     1      10.440   3.763  -5.376  1.00  0.00     0.222 HD
ENDBRANCH  40  44
ENDBRANCH  39  40
ENDBRANCH  35  39
BRANCH  36  46
HETATM   46  O12 UNL     1      13.769   5.110  -1.823  1.00  0.00    -0.388 OA
HETATM   47  H35 UNL     1      13.311   4.752  -2.621  1.00  0.00     0.210 HD
ENDBRANCH  36  46
BRANCH  37  48
HETATM   48  N3  UNL     1      15.911   7.556  -1.590  1.00  0.00    -0.297 N 
HETATM   49  C19 UNL     1      16.912   6.703  -1.187  1.00  0.00     0.188 A 
HETATM   50  N4  UNL     1      17.790   7.296  -0.409  1.00  0.00    -0.346 N 
HETATM   51  C20 UNL     1      17.340   8.601  -0.306  1.00  0.00     0.116 A 
HETATM   52  H4  UNL     1      18.619   6.887   0.023  1.00  0.00     0.167 HD
HETATM   53  C21 UNL     1      17.852   9.737   0.343  1.00  0.00     0.109 A 
HETATM   54  C23 UNL     1      16.155   8.765  -1.001  1.00  0.00     0.142 A 
HETATM   55  N5  UNL     1      17.157  10.898   0.265  1.00  0.00    -0.341 N 
HETATM   56  C22 UNL     1      16.002  10.905  -0.430  1.00  0.00     0.183 A 
HETATM   57  H5  UNL     1      17.499  11.744   0.720  1.00  0.00     0.167 HD
HETATM   58  N6  UNL     1      15.420   9.887  -1.096  1.00  0.00    -0.336 N 
HETATM   59  H6  UNL     1      14.538   9.958  -1.606  1.00  0.00     0.168 HD
BRANCH  53  60
HETATM   60  N7  UNL     1      19.031   9.732   1.071  1.00  0.00    -0.287 NA
HETATM   61  H33 UNL     1      19.292   8.820   1.440  1.00  0.00     0.125 HD
HETATM   62  H34 UNL     1      19.109  10.518   1.703  1.00  0.00     0.125 HD
ENDBRANCH  53  60
ENDBRANCH  37  48
ENDBRANCH  33  34
ENDBRANCH  32  33
ENDBRANCH  28  32
ENDBRANCH  27  28
ENDBRANCH  23  27
ENDBRANCH  22  23
ENDBRANCH  21  22
ENDBRANCH  18  21
ENDBRANCH  17  18
BRANCH  17  63
HETATM   63  O17 UNL     1      13.391  10.726   1.904  1.00  0.00    -0.385 OA
HETATM   64  H38 UNL     1      13.727  11.478   1.389  1.00  0.00     0.210 HD
ENDBRANCH  17  63
ENDBRANCH  14  17
ENDBRANCH  12  13
ENDBRANCH  11  12
ENDBRANCH   8  11
ENDBRANCH   6   7
ENDBRANCH   5   6
ENDBRANCH   4   5
ENDBRANCH   2   4
TORSDOF 27
ENDMDL
MODEL 8
REMARK VINA RESULT:      -5.8      3.295      4.735
REMARK  27 active torsions:
REMARK  status: ('A' for Active; 'I' for Inactive)
REMARK    1  A    between atoms: C2_2  and  S1_4 
REMARK    2  A    between atoms: S1_4  and  C3_5 
REMARK    3  A    between atoms: C3_5  and  C4_6 
REMARK    4  A    between atoms: C4_6  and  N1_7 
REMARK       I    between atoms: N1_7  and  C5_8 
REMARK    5  A    between atoms: C5_8  and  C6_10 
REMARK    6  A    between atoms: C6_10  and  C7_11 
REMARK    7  A    between atoms: C7_11  and  N2_12 
REMARK       I    between atoms: N2_12  and  C8_13 
REMARK    8  A    between atoms: C8_13  and  C9_15 
REMARK    9  A    between atoms: C9_15  and  C10_16 
REMARK   10  A    between atoms: C9_15  and  O17_54 
REMARK   11  A    between atoms: C10_16  and  C13_19 
REMARK   12  A    between atoms: C13_19  and  O4_20 
REMARK   13  A    between atoms: O4_20  and  P1_21 
REMARK   14  A    between atoms: P1_21  and  O6_23 
REMARK   15  A    between atoms: P1_21  and  O7_24 
REMARK   16  A    between atoms: O7_24  and  P2_25 
REMARK   17  A    between atoms: P2_25  and  O9_27 
REMARK   18  A    between atoms: P2_25  and  O10_28 
REMARK   19  A    between atoms: O10_28  and  C14_29 
REMARK   20  A    between atoms: C14_29  and  C15_30 
REMARK   21  A    between atoms: C16_31  and  O13_49 
REMARK   22  A    between atoms: C17_32  and  O12_48 
REMARK   23  A    between atoms: C18_33  and  N3_35 
REMARK   24  A    between atoms: C21_40  and  N7_47 
REMARK   25  A    between atoms: O13_49  and  P3_50 
REMARK   26  A    between atoms: P3_50  and  O15_52 
REMARK   27  A    between atoms: P3_50  and  O16_53 
ROOT
HETATM    1  C1  UNL     1      14.593  13.938   0.175  1.00  0.00     0.104 C 
HETATM    2  C2  UNL     1      13.571  13.199   0.984  1.00  0.00     0.182 C 
HETATM    3  O1  UNL     1      13.016  12.174   0.595  1.00  0.00    -0.286 OA
ENDROOT
BRANCH   2   4
HETATM    4  S1  UNL     1      13.196  13.942   2.533  1.00  0.00    -0.091 SA
BRANCH   4   5
HETATM    5  C3  UNL     1      11.586  13.164   2.883  1.00  0.00     0.102 C 
BRANCH   5   6
HETATM    6  C4  UNL     1      10.769  13.975   3.891  1.00  0.00     0.133 C 
BRANCH   6   7
HETATM    7  N1  UNL     1      10.708  13.347   5.195  1.00  0.00    -0.360 N 
HETATM    8  C5  UNL     1       9.650  13.556   6.050  1.00  0.00     0.219 C 
HETATM    9  O2  UNL     1       8.744  14.341   5.799  1.00  0.00    -0.274 OA
HETATM   10  H8  UNL     1      11.461  12.734   5.476  1.00  0.00     0.162 HD
BRANCH   8  11
HETATM   11  C6  UNL     1       9.753  12.764   7.335  1.00  0.00     0.122 C 
BRANCH  11  12
HETATM   12  C7  UNL     1       9.343  11.304   7.141  1.00  0.00     0.132 C 
BRANCH  12  13
HETATM   13  N2  UNL     1      10.471  10.398   7.102  1.00  0.00    -0.358 N 
HETATM   14  C8  UNL     1      10.995   9.991   5.888  1.00  0.00     0.247 C 
HETATM   15  O3  UNL     1      10.466  10.275   4.821  1.00  0.00    -0.271 OA
HETATM   16  H13 UNL     1      11.115  10.465   7.888  1.00  0.00     0.162 HD
BRANCH  14  17
HETATM   17  C9  UNL     1      12.294   9.176   5.988  1.00  0.00     0.219 C 
BRANCH  17  18
HETATM   18  C10 UNL     1      13.565   9.933   5.520  1.00  0.00     0.009 C 
HETATM   19  C11 UNL     1      13.469  11.443   5.784  1.00  0.00     0.020 C 
HETATM   20  C12 UNL     1      14.829   9.407   6.229  1.00  0.00     0.020 C 
BRANCH  18  21
HETATM   21  C13 UNL     1      13.675   9.675   3.990  1.00  0.00     0.192 C 
BRANCH  21  22
HETATM   22  O4  UNL     1      14.495  10.627   3.342  1.00  0.00    -0.296 OA
BRANCH  22  23
HETATM   23  P1  UNL     1      15.797  10.223   2.498  1.00  0.00     0.401 P 
HETATM   24  O5  UNL     1      16.684   9.229   3.179  1.00  0.00    -0.631 OA
BRANCH  23  25
HETATM   25  O6  UNL     1      16.541  11.595   2.105  1.00  0.00    -0.307 OA
HETATM   26  H23 UNL     1      16.635  12.186   2.864  1.00  0.00     0.222 HD
ENDBRANCH  23  25
BRANCH  23  27
HETATM   27  O7  UNL     1      15.241   9.757   1.082  1.00  0.00    -0.195 OA
BRANCH  27  28
HETATM   28  P2  UNL     1      16.240   9.063   0.053  1.00  0.00     0.401 P 
HETATM   29  O8  UNL     1      17.559   9.729  -0.163  1.00  0.00    -0.631 OA
BRANCH  28  30
HETATM   30  O9  UNL     1      16.347   7.566   0.598  1.00  0.00    -0.307 OA
HETATM   31  H24 UNL     1      17.275   7.245   0.716  1.00  0.00     0.222 HD
ENDBRANCH  28  30
BRANCH  28  32
HETATM   32  O10 UNL     1      15.351   8.836  -1.254  1.00  0.00    -0.294 OA
BRANCH  32  33
HETATM   33  C14 UNL     1      15.377   7.598  -1.915  1.00  0.00     0.215 C 
BRANCH  33  34
HETATM   34  C15 UNL     1      14.312   7.675  -3.008  1.00  0.00     0.180 C 
HETATM   35  C16 UNL     1      13.404   8.872  -2.759  1.00  0.00     0.197 C 
HETATM   36  C17 UNL     1      12.028   8.272  -2.541  1.00  0.00     0.199 C 
HETATM   37  C18 UNL     1      12.130   6.946  -3.299  1.00  0.00     0.262 C 
HETATM   38  O11 UNL     1      13.486   6.506  -3.067  1.00  0.00    -0.353 OA
BRANCH  35  39
HETATM   39  O13 UNL     1      13.449   9.707  -3.912  1.00  0.00    -0.286 OA
BRANCH  39  40
HETATM   40  P3  UNL     1      14.252  11.078  -3.738  1.00  0.00     0.391 P 
HETATM   41  O14 UNL     1      15.672  11.007  -4.199  1.00  0.00    -0.632 OA
BRANCH  40  42
HETATM   42  O15 UNL     1      13.990  11.385  -2.190  1.00  0.00    -0.307 OA
HETATM   43  H36 UNL     1      13.267  12.048  -2.083  1.00  0.00     0.222 HD
ENDBRANCH  40  42
BRANCH  40  44
HETATM   44  O16 UNL     1      13.288  12.104  -4.478  1.00  0.00    -0.307 OA
HETATM   45  H37 UNL     1      13.747  12.637  -5.146  1.00  0.00     0.222 HD
ENDBRANCH  40  44
ENDBRANCH  39  40
ENDBRANCH  35  39
BRANCH  36  46
HETATM   46  O12 UNL     1      11.014   9.191  -2.959  1.00  0.00    -0.388 OA
HETATM   47  H35 UNL     1      10.825   9.768  -2.181  1.00  0.00     0.210 HD
ENDBRANCH  36  46
BRANCH  37  48
HETATM   48  N3  UNL     1      11.219   5.941  -2.788  1.00  0.00    -0.297 N 
HETATM   49  C19 UNL     1      11.550   4.748  -2.190  1.00  0.00     0.188 A 
HETATM   50  N4  UNL     1      10.496   4.116  -1.720  1.00  0.00    -0.346 N 
HETATM   51  C20 UNL     1       9.429   4.944  -2.026  1.00  0.00     0.116 A 
HETATM   52  H4  UNL     1      10.470   3.218  -1.239  1.00  0.00     0.167 HD
HETATM   53  C21 UNL     1       8.052   4.859  -1.759  1.00  0.00     0.109 A 
HETATM   54  C23 UNL     1       9.859   6.059  -2.722  1.00  0.00     0.142 A 
HETATM   55  N5  UNL     1       7.242   5.849  -2.210  1.00  0.00    -0.341 N 
HETATM   56  C22 UNL     1       7.799   6.866  -2.897  1.00  0.00     0.183 A 
HETATM   57  H5  UNL     1       6.238   5.824  -2.033  1.00  0.00     0.167 HD
HETATM   58  N6  UNL     1       9.099   7.058  -3.203  1.00  0.00    -0.336 N 
HETATM   59  H6  UNL     1       9.457   7.854  -3.730  1.00  0.00     0.168 HD
BRANCH  53  60
HETATM   60  N7  UNL     1       7.472   3.809  -1.066  1.00  0.00    -0.287 NA
HETATM   61  H33 UNL     1       7.431   3.944  -0.059  1.00  0.00     0.125 HD
HETATM   62  H34 UNL     1       7.782   2.903  -1.392  1.00  0.00     0.125 HD
ENDBRANCH  53  60
ENDBRANCH  37  48
ENDBRANCH  33  34
ENDBRANCH  32  33
ENDBRANCH  28  32
ENDBRANCH  27  28
ENDBRANCH  23  27
ENDBRANCH  22  23
ENDBRANCH  21  22
ENDBRANCH  18  21
ENDBRANCH  17  18
BRANCH  17  63
HETATM   63  O17 UNL     1      12.497   8.737   7.336  1.00  0.00    -0.385 OA
HETATM   64  H38 UNL     1      11.965   7.935   7.475  1.00  0.00     0.210 HD
ENDBRANCH  17  63
ENDBRANCH  14  17
ENDBRANCH  12  13
ENDBRANCH  11  12
ENDBRANCH   8  11
ENDBRANCH   6   7
ENDBRANCH   5   6
ENDBRANCH   4   5
ENDBRANCH   2   4
TORSDOF 27
ENDMDL
MODEL 9
REMARK VINA RESULT:      -5.7      4.988      8.913
REMARK  27 active torsions:
REMARK  status: ('A' for Active; 'I' for Inactive)
REMARK    1  A    between atoms: C2_2  and  S1_4 
REMARK    2  A    between atoms: S1_4  and  C3_5 
REMARK    3  A    between atoms: C3_5  and  C4_6 
REMARK    4  A    between atoms: C4_6  and  N1_7 
REMARK       I    between atoms: N1_7  and  C5_8 
REMARK    5  A    between atoms: C5_8  and  C6_10 
REMARK    6  A    between atoms: C6_10  and  C7_11 
REMARK    7  A    between atoms: C7_11  and  N2_12 
REMARK       I    between atoms: N2_12  and  C8_13 
REMARK    8  A    between atoms: C8_13  and  C9_15 
REMARK    9  A    between atoms: C9_15  and  C10_16 
REMARK   10  A    between atoms: C9_15  and  O17_54 
REMARK   11  A    between atoms: C10_16  and  C13_19 
REMARK   12  A    between atoms: C13_19  and  O4_20 
REMARK   13  A    between atoms: O4_20  and  P1_21 
REMARK   14  A    between atoms: P1_21  and  O6_23 
REMARK   15  A    between atoms: P1_21  and  O7_24 
REMARK   16  A    between atoms: O7_24  and  P2_25 
REMARK   17  A    between atoms: P2_25  and  O9_27 
REMARK   18  A    between atoms: P2_25  and  O10_28 
REMARK   19  A    between atoms: O10_28  and  C14_29 
REMARK   20  A    between atoms: C14_29  and  C15_30 
REMARK   21  A    between atoms: C16_31  and  O13_49 
REMARK   22  A    between atoms: C17_32  and  O12_48 
REMARK   23  A    between atoms: C18_33  and  N3_35 
REMARK   24  A    between atoms: C21_40  and  N7_47 
REMARK   25  A    between atoms: O13_49  and  P3_50 
REMARK   26  A    between atoms: P3_50  and  O15_52 
REMARK   27  A    between atoms: P3_50  and  O16_53 
ROOT
HETATM    1  C1  UNL     1       7.155   5.387  -2.305  1.00  0.00     0.104 C 
HETATM    2  C2  UNL     1       7.950   4.316  -1.624  1.00  0.00     0.182 C 
HETATM    3  O1  UNL     1       7.465   3.522  -0.822  1.00  0.00    -0.286 OA
ENDROOT
BRANCH   2   4
HETATM    4  S1  UNL     1       9.660   4.309  -2.038  1.00  0.00    -0.091 SA
BRANCH   4   5
HETATM    5  C3  UNL     1       9.627   5.303  -3.564  1.00  0.00     0.102 C 
BRANCH   5   6
HETATM    6  C4  UNL     1      10.984   5.950  -3.851  1.00  0.00     0.133 C 
BRANCH   6   7
HETATM    7  N1  UNL     1      11.204   7.155  -3.078  1.00  0.00    -0.360 N 
HETATM    8  C5  UNL     1      10.455   8.291  -3.278  1.00  0.00     0.219 C 
HETATM    9  O2  UNL     1       9.618   8.381  -4.169  1.00  0.00    -0.274 OA
HETATM   10  H8  UNL     1      11.924   7.152  -2.368  1.00  0.00     0.162 HD
BRANCH   8  11
HETATM   11  C6  UNL     1      10.807   9.416  -2.330  1.00  0.00     0.122 C 
BRANCH  11  12
HETATM   12  C7  UNL     1      12.157  10.047  -2.669  1.00  0.00     0.132 C 
BRANCH  12  13
HETATM   13  N2  UNL     1      13.107   9.975  -1.579  1.00  0.00    -0.358 N 
HETATM   14  C8  UNL     1      14.076   8.988  -1.563  1.00  0.00     0.247 C 
HETATM   15  O3  UNL     1      14.096   8.082  -2.387  1.00  0.00    -0.271 OA
HETATM   16  H13 UNL     1      13.342  10.864  -1.143  1.00  0.00     0.162 HD
BRANCH  14  17
HETATM   17  C9  UNL     1      15.124   9.132  -0.450  1.00  0.00     0.219 C 
BRANCH  17  18
HETATM   18  C10 UNL     1      16.328  10.040  -0.814  1.00  0.00     0.009 C 
HETATM   19  C11 UNL     1      17.674   9.348  -0.554  1.00  0.00     0.020 C 
HETATM   20  C12 UNL     1      16.289  10.462  -2.297  1.00  0.00     0.020 C 
BRANCH  18  21
HETATM   21  C13 UNL     1      16.203  11.298   0.092  1.00  0.00     0.192 C 
BRANCH  21  22
HETATM   22  O4  UNL     1      15.767  12.436  -0.623  1.00  0.00    -0.296 OA
BRANCH  22  23
HETATM   23  P1  UNL     1      14.356  13.148  -0.350  1.00  0.00     0.401 P 
HETATM   24  O5  UNL     1      13.429  13.140  -1.525  1.00  0.00    -0.631 OA
BRANCH  23  25
HETATM   25  O6  UNL     1      14.679  14.621   0.213  1.00  0.00    -0.307 OA
HETATM   26  H23 UNL     1      15.278  15.107  -0.369  1.00  0.00     0.222 HD
ENDBRANCH  23  25
BRANCH  23  27
HETATM   27  O7  UNL     1      13.783  12.438   0.953  1.00  0.00    -0.195 OA
BRANCH  27  28
HETATM   28  P2  UNL     1      12.271  12.709   1.376  1.00  0.00     0.401 P 
HETATM   29  O8  UNL     1      11.802  14.127   1.340  1.00  0.00    -0.631 OA
BRANCH  28  30
HETATM   30  O9  UNL     1      11.444  11.725   0.429  1.00  0.00    -0.307 OA
HETATM   31  H24 UNL     1      11.019  12.172  -0.344  1.00  0.00     0.222 HD
ENDBRANCH  28  30
BRANCH  28  32
HETATM   32  O10 UNL     1      12.122  11.960   2.779  1.00  0.00    -0.294 OA
BRANCH  32  33
HETATM   33  C14 UNL     1      11.232  12.452   3.746  1.00  0.00     0.215 C 
BRANCH  33  34
HETATM   34  C15 UNL     1      11.762  11.973   5.096  1.00  0.00     0.180 C 
HETATM   35  C16 UNL     1      12.243  10.533   4.980  1.00  0.00     0.197 C 
HETATM   36  C17 UNL     1      11.352   9.752   5.927  1.00  0.00     0.199 C 
HETATM   37  C18 UNL     1      10.929  10.826   6.931  1.00  0.00     0.262 C 
HETATM   38  O11 UNL     1      10.775  12.020   6.133  1.00  0.00    -0.353 OA
BRANCH  35  39
HETATM   39  O13 UNL     1      13.611  10.492   5.373  1.00  0.00    -0.286 OA
BRANCH  39  40
HETATM   40  P3  UNL     1      14.622   9.891   4.289  1.00  0.00     0.391 P 
HETATM   41  O14 UNL     1      15.754   9.119   4.884  1.00  0.00    -0.632 OA
BRANCH  40  42
HETATM   42  O15 UNL     1      14.981  11.207   3.454  1.00  0.00    -0.307 OA
HETATM   43  H36 UNL     1      14.231  11.464   2.867  1.00  0.00     0.222 HD
ENDBRANCH  40  42
BRANCH  40  44
HETATM   44  O16 UNL     1      13.625   9.113   3.326  1.00  0.00    -0.307 OA
HETATM   45  H37 UNL     1      13.760   9.329   2.389  1.00  0.00     0.222 HD
ENDBRANCH  40  44
ENDBRANCH  39  40
ENDBRANCH  35  39
BRANCH  36  46
HETATM   46  O12 UNL     1      12.050   8.613   6.438  1.00  0.00    -0.388 OA
HETATM   47  H35 UNL     1      12.372   8.109   5.653  1.00  0.00     0.210 HD
ENDBRANCH  36  46
BRANCH  37  48
HETATM   48  N3  UNL     1       9.663  10.524   7.568  1.00  0.00    -0.297 N 
HETATM   49  C19 UNL     1       8.955   9.347   7.494  1.00  0.00     0.188 A 
HETATM   50  N4  UNL     1       7.906   9.345   8.288  1.00  0.00    -0.346 N 
HETATM   51  C20 UNL     1       7.938  10.580   8.911  1.00  0.00     0.116 A 
HETATM   52  H4  UNL     1       7.222   8.600   8.416  1.00  0.00     0.167 HD
HETATM   53  C21 UNL     1       7.126  11.173   9.893  1.00  0.00     0.109 A 
HETATM   54  C23 UNL     1       8.999  11.335   8.445  1.00  0.00     0.142 A 
HETATM   55  N5  UNL     1       7.417  12.432  10.302  1.00  0.00    -0.341 N 
HETATM   56  C22 UNL     1       8.470  13.058   9.741  1.00  0.00     0.183 A 
HETATM   57  H5  UNL     1       6.852  12.894  11.016  1.00  0.00     0.167 HD
HETATM   58  N6  UNL     1       9.321  12.591   8.804  1.00  0.00    -0.336 N 
HETATM   59  H6  UNL     1      10.104  13.119   8.419  1.00  0.00     0.168 HD
BRANCH  53  60
HETATM   60  N7  UNL     1       6.033  10.539  10.463  1.00  0.00    -0.287 NA
HETATM   61  H33 UNL     1       5.847   9.610  10.091  1.00  0.00     0.125 HD
HETATM   62  H34 UNL     1       5.237  11.152  10.576  1.00  0.00     0.125 HD
ENDBRANCH  53  60
ENDBRANCH  37  48
ENDBRANCH  33  34
ENDBRANCH  32  33
ENDBRANCH  28  32
ENDBRANCH  27  28
ENDBRANCH  23  27
ENDBRANCH  22  23
ENDBRANCH  21  22
ENDBRANCH  18  21
ENDBRANCH  17  18
BRANCH  17  63
HETATM   63  O17 UNL     1      14.513   9.643   0.740  1.00  0.00    -0.385 OA
HETATM   64  H38 UNL     1      14.249   8.887   1.292  1.00  0.00     0.210 HD
ENDBRANCH  17  63
ENDBRANCH  14  17
ENDBRANCH  12  13
ENDBRANCH  11  12
ENDBRANCH   8  11
ENDBRANCH   6   7
ENDBRANCH   5   6
ENDBRANCH   4   5
ENDBRANCH   2   4
TORSDOF 27
ENDMDL
MODEL 10
REMARK VINA RESULT:      -5.7      3.466      5.084
REMARK  27 active torsions:
REMARK  status: ('A' for Active; 'I' for Inactive)
REMARK    1  A    between atoms: C2_2  and  S1_4 
REMARK    2  A    between atoms: S1_4  and  C3_5 
REMARK    3  A    between atoms: C3_5  and  C4_6 
REMARK    4  A    between atoms: C4_6  and  N1_7 
REMARK       I    between atoms: N1_7  and  C5_8 
REMARK    5  A    between atoms: C5_8  and  C6_10 
REMARK    6  A    between atoms: C6_10  and  C7_11 
REMARK    7  A    between atoms: C7_11  and  N2_12 
REMARK       I    between atoms: N2_12  and  C8_13 
REMARK    8  A    between atoms: C8_13  and  C9_15 
REMARK    9  A    between atoms: C9_15  and  C10_16 
REMARK   10  A    between atoms: C9_15  and  O17_54 
REMARK   11  A    between atoms: C10_16  and  C13_19 
REMARK   12  A    between atoms: C13_19  and  O4_20 
REMARK   13  A    between atoms: O4_20  and  P1_21 
REMARK   14  A    between atoms: P1_21  and  O6_23 
REMARK   15  A    between atoms: P1_21  and  O7_24 
REMARK   16  A    between atoms: O7_24  and  P2_25 
REMARK   17  A    between atoms: P2_25  and  O9_27 
REMARK   18  A    between atoms: P2_25  and  O10_28 
REMARK   19  A    between atoms: O10_28  and  C14_29 
REMARK   20  A    between atoms: C14_29  and  C15_30 
REMARK   21  A    between atoms: C16_31  and  O13_49 
REMARK   22  A    between atoms: C17_32  and  O12_48 
REMARK   23  A    between atoms: C18_33  and  N3_35 
REMARK   24  A    between atoms: C21_40  and  N7_47 
REMARK   25  A    between atoms: O13_49  and  P3_50 
REMARK   26  A    between atoms: P3_50  and  O15_52 
REMARK   27  A    between atoms: P3_50  and  O16_53 
ROOT
HETATM    1  C1  UNL     1      12.583  14.947  -0.212  1.00  0.00     0.104 C 
HETATM    2  C2  UNL     1      12.181  13.923   0.805  1.00  0.00     0.182 C 
HETATM    3  O1  UNL     1      11.737  12.816   0.508  1.00  0.00    -0.286 OA
ENDROOT
BRANCH   2   4
HETATM    4  S1  UNL     1      12.360  14.448   2.473  1.00  0.00    -0.091 SA
BRANCH   4   5
HETATM    5  C3  UNL     1      11.208  13.303   3.298  1.00  0.00     0.102 C 
BRANCH   5   6
HETATM    6  C4  UNL     1      10.427  13.990   4.421  1.00  0.00     0.133 C 
BRANCH   6   7
HETATM    7  N1  UNL     1      10.525  13.285   5.682  1.00  0.00    -0.360 N 
HETATM    8  C5  UNL     1       9.578  13.433   6.669  1.00  0.00     0.219 C 
HETATM    9  O2  UNL     1       8.645  14.222   6.576  1.00  0.00    -0.274 OA
HETATM   10  H8  UNL     1      11.308  12.664   5.833  1.00  0.00     0.162 HD
BRANCH   8  11
HETATM   11  C6  UNL     1       9.837  12.567   7.883  1.00  0.00     0.122 C 
BRANCH  11  12
HETATM   12  C7  UNL     1       9.446  11.110   7.639  1.00  0.00     0.132 C 
BRANCH  12  13
HETATM   13  N2  UNL     1      10.587  10.242   7.435  1.00  0.00    -0.358 N 
HETATM   14  C8  UNL     1      10.961   9.873   6.156  1.00  0.00     0.247 C 
HETATM   15  O3  UNL     1      10.290  10.158   5.172  1.00  0.00    -0.271 OA
HETATM   16  H13 UNL     1      11.324  10.316   8.132  1.00  0.00     0.162 HD
BRANCH  14  17
HETATM   17  C9  UNL     1      12.286   9.100   6.070  1.00  0.00     0.219 C 
BRANCH  17  18
HETATM   18  C10 UNL     1      13.436   9.872   5.372  1.00  0.00     0.009 C 
HETATM   19  C11 UNL     1      13.315  11.391   5.566  1.00  0.00     0.020 C 
HETATM   20  C12 UNL     1      14.816   9.434   5.904  1.00  0.00     0.020 C 
BRANCH  18  21
HETATM   21  C13 UNL     1      13.324   9.528   3.859  1.00  0.00     0.192 C 
BRANCH  21  22
HETATM   22  O4  UNL     1      13.589  10.643   3.032  1.00  0.00    -0.296 OA
BRANCH  22  23
HETATM   23  P1  UNL     1      14.769  10.662   1.947  1.00  0.00     0.401 P 
HETATM   24  O5  UNL     1      15.906   9.742   2.263  1.00  0.00    -0.631 OA
BRANCH  23  25
HETATM   25  O6  UNL     1      15.209  12.200   1.764  1.00  0.00    -0.307 OA
HETATM   26  H23 UNL     1      16.129  12.345   2.021  1.00  0.00     0.222 HD
ENDBRANCH  23  25
BRANCH  23  27
HETATM   27  O7  UNL     1      14.052  10.379   0.555  1.00  0.00    -0.195 OA
BRANCH  27  28
HETATM   28  P2  UNL     1      14.783  10.817  -0.791  1.00  0.00     0.401 P 
HETATM   29  O8  UNL     1      14.543  12.213  -1.267  1.00  0.00    -0.631 OA
BRANCH  28  30
HETATM   30  O9  UNL     1      16.317  10.482  -0.501  1.00  0.00    -0.307 OA
HETATM   31  H24 UNL     1      16.483   9.542  -0.246  1.00  0.00     0.222 HD
ENDBRANCH  28  30
BRANCH  28  32
HETATM   32  O10 UNL     1      14.418   9.656  -1.824  1.00  0.00    -0.294 OA
BRANCH  32  33
HETATM   33  C14 UNL     1      14.603   8.312  -1.464  1.00  0.00     0.215 C 
BRANCH  33  34
HETATM   34  C15 UNL     1      14.275   7.487  -2.708  1.00  0.00     0.180 C 
HETATM   35  C16 UNL     1      14.178   8.402  -3.922  1.00  0.00     0.197 C 
HETATM   36  C17 UNL     1      12.745   8.259  -4.398  1.00  0.00     0.199 C 
HETATM   37  C18 UNL     1      12.368   6.871  -3.875  1.00  0.00     0.262 C 
HETATM   38  O11 UNL     1      13.035   6.778  -2.597  1.00  0.00    -0.353 OA
BRANCH  35  39
HETATM   39  O13 UNL     1      15.114   7.947  -4.893  1.00  0.00    -0.286 OA
BRANCH  39  40
HETATM   40  P3  UNL     1      16.514   8.719  -4.916  1.00  0.00     0.391 P 
HETATM   41  O14 UNL     1      17.168   8.741  -6.260  1.00  0.00    -0.632 OA
BRANCH  40  42
HETATM   42  O15 UNL     1      17.286   7.976  -3.728  1.00  0.00    -0.307 OA
HETATM   43  H36 UNL     1      16.755   7.216  -3.390  1.00  0.00     0.222 HD
ENDBRANCH  40  42
BRANCH  40  44
HETATM   44  O16 UNL     1      16.114  10.116  -4.269  1.00  0.00    -0.307 OA
HETATM   45  H37 UNL     1      16.263  10.143  -3.311  1.00  0.00     0.222 HD
ENDBRANCH  40  44
ENDBRANCH  39  40
ENDBRANCH  35  39
BRANCH  36  46
HETATM   46  O12 UNL     1      12.667   8.472  -5.810  1.00  0.00    -0.388 OA
HETATM   47  H35 UNL     1      13.509   8.125  -6.190  1.00  0.00     0.210 HD
ENDBRANCH  36  46
BRANCH  37  48
HETATM   48  N3  UNL     1      10.941   6.723  -3.667  1.00  0.00    -0.297 N 
HETATM   49  C19 UNL     1       9.945   7.557  -4.117  1.00  0.00     0.188 A 
HETATM   50  N4  UNL     1       8.745   7.079  -3.872  1.00  0.00    -0.346 N 
HETATM   51  C20 UNL     1       8.974   5.871  -3.236  1.00  0.00     0.116 A 
HETATM   52  H4  UNL     1       7.845   7.502  -4.099  1.00  0.00     0.167 HD
HETATM   53  C21 UNL     1       8.114   4.867  -2.759  1.00  0.00     0.109 A 
HETATM   54  C23 UNL     1      10.330   5.657  -3.068  1.00  0.00     0.142 A 
HETATM   55  N5  UNL     1       8.656   3.779  -2.158  1.00  0.00    -0.341 N 
HETATM   56  C22 UNL     1       9.998   3.716  -2.043  1.00  0.00     0.183 A 
HETATM   57  H5  UNL     1       8.064   3.028  -1.803  1.00  0.00     0.167 HD
HETATM   58  N6  UNL     1      10.918   4.607  -2.467  1.00  0.00    -0.336 N 
HETATM   59  H6  UNL     1      11.925   4.499  -2.347  1.00  0.00     0.168 HD
BRANCH  53  60
HETATM   60  N7  UNL     1       6.734   4.933  -2.862  1.00  0.00    -0.287 NA
HETATM   61  H33 UNL     1       6.398   5.521  -3.622  1.00  0.00     0.125 HD
HETATM   62  H34 UNL     1       6.276   5.042  -1.966  1.00  0.00     0.125 HD
ENDBRANCH  53  60
ENDBRANCH  37  48
ENDBRANCH  33  34
ENDBRANCH  32  33
ENDBRANCH  28  32
ENDBRANCH  27  28
ENDBRANCH  23  27
ENDBRANCH  22  23
ENDBRANCH  21  22
ENDBRANCH  18  21
ENDBRANCH  17  18
BRANCH  17  63
HETATM   63  O17 UNL     1      12.722   8.723   7.381  1.00  0.00    -0.385 OA
HETATM   64  H38 UNL     1      12.758   7.752   7.419  1.00  0.00     0.210 HD
ENDBRANCH  17  63
ENDBRANCH  14  17
ENDBRANCH  12  13
ENDBRANCH  11  12
ENDBRANCH   8  11
ENDBRANCH   6   7
ENDBRANCH   5   6
ENDBRANCH   4   5
ENDBRANCH   2   4
TORSDOF 27
ENDMDL
MODEL 11
REMARK VINA RESULT:      -5.5      4.399      8.615
REMARK  27 active torsions:
REMARK  status: ('A' for Active; 'I' for Inactive)
REMARK    1  A    between atoms: C2_2  and  S1_4 
REMARK    2  A    between atoms: S1_4  and  C3_5 
REMARK    3  A    between atoms: C3_5  and  C4_6 
REMARK    4  A    between atoms: C4_6  and  N1_7 
REMARK       I    between atoms: N1_7  and  C5_8 
REMARK    5  A    between atoms: C5_8  and  C6_10 
REMARK    6  A    between atoms: C6_10  and  C7_11 
REMARK    7  A    between atoms: C7_11  and  N2_12 
REMARK       I    between atoms: N2_12  and  C8_13 
REMARK    8  A    between atoms: C8_13  and  C9_15 
REMARK    9  A    between atoms: C9_15  and  C10_16 
REMARK   10  A    between atoms: C9_15  and  O17_54 
REMARK   11  A    between atoms: C10_16  and  C13_19 
REMARK   12  A    between atoms: C13_19  and  O4_20 
REMARK   13  A    between atoms: O4_20  and  P1_21 
REMARK   14  A    between atoms: P1_21  and  O6_23 
REMARK   15  A    between atoms: P1_21  and  O7_24 
REMARK   16  A    between atoms: O7_24  and  P2_25 
REMARK   17  A    between atoms: P2_25  and  O9_27 
REMARK   18  A    between atoms: P2_25  and  O10_28 
REMARK   19  A    between atoms: O10_28  and  C14_29 
REMARK   20  A    between atoms: C14_29  and  C15_30 
REMARK   21  A    between atoms: C16_31  and  O13_49 
REMARK   22  A    between atoms: C17_32  and  O12_48 
REMARK   23  A    between atoms: C18_33  and  N3_35 
REMARK   24  A    between atoms: C21_40  and  N7_47 
REMARK   25  A    between atoms: O13_49  and  P3_50 
REMARK   26  A    between atoms: P3_50  and  O15_52 
REMARK   27  A    between atoms: P3_50  and  O16_53 
ROOT
HETATM    1  C1  UNL     1       7.847   9.491  -1.168  1.00  0.00     0.104 C 
HETATM    2  C2  UNL     1       8.239   8.620  -2.322  1.00  0.00     0.182 C 
HETATM    3  O1  UNL     1       8.462   9.055  -3.450  1.00  0.00    -0.286 OA
ENDROOT
BRANCH   2   4
HETATM    4  S1  UNL     1       8.316   6.905  -1.944  1.00  0.00    -0.091 SA
BRANCH   4   5
HETATM    5  C3  UNL     1       8.550   6.215  -3.614  1.00  0.00     0.102 C 
BRANCH   5   6
HETATM    6  C4  UNL     1      10.024   5.931  -3.912  1.00  0.00     0.133 C 
BRANCH   6   7
HETATM    7  N1  UNL     1      10.916   6.871  -3.264  1.00  0.00    -0.360 N 
HETATM    8  C5  UNL     1      11.569   7.854  -3.970  1.00  0.00     0.219 C 
HETATM    9  O2  UNL     1      11.501   7.946  -5.190  1.00  0.00    -0.274 OA
HETATM   10  H8  UNL     1      11.054   6.801  -2.264  1.00  0.00     0.162 HD
BRANCH   8  11
HETATM   11  C6  UNL     1      12.408   8.762  -3.097  1.00  0.00     0.122 C 
BRANCH  11  12
HETATM   12  C7  UNL     1      13.463   9.517  -3.906  1.00  0.00     0.132 C 
BRANCH  12  13
HETATM   13  N2  UNL     1      14.779   8.921  -3.817  1.00  0.00    -0.358 N 
HETATM   14  C8  UNL     1      15.879   9.704  -3.519  1.00  0.00     0.247 C 
HETATM   15  O3  UNL     1      15.808  10.924  -3.438  1.00  0.00    -0.271 OA
HETATM   16  H13 UNL     1      14.801   7.951  -3.510  1.00  0.00     0.162 HD
BRANCH  14  17
HETATM   17  C9  UNL     1      17.180   8.923  -3.281  1.00  0.00     0.219 C 
BRANCH  17  18
HETATM   18  C10 UNL     1      17.299   8.287  -1.871  1.00  0.00     0.009 C 
HETATM   19  C11 UNL     1      16.290   7.149  -1.663  1.00  0.00     0.020 C 
HETATM   20  C12 UNL     1      18.712   7.721  -1.623  1.00  0.00     0.020 C 
BRANCH  18  21
HETATM   21  C13 UNL     1      17.009   9.434  -0.860  1.00  0.00     0.192 C 
BRANCH  21  22
HETATM   22  O4  UNL     1      16.162   9.021   0.194  1.00  0.00    -0.296 OA
BRANCH  22  23
HETATM   23  P1  UNL     1      16.621   9.018   1.730  1.00  0.00     0.401 P 
HETATM   24  O5  UNL     1      18.097   8.870   1.927  1.00  0.00    -0.631 OA
BRANCH  23  25
HETATM   25  O6  UNL     1      15.750   7.886   2.473  1.00  0.00    -0.307 OA
HETATM   26  H23 UNL     1      16.138   7.630   3.320  1.00  0.00     0.222 HD
ENDBRANCH  23  25
BRANCH  23  27
HETATM   27  O7  UNL     1      15.997  10.344   2.348  1.00  0.00    -0.195 OA
BRANCH  27  28
HETATM   28  P2  UNL     1      15.647  10.378   3.902  1.00  0.00     0.401 P 
HETATM   29  O8  UNL     1      16.569   9.645   4.820  1.00  0.00    -0.631 OA
BRANCH  28  30
HETATM   30  O9  UNL     1      15.521  11.938   4.215  1.00  0.00    -0.307 OA
HETATM   31  H24 UNL     1      14.758  12.380   3.768  1.00  0.00     0.222 HD
ENDBRANCH  28  30
BRANCH  28  32
HETATM   32  O10 UNL     1      14.112   9.942   3.962  1.00  0.00    -0.294 OA
BRANCH  32  33
HETATM   33  C14 UNL     1      13.382  10.101   5.150  1.00  0.00     0.215 C 
BRANCH  33  34
HETATM   34  C15 UNL     1      11.995  10.591   4.737  1.00  0.00     0.180 C 
HETATM   35  C16 UNL     1      12.113  11.932   4.025  1.00  0.00     0.197 C 
HETATM   36  C17 UNL     1      11.343  12.901   4.902  1.00  0.00     0.199 C 
HETATM   37  C18 UNL     1      10.357  11.976   5.619  1.00  0.00     0.262 C 
HETATM   38  O11 UNL     1      11.109  10.764   5.849  1.00  0.00    -0.353 OA
BRANCH  35  39
HETATM   39  O13 UNL     1      11.531  11.798   2.733  1.00  0.00    -0.286 OA
BRANCH  39  40
HETATM   40  P3  UNL     1      12.431  12.310   1.515  1.00  0.00     0.391 P 
HETATM   41  O14 UNL     1      11.647  12.927   0.403  1.00  0.00    -0.632 OA
BRANCH  40  42
HETATM   42  O15 UNL     1      13.268  10.987   1.185  1.00  0.00    -0.307 OA
HETATM   43  H36 UNL     1      12.913  10.541   0.380  1.00  0.00     0.222 HD
ENDBRANCH  40  42
BRANCH  40  44
HETATM   44  O16 UNL     1      13.489  13.228   2.269  1.00  0.00    -0.307 OA
HETATM   45  H37 UNL     1      13.111  14.070   2.567  1.00  0.00     0.222 HD
ENDBRANCH  40  44
ENDBRANCH  39  40
ENDBRANCH  35  39
BRANCH  36  46
HETATM   46  O12 UNL     1      10.794  13.958   4.110  1.00  0.00    -0.388 OA
HETATM   47  H35 UNL     1      10.170  13.533   3.474  1.00  0.00     0.210 HD
ENDBRANCH  36  46
BRANCH  37  48
HETATM   48  N3  UNL     1       9.924  12.506   6.896  1.00  0.00    -0.297 N 
HETATM   49  C19 UNL     1      10.245  13.727   7.441  1.00  0.00     0.188 A 
HETATM   50  N4  UNL     1       9.589  13.963   8.556  1.00  0.00    -0.346 N 
HETATM   51  C20 UNL     1       8.801  12.841   8.742  1.00  0.00     0.116 A 
HETATM   52  H4  UNL     1       9.649  14.788   9.152  1.00  0.00     0.167 HD
HETATM   53  C21 UNL     1       7.849  12.496   9.717  1.00  0.00     0.109 A 
HETATM   54  C23 UNL     1       9.027  11.914   7.741  1.00  0.00     0.142 A 
HETATM   55  N5  UNL     1       7.237  11.289   9.628  1.00  0.00    -0.341 N 
HETATM   56  C22 UNL     1       7.576  10.475   8.608  1.00  0.00     0.183 A 
HETATM   57  H5  UNL     1       6.539  11.005  10.315  1.00  0.00     0.167 HD
HETATM   58  N6  UNL     1       8.461  10.700   7.616  1.00  0.00    -0.336 N 
HETATM   59  H6  UNL     1       8.674  10.038   6.869  1.00  0.00     0.168 HD
BRANCH  53  60
HETATM   60  N7  UNL     1       7.508  13.323  10.775  1.00  0.00    -0.287 NA
HETATM   61  H33 UNL     1       8.016  13.132  11.636  1.00  0.00     0.125 HD
HETATM   62  H34 UNL     1       6.510  13.467  10.857  1.00  0.00     0.125 HD
ENDBRANCH  53  60
ENDBRANCH  37  48
ENDBRANCH  33  34
ENDBRANCH  32  33
ENDBRANCH  28  32
ENDBRANCH  27  28
ENDBRANCH  23  27
ENDBRANCH  22  23
ENDBRANCH  21  22
ENDBRANCH  18  21
ENDBRANCH  17  18
BRANCH  17  63
HETATM   63  O17 UNL     1      17.320   7.887  -4.259  1.00  0.00    -0.385 OA
HETATM   64  H38 UNL     1      16.605   7.244  -4.122  1.00  0.00     0.210 HD
ENDBRANCH  17  63
ENDBRANCH  14  17
ENDBRANCH  12  13
ENDBRANCH  11  12
ENDBRANCH   8  11
ENDBRANCH   6   7
ENDBRANCH   5   6
ENDBRANCH   4   5
ENDBRANCH   2   4
TORSDOF 27
ENDMDL
MODEL 12
REMARK VINA RESULT:      -5.5      4.074      7.004
REMARK  27 active torsions:
REMARK  status: ('A' for Active; 'I' for Inactive)
REMARK    1  A    between atoms: C2_2  and  S1_4 
REMARK    2  A    between atoms: S1_4  and  C3_5 
REMARK    3  A    between atoms: C3_5  and  C4_6 
REMARK    4  A    between atoms: C4_6  and  N1_7 
REMARK       I    between atoms: N1_7  and  C5_8 
REMARK    5  A    between atoms: C5_8  and  C6_10 
REMARK    6  A    between atoms: C6_10  and  C7_11 
REMARK    7  A    between atoms: C7_11  and  N2_12 
REMARK       I    between atoms: N2_12  and  C8_13 
REMARK    8  A    between atoms: C8_13  and  C9_15 
REMARK    9  A    between atoms: C9_15  and  C10_16 
REMARK   10  A    between atoms: C9_15  and  O17_54 
REMARK   11  A    between atoms: C10_16  and  C13_19 
REMARK   12  A    between atoms: C13_19  and  O4_20 
REMARK   13  A    between atoms: O4_20  and  P1_21 
REMARK   14  A    between atoms: P1_21  and  O6_23 
REMARK   15  A    between atoms: P1_21  and  O7_24 
REMARK   16  A    between atoms: O7_24  and  P2_25 
REMARK   17  A    between atoms: P2_25  and  O9_27 
REMARK   18  A    between atoms: P2_25  and  O10_28 
REMARK   19  A    between atoms: O10_28  and  C14_29 
REMARK   20  A    between atoms: C14_29  and  C15_30 
REMARK   21  A    between atoms: C16_31  and  O13_49 
REMARK   22  A    between atoms: C17_32  and  O12_48 
REMARK   23  A    between atoms: C18_33  and  N3_35 
REMARK   24  A    between atoms: C21_40  and  N7_47 
REMARK   25  A    between atoms: O13_49  and  P3_50 
REMARK   26  A    between atoms: P3_50  and  O15_52 
REMARK   27  A    between atoms: P3_50  and  O16_53 
ROOT
HETATM    1  C1  UNL     1       8.972   6.501  -3.814  1.00  0.00     0.104 C 
HETATM    2  C2  UNL     1      10.409   6.662  -4.205  1.00  0.00     0.182 C 
HETATM    3  O1  UNL     1      10.843   7.653  -4.786  1.00  0.00    -0.286 OA
ENDROOT
BRANCH   2   4
HETATM    4  S1  UNL     1      11.430   5.288  -3.797  1.00  0.00    -0.091 SA
BRANCH   4   5
HETATM    5  C3  UNL     1      12.308   5.957  -2.348  1.00  0.00     0.102 C 
BRANCH   5   6
HETATM    6  C4  UNL     1      13.609   6.659  -2.744  1.00  0.00     0.133 C 
BRANCH   6   7
HETATM    7  N1  UNL     1      14.527   6.802  -1.633  1.00  0.00    -0.360 N 
HETATM    8  C5  UNL     1      15.383   5.790  -1.265  1.00  0.00     0.219 C 
HETATM    9  O2  UNL     1      15.366   4.686  -1.797  1.00  0.00    -0.274 OA
HETATM   10  H8  UNL     1      14.540   7.675  -1.122  1.00  0.00     0.162 HD
BRANCH   8  11
HETATM   11  C6  UNL     1      16.296   6.164  -0.118  1.00  0.00     0.122 C 
BRANCH  11  12
HETATM   12  C7  UNL     1      17.202   7.344  -0.470  1.00  0.00     0.132 C 
BRANCH  12  13
HETATM   13  N2  UNL     1      17.084   8.447   0.460  1.00  0.00    -0.358 N 
HETATM   14  C8  UNL     1      18.035   8.631   1.447  1.00  0.00     0.247 C 
HETATM   15  O3  UNL     1      18.930   7.821   1.648  1.00  0.00    -0.271 OA
HETATM   16  H13 UNL     1      16.623   9.279   0.097  1.00  0.00     0.162 HD
BRANCH  14  17
HETATM   17  C9  UNL     1      17.888   9.934   2.248  1.00  0.00     0.219 C 
BRANCH  17  18
HETATM   18  C10 UNL     1      17.006   9.811   3.518  1.00  0.00     0.009 C 
HETATM   19  C11 UNL     1      15.858   8.808   3.331  1.00  0.00     0.020 C 
HETATM   20  C12 UNL     1      17.834   9.363   4.740  1.00  0.00     0.020 C 
BRANCH  18  21
HETATM   21  C13 UNL     1      16.423  11.231   3.772  1.00  0.00     0.192 C 
BRANCH  21  22
HETATM   22  O4  UNL     1      15.215  11.450   3.073  1.00  0.00    -0.296 OA
BRANCH  22  23
HETATM   23  P1  UNL     1      14.660  12.914   2.730  1.00  0.00     0.401 P 
HETATM   24  O5  UNL     1      15.526  14.029   3.228  1.00  0.00    -0.631 OA
BRANCH  23  25
HETATM   25  O6  UNL     1      13.145  12.977   3.273  1.00  0.00    -0.307 OA
HETATM   26  H23 UNL     1      12.964  13.800   3.744  1.00  0.00     0.222 HD
ENDBRANCH  23  25
BRANCH  23  27
HETATM   27  O7  UNL     1      14.425  12.907   1.157  1.00  0.00    -0.195 OA
BRANCH  27  28
HETATM   28  P2  UNL     1      15.575  12.344   0.209  1.00  0.00     0.401 P 
HETATM   29  O8  UNL     1      16.980  12.710   0.559  1.00  0.00    -0.631 OA
BRANCH  28  30
HETATM   30  O9  UNL     1      15.298  10.771   0.190  1.00  0.00    -0.307 OA
HETATM   31  H24 UNL     1      16.116  10.218   0.156  1.00  0.00     0.222 HD
ENDBRANCH  28  30
BRANCH  28  32
HETATM   32  O10 UNL     1      15.095  12.744  -1.260  1.00  0.00    -0.294 OA
BRANCH  32  33
HETATM   33  C14 UNL     1      13.940  13.524  -1.434  1.00  0.00     0.215 C 
BRANCH  33  34
HETATM   34  C15 UNL     1      13.098  12.809  -2.490  1.00  0.00     0.180 C 
HETATM   35  C16 UNL     1      12.229  11.749  -1.826  1.00  0.00     0.197 C 
HETATM   36  C17 UNL     1      12.695  10.438  -2.429  1.00  0.00     0.199 C 
HETATM   37  C18 UNL     1      13.269  10.886  -3.775  1.00  0.00     0.262 C 
HETATM   38  O11 UNL     1      13.890  12.160  -3.491  1.00  0.00    -0.353 OA
BRANCH  35  39
HETATM   39  O13 UNL     1      10.870  12.032  -2.141  1.00  0.00    -0.286 OA
BRANCH  39  40
HETATM   40  P3  UNL     1       9.903  12.249  -0.887  1.00  0.00     0.391 P 
HETATM   41  O14 UNL     1      10.603  12.751   0.335  1.00  0.00    -0.632 OA
BRANCH  40  42
HETATM   42  O15 UNL     1       9.198  10.815  -0.801  1.00  0.00    -0.307 OA
HETATM   43  H36 UNL     1       9.831  10.135  -0.468  1.00  0.00     0.222 HD
ENDBRANCH  40  42
BRANCH  40  44
HETATM   44  O16 UNL     1       8.770  13.171  -1.518  1.00  0.00    -0.307 OA
HETATM   45  H37 UNL     1       7.989  13.250  -0.948  1.00  0.00     0.222 HD
ENDBRANCH  40  44
ENDBRANCH  39  40
ENDBRANCH  35  39
BRANCH  36  46
HETATM   46  O12 UNL     1      11.621   9.494  -2.454  1.00  0.00    -0.388 OA
HETATM   47  H35 UNL     1      11.984   8.650  -2.096  1.00  0.00     0.210 HD
ENDBRANCH  36  46
BRANCH  37  48
HETATM   48  N3  UNL     1      14.278   9.978  -4.280  1.00  0.00    -0.297 N 
HETATM   49  C19 UNL     1      14.154   9.100  -5.332  1.00  0.00     0.188 A 
HETATM   50  N4  UNL     1      15.291   8.507  -5.623  1.00  0.00    -0.346 N 
HETATM   51  C20 UNL     1      16.198   9.029  -4.718  1.00  0.00     0.116 A 
HETATM   52  H4  UNL     1      15.466   7.816  -6.353  1.00  0.00     0.167 HD
HETATM   53  C21 UNL     1      17.578   8.835  -4.533  1.00  0.00     0.109 A 
HETATM   54  C23 UNL     1      15.575   9.912  -3.855  1.00  0.00     0.142 A 
HETATM   55  N5  UNL     1      18.198   9.500  -3.527  1.00  0.00    -0.341 N 
HETATM   56  C22 UNL     1      17.457  10.312  -2.747  1.00  0.00     0.183 A 
HETATM   57  H5  UNL     1      19.198   9.387  -3.364  1.00  0.00     0.167 HD
HETATM   58  N6  UNL     1      16.138  10.582  -2.834  1.00  0.00    -0.336 N 
HETATM   59  H6  UNL     1      15.634  11.211  -2.208  1.00  0.00     0.168 HD
BRANCH  53  60
HETATM   60  N7  UNL     1      18.342   7.990  -5.322  1.00  0.00    -0.287 NA
HETATM   61  H33 UNL     1      17.804   7.436  -5.985  1.00  0.00     0.125 HD
HETATM   62  H34 UNL     1      19.060   7.505  -4.800  1.00  0.00     0.125 HD
ENDBRANCH  53  60
ENDBRANCH  37  48
ENDBRANCH  33  34
ENDBRANCH  32  33
ENDBRANCH  28  32
ENDBRANCH  27  28
ENDBRANCH  23  27
ENDBRANCH  22  23
ENDBRANCH  21  22
ENDBRANCH  18  21
ENDBRANCH  17  18
BRANCH  17  63
HETATM   63  O17 UNL     1      19.177  10.422   2.635  1.00  0.00    -0.385 OA
HETATM   64  H38 UNL     1      19.282  11.317   2.270  1.00  0.00     0.210 HD
ENDBRANCH  17  63
ENDBRANCH  14  17
ENDBRANCH  12  13
ENDBRANCH  11  12
ENDBRANCH   8  11
ENDBRANCH   6   7
ENDBRANCH   5   6
ENDBRANCH   4   5
ENDBRANCH   2   4
TORSDOF 27
ENDMDL
MODEL 13
REMARK VINA RESULT:      -5.5      4.042      6.019
REMARK  27 active torsions:
REMARK  status: ('A' for Active; 'I' for Inactive)
REMARK    1  A    between atoms: C2_2  and  S1_4 
REMARK    2  A    between atoms: S1_4  and  C3_5 
REMARK    3  A    between atoms: C3_5  and  C4_6 
REMARK    4  A    between atoms: C4_6  and  N1_7 
REMARK       I    between atoms: N1_7  and  C5_8 
REMARK    5  A    between atoms: C5_8  and  C6_10 
REMARK    6  A    between atoms: C6_10  and  C7_11 
REMARK    7  A    between atoms: C7_11  and  N2_12 
REMARK       I    between atoms: N2_12  and  C8_13 
REMARK    8  A    between atoms: C8_13  and  C9_15 
REMARK    9  A    between atoms: C9_15  and  C10_16 
REMARK   10  A    between atoms: C9_15  and  O17_54 
REMARK   11  A    between atoms: C10_16  and  C13_19 
REMARK   12  A    between atoms: C13_19  and  O4_20 
REMARK   13  A    between atoms: O4_20  and  P1_21 
REMARK   14  A    between atoms: P1_21  and  O6_23 
REMARK   15  A    between atoms: P1_21  and  O7_24 
REMARK   16  A    between atoms: O7_24  and  P2_25 
REMARK   17  A    between atoms: P2_25  and  O9_27 
REMARK   18  A    between atoms: P2_25  and  O10_28 
REMARK   19  A    between atoms: O10_28  and  C14_29 
REMARK   20  A    between atoms: C14_29  and  C15_30 
REMARK   21  A    between atoms: C16_31  and  O13_49 
REMARK   22  A    between atoms: C17_32  and  O12_48 
REMARK   23  A    between atoms: C18_33  and  N3_35 
REMARK   24  A    between atoms: C21_40  and  N7_47 
REMARK   25  A    between atoms: O13_49  and  P3_50 
REMARK   26  A    between atoms: P3_50  and  O15_52 
REMARK   27  A    between atoms: P3_50  and  O16_53 
ROOT
HETATM    1  C1  UNL     1      12.986  14.027   2.211  1.00  0.00     0.104 C 
HETATM    2  C2  UNL     1      11.949  12.982   2.490  1.00  0.00     0.182 C 
HETATM    3  O1  UNL     1      11.560  12.176   1.649  1.00  0.00    -0.286 OA
ENDROOT
BRANCH   2   4
HETATM    4  S1  UNL     1      11.297  13.027   4.123  1.00  0.00    -0.091 SA
BRANCH   4   5
HETATM    5  C3  UNL     1      11.479  11.275   4.592  1.00  0.00     0.102 C 
BRANCH   5   6
HETATM    6  C4  UNL     1      10.210  10.726   5.246  1.00  0.00     0.133 C 
BRANCH   6   7
HETATM    7  N1  UNL     1      10.043  11.178   6.611  1.00  0.00    -0.360 N 
HETATM    8  C5  UNL     1       9.712  10.311   7.626  1.00  0.00     0.219 C 
HETATM    9  O2  UNL     1       9.460   9.128   7.428  1.00  0.00    -0.274 OA
HETATM   10  H8  UNL     1      10.183  12.158   6.820  1.00  0.00     0.162 HD
BRANCH   8  11
HETATM   11  C6  UNL     1       9.642  10.976   8.984  1.00  0.00     0.122 C 
BRANCH  11  12
HETATM   12  C7  UNL     1      10.944  11.696   9.335  1.00  0.00     0.132 C 
BRANCH  12  13
HETATM   13  N2  UNL     1      12.107  10.838   9.250  1.00  0.00    -0.358 N 
HETATM   14  C8  UNL     1      13.126  11.132   8.362  1.00  0.00     0.247 C 
HETATM   15  O3  UNL     1      13.037  12.039   7.545  1.00  0.00    -0.271 OA
HETATM   16  H13 UNL     1      12.363  10.361  10.112  1.00  0.00     0.162 HD
BRANCH  14  17
HETATM   17  C9  UNL     1      14.374  10.247   8.499  1.00  0.00     0.219 C 
BRANCH  17  18
HETATM   18  C10 UNL     1      14.421   9.046   7.517  1.00  0.00     0.009 C 
HETATM   19  C11 UNL     1      14.885   7.754   8.206  1.00  0.00     0.020 C 
HETATM   20  C12 UNL     1      13.040   8.779   6.885  1.00  0.00     0.020 C 
BRANCH  18  21
HETATM   21  C13 UNL     1      15.438   9.441   6.408  1.00  0.00     0.192 C 
BRANCH  21  22
HETATM   22  O4  UNL     1      14.853  10.242   5.401  1.00  0.00    -0.296 OA
BRANCH  22  23
HETATM   23  P1  UNL     1      15.599  11.501   4.746  1.00  0.00     0.401 P 
HETATM   24  O5  UNL     1      17.059  11.579   5.063  1.00  0.00    -0.631 OA
BRANCH  23  25
HETATM   25  O6  UNL     1      14.770  12.811   5.180  1.00  0.00    -0.307 OA
HETATM   26  H23 UNL     1      14.914  13.547   4.572  1.00  0.00     0.222 HD
ENDBRANCH  23  25
BRANCH  23  27
HETATM   27  O7  UNL     1      15.259  11.419   3.195  1.00  0.00    -0.195 OA
BRANCH  27  28
HETATM   28  P2  UNL     1      15.353  10.009   2.459  1.00  0.00     0.401 P 
HETATM   29  O8  UNL     1      16.414   9.069   2.931  1.00  0.00    -0.631 OA
BRANCH  28  30
HETATM   30  O9  UNL     1      13.869   9.431   2.583  1.00  0.00    -0.307 OA
HETATM   31  H24 UNL     1      13.411   9.307   1.716  1.00  0.00     0.222 HD
ENDBRANCH  28  30
BRANCH  28  32
HETATM   32  O10 UNL     1      15.393  10.384   0.908  1.00  0.00    -0.294 OA
BRANCH  32  33
HETATM   33  C14 UNL     1      14.196  10.567   0.198  1.00  0.00     0.215 C 
BRANCH  33  34
HETATM   34  C15 UNL     1      14.365   9.818  -1.123  1.00  0.00     0.180 C 
HETATM   35  C16 UNL     1      14.300  10.801  -2.285  1.00  0.00     0.197 C 
HETATM   36  C17 UNL     1      13.088  10.367  -3.088  1.00  0.00     0.199 C 
HETATM   37  C18 UNL     1      12.976   8.884  -2.729  1.00  0.00     0.262 C 
HETATM   38  O11 UNL     1      13.355   8.825  -1.336  1.00  0.00    -0.353 OA
BRANCH  35  39
HETATM   39  O13 UNL     1      15.508  10.683  -3.029  1.00  0.00    -0.286 OA
BRANCH  39  40
HETATM   40  P3  UNL     1      16.606  11.810  -2.744  1.00  0.00     0.391 P 
HETATM   41  O14 UNL     1      17.551  12.032  -3.880  1.00  0.00    -0.632 OA
BRANCH  40  42
HETATM   42  O15 UNL     1      17.219  11.287  -1.362  1.00  0.00    -0.307 OA
HETATM   43  H36 UNL     1      18.196  11.419  -1.342  1.00  0.00     0.222 HD
ENDBRANCH  40  42
BRANCH  40  44
HETATM   44  O16 UNL     1      15.694  13.032  -2.295  1.00  0.00    -0.307 OA
HETATM   45  H37 UNL     1      15.823  13.277  -1.365  1.00  0.00     0.222 HD
ENDBRANCH  40  44
ENDBRANCH  39  40
ENDBRANCH  35  39
BRANCH  36  46
HETATM   46  O12 UNL     1      13.265  10.698  -4.468  1.00  0.00    -0.388 OA
HETATM   47  H35 UNL     1      14.116  11.193  -4.529  1.00  0.00     0.210 HD
ENDBRANCH  36  46
BRANCH  37  48
HETATM   48  N3  UNL     1      11.625   8.378  -2.867  1.00  0.00    -0.297 N 
HETATM   49  C19 UNL     1      10.454   9.063  -2.641  1.00  0.00     0.188 A 
HETATM   50  N4  UNL     1       9.394   8.363  -2.978  1.00  0.00    -0.346 N 
HETATM   51  C20 UNL     1       9.902   7.166  -3.451  1.00  0.00     0.116 A 
HETATM   52  H4  UNL     1       8.415   8.639  -2.907  1.00  0.00     0.167 HD
HETATM   53  C21 UNL     1       9.295   6.022  -3.996  1.00  0.00     0.109 A 
HETATM   54  C23 UNL     1      11.281   7.147  -3.351  1.00  0.00     0.142 A 
HETATM   55  N5  UNL     1      10.082   4.982  -4.366  1.00  0.00    -0.341 N 
HETATM   56  C22 UNL     1      11.414   5.096  -4.188  1.00  0.00     0.183 A 
HETATM   57  H5  UNL     1       9.678   4.137  -4.769  1.00  0.00     0.167 HD
HETATM   58  N6  UNL     1      12.106   6.139  -3.687  1.00  0.00    -0.336 N 
HETATM   59  H6  UNL     1      13.120   6.161  -3.578  1.00  0.00     0.168 HD
BRANCH  53  60
HETATM   60  N7  UNL     1       7.925   5.894  -4.168  1.00  0.00    -0.287 NA
HETATM   61  H33 UNL     1       7.435   6.777  -4.295  1.00  0.00     0.125 HD
HETATM   62  H34 UNL     1       7.508   5.229  -3.531  1.00  0.00     0.125 HD
ENDBRANCH  53  60
ENDBRANCH  37  48
ENDBRANCH  33  34
ENDBRANCH  32  33
ENDBRANCH  28  32
ENDBRANCH  27  28
ENDBRANCH  23  27
ENDBRANCH  22  23
ENDBRANCH  21  22
ENDBRANCH  18  21
ENDBRANCH  17  18
BRANCH  17  63
HETATM   63  O17 UNL     1      15.557  11.032   8.314  1.00  0.00    -0.385 OA
HETATM   64  H38 UNL     1      15.568  11.726   8.994  1.00  0.00     0.210 HD
ENDBRANCH  17  63
ENDBRANCH  14  17
ENDBRANCH  12  13
ENDBRANCH  11  12
ENDBRANCH   8  11
ENDBRANCH   6   7
ENDBRANCH   5   6
ENDBRANCH   4   5
ENDBRANCH   2   4
TORSDOF 27
ENDMDL
MODEL 14
REMARK VINA RESULT:      -5.5      4.614      9.059
REMARK  27 active torsions:
REMARK  status: ('A' for Active; 'I' for Inactive)
REMARK    1  A    between atoms: C2_2  and  S1_4 
REMARK    2  A    between atoms: S1_4  and  C3_5 
REMARK    3  A    between atoms: C3_5  and  C4_6 
REMARK    4  A    between atoms: C4_6  and  N1_7 
REMARK       I    between atoms: N1_7  and  C5_8 
REMARK    5  A    between atoms: C5_8  and  C6_10 
REMARK    6  A    between atoms: C6_10  and  C7_11 
REMARK    7  A    between atoms: C7_11  and  N2_12 
REMARK       I    between atoms: N2_12  and  C8_13 
REMARK    8  A    between atoms: C8_13  and  C9_15 
REMARK    9  A    between atoms: C9_15  and  C10_16 
REMARK   10  A    between atoms: C9_15  and  O17_54 
REMARK   11  A    between atoms: C10_16  and  C13_19 
REMARK   12  A    between atoms: C13_19  and  O4_20 
REMARK   13  A    between atoms: O4_20  and  P1_21 
REMARK   14  A    between atoms: P1_21  and  O6_23 
REMARK   15  A    between atoms: P1_21  and  O7_24 
REMARK   16  A    between atoms: O7_24  and  P2_25 
REMARK   17  A    between atoms: P2_25  and  O9_27 
REMARK   18  A    between atoms: P2_25  and  O10_28 
REMARK   19  A    between atoms: O10_28  and  C14_29 
REMARK   20  A    between atoms: C14_29  and  C15_30 
REMARK   21  A    between atoms: C16_31  and  O13_49 
REMARK   22  A    between atoms: C17_32  and  O12_48 
REMARK   23  A    between atoms: C18_33  and  N3_35 
REMARK   24  A    between atoms: C21_40  and  N7_47 
REMARK   25  A    between atoms: O13_49  and  P3_50 
REMARK   26  A    between atoms: P3_50  and  O15_52 
REMARK   27  A    between atoms: P3_50  and  O16_53 
ROOT
HETATM    1  C1  UNL     1       6.064  11.429  -0.820  1.00  0.00     0.104 C 
HETATM    2  C2  UNL     1       7.512  11.348  -1.195  1.00  0.00     0.182 C 
HETATM    3  O1  UNL     1       8.178  12.325  -1.528  1.00  0.00    -0.286 OA
ENDROOT
BRANCH   2   4
HETATM    4  S1  UNL     1       8.180   9.722  -1.160  1.00  0.00    -0.091 SA
BRANCH   4   5
HETATM    5  C3  UNL     1       7.469   9.046  -2.695  1.00  0.00     0.102 C 
BRANCH   5   6
HETATM    6  C4  UNL     1       7.706   7.539  -2.818  1.00  0.00     0.133 C 
BRANCH   6   7
HETATM    7  N1  UNL     1       9.084   7.168  -2.573  1.00  0.00    -0.360 N 
HETATM    8  C5  UNL     1       9.829   6.492  -3.512  1.00  0.00     0.219 C 
HETATM    9  O2  UNL     1       9.355   6.095  -4.570  1.00  0.00    -0.274 OA
HETATM   10  H8  UNL     1       9.507   7.421  -1.690  1.00  0.00     0.162 HD
BRANCH   8  11
HETATM   11  C6  UNL     1      11.259   6.251  -3.081  1.00  0.00     0.122 C 
BRANCH  11  12
HETATM   12  C7  UNL     1      12.261   6.731  -4.130  1.00  0.00     0.132 C 
BRANCH  12  13
HETATM   13  N2  UNL     1      12.507   8.156  -4.070  1.00  0.00    -0.358 N 
HETATM   14  C8  UNL     1      13.472   8.662  -3.218  1.00  0.00     0.247 C 
HETATM   15  O3  UNL     1      14.062   7.956  -2.410  1.00  0.00    -0.271 OA
HETATM   16  H13 UNL     1      12.334   8.668  -4.933  1.00  0.00     0.162 HD
BRANCH  14  17
HETATM   17  C9  UNL     1      13.753  10.163  -3.381  1.00  0.00     0.219 C 
BRANCH  17  18
HETATM   18  C10 UNL     1      13.129  11.057  -2.278  1.00  0.00     0.009 C 
HETATM   19  C11 UNL     1      13.094  12.538  -2.685  1.00  0.00     0.020 C 
HETATM   20  C12 UNL     1      11.687  10.622  -1.945  1.00  0.00     0.020 C 
BRANCH  18  21
HETATM   21  C13 UNL     1      14.033  10.882  -1.024  1.00  0.00     0.192 C 
BRANCH  21  22
HETATM   22  O4  UNL     1      13.283  10.662   0.154  1.00  0.00    -0.296 OA
BRANCH  22  23
HETATM   23  P1  UNL     1      13.874  10.916   1.622  1.00  0.00     0.401 P 
HETATM   24  O5  UNL     1      15.208  11.593   1.636  1.00  0.00    -0.631 OA
BRANCH  23  25
HETATM   25  O6  UNL     1      13.858   9.497   2.383  1.00  0.00    -0.307 OA
HETATM   26  H23 UNL     1      13.772   9.600   3.339  1.00  0.00     0.222 HD
ENDBRANCH  23  25
BRANCH  23  27
HETATM   27  O7  UNL     1      12.725  11.695   2.399  1.00  0.00    -0.195 OA
BRANCH  27  28
HETATM   28  P2  UNL     1      13.073  12.403   3.783  1.00  0.00     0.401 P 
HETATM   29  O8  UNL     1      13.947  13.613   3.723  1.00  0.00    -0.631 OA
BRANCH  28  30
HETATM   30  O9  UNL     1      11.638  12.667   4.431  1.00  0.00    -0.307 OA
HETATM   31  H24 UNL     1      11.031  13.203   3.864  1.00  0.00     0.222 HD
ENDBRANCH  28  30
BRANCH  28  32
HETATM   32  O10 UNL     1      13.597  11.210   4.705  1.00  0.00    -0.294 OA
BRANCH  32  33
HETATM   33  C14 UNL     1      14.863  11.290   5.306  1.00  0.00     0.215 C 
BRANCH  33  34
HETATM   34  C15 UNL     1      14.619  11.643   6.772  1.00  0.00     0.180 C 
HETATM   35  C16 UNL     1      14.941  10.442   7.652  1.00  0.00     0.197 C 
HETATM   36  C17 UNL     1      13.626  10.093   8.322  1.00  0.00     0.199 C 
HETATM   37  C18 UNL     1      12.885  11.432   8.297  1.00  0.00     0.262 C 
HETATM   38  O11 UNL     1      13.264  12.026   7.036  1.00  0.00    -0.353 OA
BRANCH  35  39
HETATM   39  O13 UNL     1      15.934  10.838   8.592  1.00  0.00    -0.286 OA
BRANCH  39  40
HETATM   40  P3  UNL     1      17.240   9.917   8.644  1.00  0.00     0.391 P 
HETATM   41  O14 UNL     1      18.410  10.568   9.308  1.00  0.00    -0.632 OA
BRANCH  40  42
HETATM   42  O15 UNL     1      17.389   9.520   7.102  1.00  0.00    -0.307 OA
HETATM   43  H36 UNL     1      17.454  10.328   6.539  1.00  0.00     0.222 HD
ENDBRANCH  40  42
BRANCH  40  44
HETATM   44  O16 UNL     1      16.663   8.590   9.305  1.00  0.00    -0.307 OA
HETATM   45  H37 UNL     1      16.563   8.662  10.267  1.00  0.00     0.222 HD
ENDBRANCH  40  44
ENDBRANCH  39  40
ENDBRANCH  35  39
BRANCH  36  46
HETATM   46  O12 UNL     1      13.864   9.497   9.600  1.00  0.00    -0.388 OA
HETATM   47  H35 UNL     1      13.016   9.564  10.100  1.00  0.00     0.210 HD
ENDBRANCH  36  46
BRANCH  37  48
HETATM   48  N3  UNL     1      11.445  11.272   8.323  1.00  0.00    -0.297 N 
HETATM   49  C19 UNL     1      10.573  11.742   9.277  1.00  0.00     0.188 A 
HETATM   50  N4  UNL     1       9.316  11.541   8.946  1.00  0.00    -0.346 N 
HETATM   51  C20 UNL     1       9.376  10.913   7.715  1.00  0.00     0.116 A 
HETATM   52  H4  UNL     1       8.483  11.792   9.479  1.00  0.00     0.167 HD
HETATM   53  C21 UNL     1       8.385  10.476   6.819  1.00  0.00     0.109 A 
HETATM   54  C23 UNL     1      10.689  10.705   7.335  1.00  0.00     0.142 A 
HETATM   55  N5  UNL     1       8.770   9.872   5.669  1.00  0.00    -0.341 N 
HETATM   56  C22 UNL     1      10.089   9.715   5.441  1.00  0.00     0.183 A 
HETATM   57  H5  UNL     1       8.079   9.545   4.993  1.00  0.00     0.167 HD
HETATM   58  N6  UNL     1      11.124  10.098   6.216  1.00  0.00    -0.336 N 
HETATM   59  H6  UNL     1      12.107   9.948   5.985  1.00  0.00     0.168 HD
BRANCH  53  60
HETATM   60  N7  UNL     1       7.027  10.622   7.055  1.00  0.00    -0.287 NA
HETATM   61  H33 UNL     1       6.776  10.678   8.040  1.00  0.00     0.125 HD
HETATM   62  H34 UNL     1       6.458  10.020   6.474  1.00  0.00     0.125 HD
ENDBRANCH  53  60
ENDBRANCH  37  48
ENDBRANCH  33  34
ENDBRANCH  32  33
ENDBRANCH  28  32
ENDBRANCH  27  28
ENDBRANCH  23  27
ENDBRANCH  22  23
ENDBRANCH  21  22
ENDBRANCH  18  21
ENDBRANCH  17  18
BRANCH  17  63
HETATM   63  O17 UNL     1      15.165  10.399  -3.413  1.00  0.00    -0.385 OA
HETATM   64  H38 UNL     1      15.595   9.731  -2.854  1.00  0.00     0.210 HD
ENDBRANCH  17  63
ENDBRANCH  14  17
ENDBRANCH  12  13
ENDBRANCH  11  12
ENDBRANCH   8  11
ENDBRANCH   6   7
ENDBRANCH   5   6
ENDBRANCH   4   5
ENDBRANCH   2   4
TORSDOF 27
ENDMDL
MODEL 15
REMARK VINA RESULT:      -5.5      5.792     10.919
REMARK  27 active torsions:
REMARK  status: ('A' for Active; 'I' for Inactive)
REMARK    1  A    between atoms: C2_2  and  S1_4 
REMARK    2  A    between atoms: S1_4  and  C3_5 
REMARK    3  A    between atoms: C3_5  and  C4_6 
REMARK    4  A    between atoms: C4_6  and  N1_7 
REMARK       I    between atoms: N1_7  and  C5_8 
REMARK    5  A    between atoms: C5_8  and  C6_10 
REMARK    6  A    between atoms: C6_10  and  C7_11 
REMARK    7  A    between atoms: C7_11  and  N2_12 
REMARK       I    between atoms: N2_12  and  C8_13 
REMARK    8  A    between atoms: C8_13  and  C9_15 
REMARK    9  A    between atoms: C9_15  and  C10_16 
REMARK   10  A    between atoms: C9_15  and  O17_54 
REMARK   11  A    between atoms: C10_16  and  C13_19 
REMARK   12  A    between atoms: C13_19  and  O4_20 
REMARK   13  A    between atoms: O4_20  and  P1_21 
REMARK   14  A    between atoms: P1_21  and  O6_23 
REMARK   15  A    between atoms: P1_21  and  O7_24 
REMARK   16  A    between atoms: O7_24  and  P2_25 
REMARK   17  A    between atoms: P2_25  and  O9_27 
REMARK   18  A    between atoms: P2_25  and  O10_28 
REMARK   19  A    between atoms: O10_28  and  C14_29 
REMARK   20  A    between atoms: C14_29  and  C15_30 
REMARK   21  A    between atoms: C16_31  and  O13_49 
REMARK   22  A    between atoms: C17_32  and  O12_48 
REMARK   23  A    between atoms: C18_33  and  N3_35 
REMARK   24  A    between atoms: C21_40  and  N7_47 
REMARK   25  A    between atoms: O13_49  and  P3_50 
REMARK   26  A    between atoms: P3_50  and  O15_52 
REMARK   27  A    between atoms: P3_50  and  O16_53 
ROOT
HETATM    1  C1  UNL     1      14.176  10.241   1.551  1.00  0.00     0.104 C 
HETATM    2  C2  UNL     1      15.333  11.175   1.368  1.00  0.00     0.182 C 
HETATM    3  O1  UNL     1      15.290  12.367   1.661  1.00  0.00    -0.286 OA
ENDROOT
BRANCH   2   4
HETATM    4  S1  UNL     1      16.760  10.432   0.658  1.00  0.00    -0.091 SA
BRANCH   4   5
HETATM    5  C3  UNL     1      16.789   8.853   1.567  1.00  0.00     0.102 C 
BRANCH   5   6
HETATM    6  C4  UNL     1      16.849   7.652   0.620  1.00  0.00     0.133 C 
BRANCH   6   7
HETATM    7  N1  UNL     1      15.805   7.678  -0.384  1.00  0.00    -0.360 N 
HETATM    8  C5  UNL     1      16.074   7.454  -1.714  1.00  0.00     0.219 C 
HETATM    9  O2  UNL     1      17.213   7.301  -2.140  1.00  0.00    -0.274 OA
HETATM   10  H8  UNL     1      14.854   7.858  -0.092  1.00  0.00     0.162 HD
BRANCH   8  11
HETATM   11  C6  UNL     1      14.838   7.470  -2.586  1.00  0.00     0.122 C 
BRANCH  11  12
HETATM   12  C7  UNL     1      14.432   8.891  -2.976  1.00  0.00     0.132 C 
BRANCH  12  13
HETATM   13  N2  UNL     1      13.513   9.497  -2.036  1.00  0.00    -0.358 N 
HETATM   14  C8  UNL     1      12.635  10.480  -2.456  1.00  0.00     0.247 C 
HETATM   15  O3  UNL     1      12.678  10.954  -3.584  1.00  0.00    -0.271 OA
HETATM   16  H13 UNL     1      13.210   8.898  -1.272  1.00  0.00     0.162 HD
BRANCH  14  17
HETATM   17  C9  UNL     1      11.599  10.909  -1.406  1.00  0.00     0.219 C 
BRANCH  17  18
HETATM   18  C10 UNL     1      11.753  12.371  -0.910  1.00  0.00     0.009 C 
HETATM   19  C11 UNL     1      13.151  12.935  -1.201  1.00  0.00     0.020 C 
HETATM   20  C12 UNL     1      10.717  13.303  -1.569  1.00  0.00     0.020 C 
BRANCH  18  21
HETATM   21  C13 UNL     1      11.517  12.327   0.627  1.00  0.00     0.192 C 
BRANCH  21  22
HETATM   22  O4  UNL     1      11.934  13.515   1.269  1.00  0.00    -0.296 OA
BRANCH  22  23
HETATM   23  P1  UNL     1      11.946  13.684   2.864  1.00  0.00     0.401 P 
HETATM   24  O5  UNL     1      10.843  14.542   3.397  1.00  0.00    -0.631 OA
BRANCH  23  25
HETATM   25  O6  UNL     1      13.419  14.195   3.266  1.00  0.00    -0.307 OA
HETATM   26  H23 UNL     1      14.037  13.462   3.382  1.00  0.00     0.222 HD
ENDBRANCH  23  25
BRANCH  23  27
HETATM   27  O7  UNL     1      11.968  12.199   3.434  1.00  0.00    -0.195 OA
BRANCH  27  28
HETATM   28  P2  UNL     1      12.709  11.916   4.816  1.00  0.00     0.401 P 
HETATM   29  O8  UNL     1      14.193  11.758   4.768  1.00  0.00    -0.631 OA
BRANCH  28  30
HETATM   30  O9  UNL     1      12.211  13.111   5.751  1.00  0.00    -0.307 OA
HETATM   31  H24 UNL     1      12.298  14.006   5.341  1.00  0.00     0.222 HD
ENDBRANCH  28  30
BRANCH  28  32
HETATM   32  O10 UNL     1      11.897  10.693   5.446  1.00  0.00    -0.294 OA
BRANCH  32  33
HETATM   33  C14 UNL     1      10.526  10.825   5.715  1.00  0.00     0.215 C 
BRANCH  33  34
HETATM   34  C15 UNL     1      10.355  10.542   7.207  1.00  0.00     0.180 C 
HETATM   35  C16 UNL     1      10.032  11.836   7.943  1.00  0.00     0.197 C 
HETATM   36  C17 UNL     1      11.189  12.031   8.904  1.00  0.00     0.199 C 
HETATM   37  C18 UNL     1      11.688  10.598   9.104  1.00  0.00     0.262 C 
HETATM   38  O11 UNL     1      11.528   9.981   7.807  1.00  0.00    -0.353 OA
BRANCH  35  39
HETATM   39  O13 UNL     1       8.794  11.659   8.623  1.00  0.00    -0.286 OA
BRANCH  39  40
HETATM   40  P3  UNL     1       7.567  12.513   8.054  1.00  0.00     0.391 P 
HETATM   41  O14 UNL     1       7.975  13.803   7.418  1.00  0.00    -0.632 OA
BRANCH  40  42
HETATM   42  O15 UNL     1       6.631  12.590   9.349  1.00  0.00    -0.307 OA
HETATM   43  H36 UNL     1       6.571  11.709   9.789  1.00  0.00     0.222 HD
ENDBRANCH  40  42
BRANCH  40  44
HETATM   44  O16 UNL     1       6.833  11.440   7.139  1.00  0.00    -0.307 OA
HETATM   45  H37 UNL     1       5.946  11.215   7.461  1.00  0.00     0.222 HD
ENDBRANCH  40  44
ENDBRANCH  39  40
ENDBRANCH  35  39
BRANCH  36  46
HETATM   46  O12 UNL     1      10.755  12.743  10.066  1.00  0.00    -0.388 OA
HETATM   47  H35 UNL     1      10.711  12.081  10.797  1.00  0.00     0.210 HD
ENDBRANCH  36  46
BRANCH  37  48
HETATM   48  N3  UNL     1      13.087  10.542   9.477  1.00  0.00    -0.297 N 
HETATM   49  C19 UNL     1      13.631  10.824  10.708  1.00  0.00     0.188 A 
HETATM   50  N4  UNL     1      14.918  10.557  10.758  1.00  0.00    -0.346 N 
HETATM   51  C20 UNL     1      15.222  10.072   9.498  1.00  0.00     0.116 A 
HETATM   52  H4  UNL     1      15.550  10.678  11.549  1.00  0.00     0.167 HD
HETATM   53  C21 UNL     1      16.409   9.578   8.929  1.00  0.00     0.109 A 
HETATM   54  C23 UNL     1      14.106  10.095   8.683  1.00  0.00     0.142 A 
HETATM   55  N5  UNL     1      16.390   9.178   7.634  1.00  0.00    -0.341 N 
HETATM   56  C22 UNL     1      15.231   9.280   6.952  1.00  0.00     0.183 A 
HETATM   57  H5  UNL     1      17.230   8.810   7.188  1.00  0.00     0.167 HD
HETATM   58  N6  UNL     1      14.037   9.727   7.391  1.00  0.00    -0.336 N 
HETATM   59  H6  UNL     1      13.193   9.779   6.820  1.00  0.00     0.168 HD
BRANCH  53  60
HETATM   60  N7  UNL     1      17.605   9.485   9.622  1.00  0.00    -0.287 NA
HETATM   61  H33 UNL     1      18.246   8.782   9.259  1.00  0.00     0.125 HD
HETATM   62  H34 UNL     1      17.484   9.515  10.625  1.00  0.00     0.125 HD
ENDBRANCH  53  60
ENDBRANCH  37  48
ENDBRANCH  33  34
ENDBRANCH  32  33
ENDBRANCH  28  32
ENDBRANCH  27  28
ENDBRANCH  23  27
ENDBRANCH  22  23
ENDBRANCH  21  22
ENDBRANCH  18  21
ENDBRANCH  17  18
BRANCH  17  63
HETATM   63  O17 UNL     1      10.274  10.742  -1.924  1.00  0.00    -0.385 OA
HETATM   64  H38 UNL     1      10.318  10.813  -2.892  1.00  0.00     0.210 HD
ENDBRANCH  17  63
ENDBRANCH  14  17
ENDBRANCH  12  13
ENDBRANCH  11  12
ENDBRANCH   8  11
ENDBRANCH   6   7
ENDBRANCH   5   6
ENDBRANCH   4   5
ENDBRANCH   2   4
TORSDOF 27
ENDMDL
MODEL 16
REMARK VINA RESULT:      -5.2      5.952     10.379
REMARK  27 active torsions:
REMARK  status: ('A' for Active; 'I' for Inactive)
REMARK    1  A    between atoms: C2_2  and  S1_4 
REMARK    2  A    between atoms: S1_4  and  C3_5 
REMARK    3  A    between atoms: C3_5  and  C4_6 
REMARK    4  A    between atoms: C4_6  and  N1_7 
REMARK       I    between atoms: N1_7  and  C5_8 
REMARK    5  A    between atoms: C5_8  and  C6_10 
REMARK    6  A    between atoms: C6_10  and  C7_11 
REMARK    7  A    between atoms: C7_11  and  N2_12 
REMARK       I    between atoms: N2_12  and  C8_13 
REMARK    8  A    between atoms: C8_13  and  C9_15 
REMARK    9  A    between atoms: C9_15  and  C10_16 
REMARK   10  A    between atoms: C9_15  and  O17_54 
REMARK   11  A    between atoms: C10_16  and  C13_19 
REMARK   12  A    between atoms: C13_19  and  O4_20 
REMARK   13  A    between atoms: O4_20  and  P1_21 
REMARK   14  A    between atoms: P1_21  and  O6_23 
REMARK   15  A    between atoms: P1_21  and  O7_24 
REMARK   16  A    between atoms: O7_24  and  P2_25 
REMARK   17  A    between atoms: P2_25  and  O9_27 
REMARK   18  A    between atoms: P2_25  and  O10_28 
REMARK   19  A    between atoms: O10_28  and  C14_29 
REMARK   20  A    between atoms: C14_29  and  C15_30 
REMARK   21  A    between atoms: C16_31  and  O13_49 
REMARK   22  A    between atoms: C17_32  and  O12_48 
REMARK   23  A    between atoms: C18_33  and  N3_35 
REMARK   24  A    between atoms: C21_40  and  N7_47 
REMARK   25  A    between atoms: O13_49  and  P3_50 
REMARK   26  A    between atoms: P3_50  and  O15_52 
REMARK   27  A    between atoms: P3_50  and  O16_53 
ROOT
HETATM    1  C1  UNL     1      16.221  14.236  -1.571  1.00  0.00     0.104 C 
HETATM    2  C2  UNL     1      15.099  13.247  -1.476  1.00  0.00     0.182 C 
HETATM    3  O1  UNL     1      14.038  13.484  -0.905  1.00  0.00    -0.286 OA
ENDROOT
BRANCH   2   4
HETATM    4  S1  UNL     1      15.441  11.690  -2.218  1.00  0.00    -0.091 SA
BRANCH   4   5
HETATM    5  C3  UNL     1      13.945  10.767  -1.736  1.00  0.00     0.102 C 
BRANCH   5   6
HETATM    6  C4  UNL     1      14.253   9.298  -1.440  1.00  0.00     0.133 C 
BRANCH   6   7
HETATM    7  N1  UNL     1      14.895   9.108  -0.155  1.00  0.00    -0.360 N 
HETATM    8  C5  UNL     1      16.152   8.562  -0.048  1.00  0.00     0.219 C 
HETATM    9  O2  UNL     1      16.770   8.131  -1.015  1.00  0.00    -0.274 OA
HETATM   10  H8  UNL     1      14.403   9.394   0.681  1.00  0.00     0.162 HD
BRANCH   8  11
HETATM   11  C6  UNL     1      16.660   8.503   1.377  1.00  0.00     0.122 C 
BRANCH  11  12
HETATM   12  C7  UNL     1      17.802   9.490   1.617  1.00  0.00     0.132 C 
BRANCH  12  13
HETATM   13  N2  UNL     1      18.396   9.362   2.931  1.00  0.00    -0.358 N 
HETATM   14  C8  UNL     1      18.071  10.257   3.933  1.00  0.00     0.247 C 
HETATM   15  O3  UNL     1      17.376  11.244   3.725  1.00  0.00    -0.271 OA
HETATM   16  H13 UNL     1      18.635   8.414   3.213  1.00  0.00     0.162 HD
BRANCH  14  17
HETATM   17  C9  UNL     1      18.631   9.904   5.319  1.00  0.00     0.219 C 
BRANCH  17  18
HETATM   18  C10 UNL     1      17.599   9.265   6.286  1.00  0.00     0.009 C 
HETATM   19  C11 UNL     1      16.347   8.767   5.548  1.00  0.00     0.020 C 
HETATM   20  C12 UNL     1      18.206   8.072   7.051  1.00  0.00     0.020 C 
BRANCH  18  21
HETATM   21  C13 UNL     1      17.203  10.386   7.289  1.00  0.00     0.192 C 
BRANCH  21  22
HETATM   22  O4  UNL     1      15.821  10.379   7.586  1.00  0.00    -0.296 OA
BRANCH  22  23
HETATM   23  P1  UNL     1      15.234   9.862   8.986  1.00  0.00     0.401 P 
HETATM   24  O5  UNL     1      15.950  10.399  10.185  1.00  0.00    -0.631 OA
BRANCH  23  25
HETATM   25  O6  UNL     1      15.204   8.255   8.913  1.00  0.00    -0.307 OA
HETATM   26  H23 UNL     1      14.456   7.884   9.399  1.00  0.00     0.222 HD
ENDBRANCH  23  25
BRANCH  23  27
HETATM   27  O7  UNL     1      13.681  10.203   8.931  1.00  0.00    -0.195 OA
BRANCH  27  28
HETATM   28  P2  UNL     1      12.963  10.736  10.249  1.00  0.00     0.401 P 
HETATM   29  O8  UNL     1      13.122   9.913  11.486  1.00  0.00    -0.631 OA
BRANCH  28  30
HETATM   30  O9  UNL     1      13.508  12.230  10.386  1.00  0.00    -0.307 OA
HETATM   31  H24 UNL     1      13.641  12.527  11.320  1.00  0.00     0.222 HD
ENDBRANCH  28  30
BRANCH  28  32
HETATM   32  O10 UNL     1      11.460  11.013   9.785  1.00  0.00    -0.294 OA
BRANCH  32  33
HETATM   33  C14 UNL     1      11.122  12.241   9.196  1.00  0.00     0.215 C 
BRANCH  33  34
HETATM   34  C15 UNL     1      10.391  11.905   7.897  1.00  0.00     0.180 C 
HETATM   35  C16 UNL     1      10.040  10.424   7.872  1.00  0.00     0.197 C 
HETATM   36  C17 UNL     1      10.798   9.870   6.680  1.00  0.00     0.199 C 
HETATM   37  C18 UNL     1      10.957  11.108   5.795  1.00  0.00     0.262 C 
HETATM   38  O11 UNL     1      11.169  12.189   6.729  1.00  0.00    -0.353 OA
BRANCH  35  39
HETATM   39  O13 UNL     1       8.630  10.307   7.714  1.00  0.00    -0.286 OA
BRANCH  39  40
HETATM   40  P3  UNL     1       7.889   9.387   8.790  1.00  0.00     0.391 P 
HETATM   41  O14 UNL     1       6.552   9.906   9.210  1.00  0.00    -0.632 OA
BRANCH  40  42
HETATM   42  O15 UNL     1       9.023   9.268   9.913  1.00  0.00    -0.307 OA
HETATM   43  H36 UNL     1       9.247   8.322  10.084  1.00  0.00     0.222 HD
ENDBRANCH  40  42
BRANCH  40  44
HETATM   44  O16 UNL     1       7.937   7.966   8.077  1.00  0.00    -0.307 OA
HETATM   45  H37 UNL     1       7.087   7.499   8.112  1.00  0.00     0.222 HD
ENDBRANCH  40  44
ENDBRANCH  39  40
ENDBRANCH  35  39
BRANCH  36  46
HETATM   46  O12 UNL     1      10.100   8.751   6.126  1.00  0.00    -0.388 OA
HETATM   47  H35 UNL     1       9.164   9.040   6.005  1.00  0.00     0.210 HD
ENDBRANCH  36  46
BRANCH  37  48
HETATM   48  N3  UNL     1      12.105  11.019   4.915  1.00  0.00    -0.297 N 
HETATM   49  C19 UNL     1      12.874   9.907   4.662  1.00  0.00     0.188 A 
HETATM   50  N4  UNL     1      13.765  10.122   3.719  1.00  0.00    -0.346 N 
HETATM   51  C20 UNL     1      13.561  11.436   3.338  1.00  0.00     0.116 A 
HETATM   52  H4  UNL     1      14.454   9.466   3.350  1.00  0.00     0.167 HD
HETATM   53  C21 UNL     1      14.155  12.247   2.356  1.00  0.00     0.109 A 
HETATM   54  C23 UNL     1      12.561  12.016   4.098  1.00  0.00     0.142 A 
HETATM   55  N5  UNL     1      13.733  13.529   2.230  1.00  0.00    -0.341 N 
HETATM   56  C22 UNL     1      12.764  13.966   3.058  1.00  0.00     0.183 A 
HETATM   57  H5  UNL     1      14.138  14.147   1.526  1.00  0.00     0.167 HD
HETATM   58  N6  UNL     1      12.117  13.283   4.025  1.00  0.00    -0.336 N 
HETATM   59  H6  UNL     1      11.388  13.675   4.621  1.00  0.00     0.168 HD
BRANCH  53  60
HETATM   60  N7  UNL     1      15.162  11.807   1.511  1.00  0.00    -0.287 NA
HETATM   61  H33 UNL     1      16.085  12.174   1.734  1.00  0.00     0.125 HD
HETATM   62  H34 UNL     1      14.892  11.815   0.537  1.00  0.00     0.125 HD
ENDBRANCH  53  60
ENDBRANCH  37  48
ENDBRANCH  33  34
ENDBRANCH  32  33
ENDBRANCH  28  32
ENDBRANCH  27  28
ENDBRANCH  23  27
ENDBRANCH  22  23
ENDBRANCH  21  22
ENDBRANCH  18  21
ENDBRANCH  17  18
BRANCH  17  63
HETATM   63  O17 UNL     1      19.744   9.013   5.189  1.00  0.00    -0.385 OA
HETATM   64  H38 UNL     1      20.543   9.484   5.476  1.00  0.00     0.210 HD
ENDBRANCH  17  63
ENDBRANCH  14  17
ENDBRANCH  12  13
ENDBRANCH  11  12
ENDBRANCH   8  11
ENDBRANCH   6   7
ENDBRANCH   5   6
ENDBRANCH   4   5
ENDBRANCH   2   4
TORSDOF 27
ENDMDL
MODEL 17
REMARK VINA RESULT:      -5.2      5.856     11.017
REMARK  27 active torsions:
REMARK  status: ('A' for Active; 'I' for Inactive)
REMARK    1  A    between atoms: C2_2  and  S1_4 
REMARK    2  A    between atoms: S1_4  and  C3_5 
REMARK    3  A    between atoms: C3_5  and  C4_6 
REMARK    4  A    between atoms: C4_6  and  N1_7 
REMARK       I    between atoms: N1_7  and  C5_8 
REMARK    5  A    between atoms: C5_8  and  C6_10 
REMARK    6  A    between atoms: C6_10  and  C7_11 
REMARK    7  A    between atoms: C7_11  and  N2_12 
REMARK       I    between atoms: N2_12  and  C8_13 
REMARK    8  A    between atoms: C8_13  and  C9_15 
REMARK    9  A    between atoms: C9_15  and  C10_16 
REMARK   10  A    between atoms: C9_15  and  O17_54 
REMARK   11  A    between atoms: C10_16  and  C13_19 
REMARK   12  A    between atoms: C13_19  and  O4_20 
REMARK   13  A    between atoms: O4_20  and  P1_21 
REMARK   14  A    between atoms: P1_21  and  O6_23 
REMARK   15  A    between atoms: P1_21  and  O7_24 
REMARK   16  A    between atoms: O7_24  and  P2_25 
REMARK   17  A    between atoms: P2_25  and  O9_27 
REMARK   18  A    between atoms: P2_25  and  O10_28 
REMARK   19  A    between atoms: O10_28  and  C14_29 
REMARK   20  A    between atoms: C14_29  and  C15_30 
REMARK   21  A    between atoms: C16_31  and  O13_49 
REMARK   22  A    between atoms: C17_32  and  O12_48 
REMARK   23  A    between atoms: C18_33  and  N3_35 
REMARK   24  A    between atoms: C21_40  and  N7_47 
REMARK   25  A    between atoms: O13_49  and  P3_50 
REMARK   26  A    between atoms: P3_50  and  O15_52 
REMARK   27  A    between atoms: P3_50  and  O16_53 
ROOT
HETATM    1  C1  UNL     1      11.219   4.590  -4.199  1.00  0.00     0.104 C 
HETATM    2  C2  UNL     1      10.322   5.376  -3.292  1.00  0.00     0.182 C 
HETATM    3  O1  UNL     1       9.770   4.893  -2.306  1.00  0.00    -0.286 OA
ENDROOT
BRANCH   2   4
HETATM    4  S1  UNL     1      10.088   7.050  -3.777  1.00  0.00    -0.091 SA
BRANCH   4   5
HETATM    5  C3  UNL     1      11.754   7.443  -4.400  1.00  0.00     0.102 C 
BRANCH   5   6
HETATM    6  C4  UNL     1      12.696   7.876  -3.275  1.00  0.00     0.133 C 
BRANCH   6   7
HETATM    7  N1  UNL     1      13.460   9.060  -3.611  1.00  0.00    -0.360 N 
HETATM    8  C5  UNL     1      13.042  10.319  -3.246  1.00  0.00     0.219 C 
HETATM    9  O2  UNL     1      11.969  10.523  -2.692  1.00  0.00    -0.274 OA
HETATM   10  H8  UNL     1      14.327   8.952  -4.121  1.00  0.00     0.162 HD
BRANCH   8  11
HETATM   11  C6  UNL     1      14.011  11.411  -3.645  1.00  0.00     0.122 C 
BRANCH  11  12
HETATM   12  C7  UNL     1      14.951  11.786  -2.500  1.00  0.00     0.132 C 
BRANCH  12  13
HETATM   13  N2  UNL     1      14.270  11.929  -1.230  1.00  0.00    -0.358 N 
HETATM   14  C8  UNL     1      13.527  13.063  -0.962  1.00  0.00     0.247 C 
HETATM   15  O3  UNL     1      13.510  14.026  -1.719  1.00  0.00    -0.271 OA
HETATM   16  H13 UNL     1      13.967  11.060  -0.796  1.00  0.00     0.162 HD
BRANCH  14  17
HETATM   17  C9  UNL     1      12.716  13.009   0.341  1.00  0.00     0.219 C 
BRANCH  17  18
HETATM   18  C10 UNL     1      13.129  14.064   1.400  1.00  0.00     0.009 C 
HETATM   19  C11 UNL     1      14.638  14.351   1.373  1.00  0.00     0.020 C 
HETATM   20  C12 UNL     1      12.388  15.400   1.187  1.00  0.00     0.020 C 
BRANCH  18  21
HETATM   21  C13 UNL     1      12.737  13.461   2.780  1.00  0.00     0.192 C 
BRANCH  21  22
HETATM   22  O4  UNL     1      12.558  12.060   2.723  1.00  0.00    -0.296 OA
BRANCH  22  23
HETATM   23  P1  UNL     1      13.528  11.028   3.474  1.00  0.00     0.401 P 
HETATM   24  O5  UNL     1      14.785  11.643   4.003  1.00  0.00    -0.631 OA
BRANCH  23  25
HETATM   25  O6  UNL     1      13.781   9.805   2.458  1.00  0.00    -0.307 OA
HETATM   26  H23 UNL     1      14.031   8.995   2.921  1.00  0.00     0.222 HD
ENDBRANCH  23  25
BRANCH  23  27
HETATM   27  O7  UNL     1      12.614  10.331   4.574  1.00  0.00    -0.195 OA
BRANCH  27  28
HETATM   28  P2  UNL     1      12.800  10.741   6.102  1.00  0.00     0.401 P 
HETATM   29  O8  UNL     1      13.903  10.068   6.853  1.00  0.00    -0.631 OA
BRANCH  28  30
HETATM   30  O9  UNL     1      12.929  12.331   6.042  1.00  0.00    -0.307 OA
HETATM   31  H24 UNL     1      13.603  12.657   5.397  1.00  0.00     0.222 HD
ENDBRANCH  28  30
BRANCH  28  32
HETATM   32  O10 UNL     1      11.338  10.587   6.724  1.00  0.00    -0.294 OA
BRANCH  32  33
HETATM   33  C14 UNL     1      11.153   9.872   7.917  1.00  0.00     0.215 C 
BRANCH  33  34
HETATM   34  C15 UNL     1      10.492  10.839   8.897  1.00  0.00     0.180 C 
HETATM   35  C16 UNL     1       9.862  11.996   8.133  1.00  0.00     0.197 C 
HETATM   36  C17 UNL     1      10.601  13.228   8.621  1.00  0.00     0.199 C 
HETATM   37  C18 UNL     1      11.080  12.789  10.007  1.00  0.00     0.262 C 
HETATM   38  O11 UNL     1      11.414  11.393   9.844  1.00  0.00    -0.353 OA
BRANCH  35  39
HETATM   39  O13 UNL     1       8.477  12.037   8.460  1.00  0.00    -0.286 OA
BRANCH  39  40
HETATM   40  P3  UNL     1       7.474  11.782   7.241  1.00  0.00     0.391 P 
HETATM   41  O14 UNL     1       6.462  12.866   7.056  1.00  0.00    -0.632 OA
BRANCH  40  42
HETATM   42  O15 UNL     1       6.935  10.319   7.600  1.00  0.00    -0.307 OA
HETATM   43  H36 UNL     1       7.422   9.632   7.085  1.00  0.00     0.222 HD
ENDBRANCH  40  42
BRANCH  40  44
HETATM   44  O16 UNL     1       8.490  11.511   6.048  1.00  0.00    -0.307 OA
HETATM   45  H37 UNL     1       8.779  10.586   6.004  1.00  0.00     0.222 HD
ENDBRANCH  40  44
ENDBRANCH  39  40
ENDBRANCH  35  39
BRANCH  36  46
HETATM   46  O12 UNL     1       9.752  14.376   8.553  1.00  0.00    -0.388 OA
HETATM   47  H35 UNL     1      10.230  15.104   9.018  1.00  0.00     0.210 HD
ENDBRANCH  36  46
BRANCH  37  48
HETATM   48  N3  UNL     1      12.264  13.504  10.440  1.00  0.00    -0.297 N 
HETATM   49  C19 UNL     1      12.333  14.503  11.383  1.00  0.00     0.188 A 
HETATM   50  N4  UNL     1      13.573  14.860  11.640  1.00  0.00    -0.346 N 
HETATM   51  C20 UNL     1      14.345  14.049  10.828  1.00  0.00     0.116 A 
HETATM   52  H4  UNL     1      13.893  15.574  12.293  1.00  0.00     0.167 HD
HETATM   53  C21 UNL     1      15.734  13.909  10.665  1.00  0.00     0.109 A 
HETATM   54  C23 UNL     1      13.545  13.232  10.050  1.00  0.00     0.142 A 
HETATM   55  N5  UNL     1      16.195  13.012   9.760  1.00  0.00    -0.341 N 
HETATM   56  C22 UNL     1      15.295  12.299   9.054  1.00  0.00     0.183 A 
HETATM   57  H5  UNL     1      17.196  12.880   9.617  1.00  0.00     0.167 HD
HETATM   58  N6  UNL     1      13.949  12.340   9.128  1.00  0.00    -0.336 N 
HETATM   59  H6  UNL     1      13.321  11.770   8.562  1.00  0.00     0.168 HD
BRANCH  53  60
HETATM   60  N7  UNL     1      16.663  14.650  11.378  1.00  0.00    -0.287 NA
HETATM   61  H33 UNL     1      17.585  14.222  11.437  1.00  0.00     0.125 HD
HETATM   62  H34 UNL     1      16.286  15.040  12.232  1.00  0.00     0.125 HD
ENDBRANCH  53  60
ENDBRANCH  37  48
ENDBRANCH  33  34
ENDBRANCH  32  33
ENDBRANCH  28  32
ENDBRANCH  27  28
ENDBRANCH  23  27
ENDBRANCH  22  23
ENDBRANCH  21  22
ENDBRANCH  18  21
ENDBRANCH  17  18
BRANCH  17  63
HETATM   63  O17 UNL     1      11.321  13.169   0.061  1.00  0.00    -0.385 OA
HETATM   64  H38 UNL     1      10.900  12.295   0.114  1.00  0.00     0.210 HD
ENDBRANCH  17  63
ENDBRANCH  14  17
ENDBRANCH  12  13
ENDBRANCH  11  12
ENDBRANCH   8  11
ENDBRANCH   6   7
ENDBRANCH   5   6
ENDBRANCH   4   5
ENDBRANCH   2   4
TORSDOF 27
ENDMDL
MODEL 18
REMARK VINA RESULT:      -5.0     18.787     21.354
REMARK  27 active torsions:
REMARK  status: ('A' for Active; 'I' for Inactive)
REMARK    1  A    between atoms: C2_2  and  S1_4 
REMARK    2  A    between atoms: S1_4  and  C3_5 
REMARK    3  A    between atoms: C3_5  and  C4_6 
REMARK    4  A    between atoms: C4_6  and  N1_7 
REMARK       I    between atoms: N1_7  and  C5_8 
REMARK    5  A    between atoms: C5_8  and  C6_10 
REMARK    6  A    between atoms: C6_10  and  C7_11 
REMARK    7  A    between atoms: C7_11  and  N2_12 
REMARK       I    between atoms: N2_12  and  C8_13 
REMARK    8  A    between atoms: C8_13  and  C9_15 
REMARK    9  A    between atoms: C9_15  and  C10_16 
REMARK   10  A    between atoms: C9_15  and  O17_54 
REMARK   11  A    between atoms: C10_16  and  C13_19 
REMARK   12  A    between atoms: C13_19  and  O4_20 
REMARK   13  A    between atoms: O4_20  and  P1_21 
REMARK   14  A    between atoms: P1_21  and  O6_23 
REMARK   15  A    between atoms: P1_21  and  O7_24 
REMARK   16  A    between atoms: O7_24  and  P2_25 
REMARK   17  A    between atoms: P2_25  and  O9_27 
REMARK   18  A    between atoms: P2_25  and  O10_28 
REMARK   19  A    between atoms: O10_28  and  C14_29 
REMARK   20  A    between atoms: C14_29  and  C15_30 
REMARK   21  A    between atoms: C16_31  and  O13_49 
REMARK   22  A    between atoms: C17_32  and  O12_48 
REMARK   23  A    between atoms: C18_33  and  N3_35 
REMARK   24  A    between atoms: C21_40  and  N7_47 
REMARK   25  A    between atoms: O13_49  and  P3_50 
REMARK   26  A    between atoms: P3_50  and  O15_52 
REMARK   27  A    between atoms: P3_50  and  O16_53 
ROOT
HETATM    1  C1  UNL     1      11.976 -10.365 -11.250  1.00  0.00     0.104 C 
HETATM    2  C2  UNL     1      11.741 -11.189 -10.021  1.00  0.00     0.182 C 
HETATM    3  O1  UNL     1      11.601 -10.705  -8.901  1.00  0.00    -0.286 OA
ENDROOT
BRANCH   2   4
HETATM    4  S1  UNL     1      11.720 -12.924 -10.305  1.00  0.00    -0.091 SA
BRANCH   4   5
HETATM    5  C3  UNL     1      13.160 -13.432  -9.311  1.00  0.00     0.102 C 
BRANCH   5   6
HETATM    6  C4  UNL     1      14.376 -12.540  -9.572  1.00  0.00     0.133 C 
BRANCH   6   7
HETATM    7  N1  UNL     1      15.389 -12.660  -8.544  1.00  0.00    -0.360 N 
HETATM    8  C5  UNL     1      15.268 -12.023  -7.330  1.00  0.00     0.219 C 
HETATM    9  O2  UNL     1      14.345 -11.258  -7.076  1.00  0.00    -0.274 OA
HETATM   10  H8  UNL     1      16.201 -13.234  -8.726  1.00  0.00     0.162 HD
BRANCH   8  11
HETATM   11  C6  UNL     1      16.406 -12.325  -6.380  1.00  0.00     0.122 C 
BRANCH  11  12
HETATM   12  C7  UNL     1      17.769 -12.152  -7.048  1.00  0.00     0.132 C 
BRANCH  12  13
HETATM   13  N2  UNL     1      18.257 -10.790  -6.998  1.00  0.00    -0.358 N 
HETATM   14  C8  UNL     1      17.972  -9.909  -8.025  1.00  0.00     0.247 C 
HETATM   15  O3  UNL     1      17.410 -10.266  -9.053  1.00  0.00    -0.271 OA
HETATM   16  H13 UNL     1      18.366 -10.398  -6.065  1.00  0.00     0.162 HD
BRANCH  14  17
HETATM   17  C9  UNL     1      18.395  -8.456  -7.764  1.00  0.00     0.219 C 
BRANCH  17  18
HETATM   18  C10 UNL     1      19.280  -7.834  -8.876  1.00  0.00     0.009 C 
HETATM   19  C11 UNL     1      20.639  -7.364  -8.339  1.00  0.00     0.020 C 
HETATM   20  C12 UNL     1      19.542  -8.838 -10.017  1.00  0.00     0.020 C 
BRANCH  18  21
HETATM   21  C13 UNL     1      18.484  -6.615  -9.423  1.00  0.00     0.192 C 
BRANCH  21  22
HETATM   22  O4  UNL     1      17.743  -6.932 -10.584  1.00  0.00    -0.296 OA
BRANCH  22  23
HETATM   23  P1  UNL     1      17.969  -6.195 -11.990  1.00  0.00     0.401 P 
HETATM   24  O5  UNL     1      18.231  -7.125 -13.133  1.00  0.00    -0.631 OA
BRANCH  23  25
HETATM   25  O6  UNL     1      19.130  -5.104 -11.762  1.00  0.00    -0.307 OA
HETATM   26  H23 UNL     1      19.157  -4.790 -10.848  1.00  0.00     0.222 HD
ENDBRANCH  23  25
BRANCH  23  27
HETATM   27  O7  UNL     1      16.696  -5.259 -12.173  1.00  0.00    -0.195 OA
BRANCH  27  28
HETATM   28  P2  UNL     1      16.897  -3.794 -12.765  1.00  0.00     0.401 P 
HETATM   29  O8  UNL     1      17.117  -2.691 -11.781  1.00  0.00    -0.631 OA
BRANCH  28  30
HETATM   30  O9  UNL     1      18.088  -3.981 -13.811  1.00  0.00    -0.307 OA
HETATM   31  H24 UNL     1      17.924  -3.557 -14.689  1.00  0.00     0.222 HD
ENDBRANCH  28  30
BRANCH  28  32
HETATM   32  O10 UNL     1      15.660  -3.606 -13.758  1.00  0.00    -0.294 OA
BRANCH  32  33
HETATM   33  C14 UNL     1      15.871  -3.582 -15.145  1.00  0.00     0.215 C 
BRANCH  33  34
HETATM   34  C15 UNL     1      14.490  -3.687 -15.789  1.00  0.00     0.180 C 
HETATM   35  C16 UNL     1      13.416  -3.357 -14.761  1.00  0.00     0.197 C 
HETATM   36  C17 UNL     1      12.600  -4.630 -14.635  1.00  0.00     0.199 C 
HETATM   37  C18 UNL     1      12.835  -5.300 -15.991  1.00  0.00     0.262 C 
HETATM   38  O11 UNL     1      14.212  -4.994 -16.305  1.00  0.00    -0.353 OA
BRANCH  35  39
HETATM   39  O13 UNL     1      12.643  -2.272 -15.263  1.00  0.00    -0.286 OA
BRANCH  39  40
HETATM   40  P3  UNL     1      12.863  -0.870 -14.526  1.00  0.00     0.391 P 
HETATM   41  O14 UNL     1      11.599  -0.112 -14.282  1.00  0.00    -0.632 OA
BRANCH  40  42
HETATM   42  O15 UNL     1      13.957  -0.199 -15.481  1.00  0.00    -0.307 OA
HETATM   43  H36 UNL     1      14.736  -0.794 -15.592  1.00  0.00     0.222 HD
ENDBRANCH  40  42
BRANCH  40  44
HETATM   44  O16 UNL     1      13.714  -1.312 -13.257  1.00  0.00    -0.307 OA
HETATM   45  H37 UNL     1      14.619  -0.963 -13.271  1.00  0.00     0.222 HD
ENDBRANCH  40  44
ENDBRANCH  39  40
ENDBRANCH  35  39
BRANCH  36  46
HETATM   46  O12 UNL     1      11.249  -4.320 -14.282  1.00  0.00    -0.388 OA
HETATM   47  H35 UNL     1      10.691  -4.602 -15.045  1.00  0.00     0.210 HD
ENDBRANCH  36  46
BRANCH  37  48
HETATM   48  N3  UNL     1      12.679  -6.739 -15.935  1.00  0.00    -0.297 N 
HETATM   49  C19 UNL     1      11.928  -7.527 -16.777  1.00  0.00     0.188 A 
HETATM   50  N4  UNL     1      12.095  -8.810 -16.540  1.00  0.00    -0.346 N 
HETATM   51  C20 UNL     1      13.002  -8.857 -15.496  1.00  0.00     0.116 A 
HETATM   52  H4  UNL     1      11.654  -9.595 -17.018  1.00  0.00     0.167 HD
HETATM   53  C21 UNL     1      13.617  -9.922 -14.815  1.00  0.00     0.109 A 
HETATM   54  C23 UNL     1      13.342  -7.580 -15.086  1.00  0.00     0.142 A 
HETATM   55  N5  UNL     1      14.474  -9.637 -13.804  1.00  0.00    -0.341 N 
HETATM   56  C22 UNL     1      14.693  -8.343 -13.498  1.00  0.00     0.183 A 
HETATM   57  H5  UNL     1      14.942 -10.383 -13.289  1.00  0.00     0.167 HD
HETATM   58  N6  UNL     1      14.172  -7.244 -14.082  1.00  0.00    -0.336 N 
HETATM   59  H6  UNL     1      14.379  -6.286 -13.801  1.00  0.00     0.168 HD
BRANCH  53  60
HETATM   60  N7  UNL     1      13.384 -11.254 -15.116  1.00  0.00    -0.287 NA
HETATM   61  H33 UNL     1      14.183 -11.865 -14.959  1.00  0.00     0.125 HD
HETATM   62  H34 UNL     1      12.877 -11.381 -15.981  1.00  0.00     0.125 HD
ENDBRANCH  53  60
ENDBRANCH  37  48
ENDBRANCH  33  34
ENDBRANCH  32  33
ENDBRANCH  28  32
ENDBRANCH  27  28
ENDBRANCH  23  27
ENDBRANCH  22  23
ENDBRANCH  21  22
ENDBRANCH  18  21
ENDBRANCH  17  18
BRANCH  17  63
HETATM   63  O17 UNL     1      17.239  -7.629  -7.588  1.00  0.00    -0.385 OA
HETATM   64  H38 UNL     1      16.779  -7.568  -8.442  1.00  0.00     0.210 HD
ENDBRANCH  17  63
ENDBRANCH  14  17
ENDBRANCH  12  13
ENDBRANCH  11  12
ENDBRANCH   8  11
ENDBRANCH   6   7
ENDBRANCH   5   6
ENDBRANCH   4   5
ENDBRANCH   2   4
TORSDOF 27
ENDMDL
MODEL 19
REMARK VINA RESULT:      -5.0      5.868     10.981
REMARK  27 active torsions:
REMARK  status: ('A' for Active; 'I' for Inactive)
REMARK    1  A    between atoms: C2_2  and  S1_4 
REMARK    2  A    between atoms: S1_4  and  C3_5 
REMARK    3  A    between atoms: C3_5  and  C4_6 
REMARK    4  A    between atoms: C4_6  and  N1_7 
REMARK       I    between atoms: N1_7  and  C5_8 
REMARK    5  A    between atoms: C5_8  and  C6_10 
REMARK    6  A    between atoms: C6_10  and  C7_11 
REMARK    7  A    between atoms: C7_11  and  N2_12 
REMARK       I    between atoms: N2_12  and  C8_13 
REMARK    8  A    between atoms: C8_13  and  C9_15 
REMARK    9  A    between atoms: C9_15  and  C10_16 
REMARK   10  A    between atoms: C9_15  and  O17_54 
REMARK   11  A    between atoms: C10_16  and  C13_19 
REMARK   12  A    between atoms: C13_19  and  O4_20 
REMARK   13  A    between atoms: O4_20  and  P1_21 
REMARK   14  A    between atoms: P1_21  and  O6_23 
REMARK   15  A    between atoms: P1_21  and  O7_24 
REMARK   16  A    between atoms: O7_24  and  P2_25 
REMARK   17  A    between atoms: P2_25  and  O9_27 
REMARK   18  A    between atoms: P2_25  and  O10_28 
REMARK   19  A    between atoms: O10_28  and  C14_29 
REMARK   20  A    between atoms: C14_29  and  C15_30 
REMARK   21  A    between atoms: C16_31  and  O13_49 
REMARK   22  A    between atoms: C17_32  and  O12_48 
REMARK   23  A    between atoms: C18_33  and  N3_35 
REMARK   24  A    between atoms: C21_40  and  N7_47 
REMARK   25  A    between atoms: O13_49  and  P3_50 
REMARK   26  A    between atoms: P3_50  and  O15_52 
REMARK   27  A    between atoms: P3_50  and  O16_53 
ROOT
HETATM    1  C1  UNL     1       5.969  11.372  -0.819  1.00  0.00     0.104 C 
HETATM    2  C2  UNL     1       7.419  11.389  -1.197  1.00  0.00     0.182 C 
HETATM    3  O1  UNL     1       8.018  12.409  -1.529  1.00  0.00    -0.286 OA
ENDROOT
BRANCH   2   4
HETATM    4  S1  UNL     1       8.195   9.811  -1.166  1.00  0.00    -0.091 SA
BRANCH   4   5
HETATM    5  C3  UNL     1       7.510   9.084  -2.690  1.00  0.00     0.102 C 
BRANCH   5   6
HETATM    6  C4  UNL     1       8.290   7.844  -3.130  1.00  0.00     0.133 C 
BRANCH   6   7
HETATM    7  N1  UNL     1       9.663   7.854  -2.668  1.00  0.00    -0.360 N 
HETATM    8  C5  UNL     1      10.722   7.859  -3.546  1.00  0.00     0.219 C 
HETATM    9  O2  UNL     1      10.574   7.774  -4.760  1.00  0.00    -0.274 OA
HETATM   10  H8  UNL     1       9.842   7.864  -1.673  1.00  0.00     0.162 HD
BRANCH   8  11
HETATM   11  C6  UNL     1      12.069   7.926  -2.860  1.00  0.00     0.122 C 
BRANCH  11  12
HETATM   12  C7  UNL     1      12.996   8.947  -3.519  1.00  0.00     0.132 C 
BRANCH  12  13
HETATM   13  N2  UNL     1      12.617  10.317  -3.245  1.00  0.00    -0.358 N 
HETATM   14  C8  UNL     1      13.303  11.054  -2.298  1.00  0.00     0.247 C 
HETATM   15  O3  UNL     1      14.162  10.555  -1.581  1.00  0.00    -0.271 OA
HETATM   16  H13 UNL     1      12.217  10.826  -4.031  1.00  0.00     0.162 HD
BRANCH  14  17
HETATM   17  C9  UNL     1      12.917  12.539  -2.233  1.00  0.00     0.219 C 
BRANCH  17  18
HETATM   18  C10 UNL     1      12.128  12.943  -0.960  1.00  0.00     0.009 C 
HETATM   19  C11 UNL     1      11.141  14.088  -1.230  1.00  0.00     0.020 C 
HETATM   20  C12 UNL     1      11.331  11.754  -0.388  1.00  0.00     0.020 C 
BRANCH  18  21
HETATM   21  C13 UNL     1      13.194  13.406   0.074  1.00  0.00     0.192 C 
BRANCH  21  22
HETATM   22  O4  UNL     1      12.865  13.025   1.395  1.00  0.00    -0.296 OA
BRANCH  22  23
HETATM   23  P1  UNL     1      12.384  14.072   2.509  1.00  0.00     0.401 P 
HETATM   24  O5  UNL     1      10.898  14.194   2.634  1.00  0.00    -0.631 OA
BRANCH  23  25
HETATM   25  O6  UNL     1      13.125  15.465   2.189  1.00  0.00    -0.307 OA
HETATM   26  H23 UNL     1      13.304  15.972   2.991  1.00  0.00     0.222 HD
ENDBRANCH  23  25
BRANCH  23  27
HETATM   27  O7  UNL     1      13.129  13.625   3.842  1.00  0.00    -0.195 OA
BRANCH  27  28
HETATM   28  P2  UNL     1      12.528  12.419   4.692  1.00  0.00     0.401 P 
HETATM   29  O8  UNL     1      11.896  11.302   3.928  1.00  0.00    -0.631 OA
BRANCH  28  30
HETATM   30  O9  UNL     1      13.757  11.968   5.607  1.00  0.00    -0.307 OA
HETATM   31  H24 UNL     1      13.672  11.055   5.975  1.00  0.00     0.222 HD
ENDBRANCH  28  30
BRANCH  28  32
HETATM   32  O10 UNL     1      11.601  13.134   5.777  1.00  0.00    -0.294 OA
BRANCH  32  33
HETATM   33  C14 UNL     1      10.399  12.532   6.181  1.00  0.00     0.215 C 
BRANCH  33  34
HETATM   34  C15 UNL     1      10.650  11.978   7.582  1.00  0.00     0.180 C 
HETATM   35  C16 UNL     1       9.880  12.800   8.607  1.00  0.00     0.197 C 
HETATM   36  C17 UNL     1      10.949  13.403   9.498  1.00  0.00     0.199 C 
HETATM   37  C18 UNL     1      12.101  12.408   9.339  1.00  0.00     0.262 C 
HETATM   38  O11 UNL     1      12.033  12.002   7.954  1.00  0.00    -0.353 OA
BRANCH  35  39
HETATM   39  O13 UNL     1       9.019  11.919   9.322  1.00  0.00    -0.286 OA
BRANCH  39  40
HETATM   40  P3  UNL     1       7.469  12.311   9.312  1.00  0.00     0.391 P 
HETATM   41  O14 UNL     1       7.008  12.911   8.024  1.00  0.00    -0.632 OA
BRANCH  40  42
HETATM   42  O15 UNL     1       7.381  13.218  10.627  1.00  0.00    -0.307 OA
HETATM   43  H36 UNL     1       8.273  13.327  11.035  1.00  0.00     0.222 HD
ENDBRANCH  40  42
BRANCH  40  44
HETATM   44  O16 UNL     1       6.796  10.945   9.771  1.00  0.00    -0.307 OA
HETATM   45  H37 UNL     1       6.198  10.577   9.101  1.00  0.00     0.222 HD
ENDBRANCH  40  44
ENDBRANCH  39  40
ENDBRANCH  35  39
BRANCH  36  46
HETATM   46  O12 UNL     1      10.437  13.610  10.817  1.00  0.00    -0.388 OA
HETATM   47  H35 UNL     1      11.221  13.726  11.404  1.00  0.00     0.210 HD
ENDBRANCH  36  46
BRANCH  37  48
HETATM   48  N3  UNL     1      13.395  13.012   9.584  1.00  0.00    -0.297 N 
HETATM   49  C19 UNL     1      13.708  14.351   9.551  1.00  0.00     0.188 A 
HETATM   50  N4  UNL     1      14.941  14.585   9.944  1.00  0.00    -0.346 N 
HETATM   51  C20 UNL     1      15.452  13.337  10.252  1.00  0.00     0.116 A 
HETATM   52  H4  UNL     1      15.415  15.486  10.008  1.00  0.00     0.167 HD
HETATM   53  C21 UNL     1      16.692  12.914  10.762  1.00  0.00     0.109 A 
HETATM   54  C23 UNL     1      14.518  12.349   9.996  1.00  0.00     0.142 A 
HETATM   55  N5  UNL     1      16.898  11.587  10.950  1.00  0.00    -0.341 N 
HETATM   56  C22 UNL     1      15.902  10.736  10.633  1.00  0.00     0.183 A 
HETATM   57  H5  UNL     1      17.783  11.243  11.321  1.00  0.00     0.167 HD
HETATM   58  N6  UNL     1      14.677  11.023  10.149  1.00  0.00    -0.336 N 
HETATM   59  H6  UNL     1      13.964  10.326   9.929  1.00  0.00     0.168 HD
BRANCH  53  60
HETATM   60  N7  UNL     1      17.724  13.784  11.075  1.00  0.00    -0.287 NA
HETATM   61  H33 UNL     1      18.636  13.340  11.159  1.00  0.00     0.125 HD
HETATM   62  H34 UNL     1      17.474  14.450  11.793  1.00  0.00     0.125 HD
ENDBRANCH  53  60
ENDBRANCH  37  48
ENDBRANCH  33  34
ENDBRANCH  32  33
ENDBRANCH  28  32
ENDBRANCH  27  28
ENDBRANCH  23  27
ENDBRANCH  22  23
ENDBRANCH  21  22
ENDBRANCH  18  21
ENDBRANCH  17  18
BRANCH  17  63
HETATM   63  O17 UNL     1      14.089  13.357  -2.320  1.00  0.00    -0.385 OA
HETATM   64  H38 UNL     1      13.976  14.111  -1.717  1.00  0.00     0.210 HD
ENDBRANCH  17  63
ENDBRANCH  14  17
ENDBRANCH  12  13
ENDBRANCH  11  12
ENDBRANCH   8  11
ENDBRANCH   6   7
ENDBRANCH   5   6
ENDBRANCH   4   5
ENDBRANCH   2   4
TORSDOF 27
ENDMDL
MODEL 20
REMARK VINA RESULT:      -5.0      4.943      7.854
REMARK  27 active torsions:
REMARK  status: ('A' for Active; 'I' for Inactive)
REMARK    1  A    between atoms: C2_2  and  S1_4 
REMARK    2  A    between atoms: S1_4  and  C3_5 
REMARK    3  A    between atoms: C3_5  and  C4_6 
REMARK    4  A    between atoms: C4_6  and  N1_7 
REMARK       I    between atoms: N1_7  and  C5_8 
REMARK    5  A    between atoms: C5_8  and  C6_10 
REMARK    6  A    between atoms: C6_10  and  C7_11 
REMARK    7  A    between atoms: C7_11  and  N2_12 
REMARK       I    between atoms: N2_12  and  C8_13 
REMARK    8  A    between atoms: C8_13  and  C9_15 
REMARK    9  A    between atoms: C9_15  and  C10_16 
REMARK   10  A    between atoms: C9_15  and  O17_54 
REMARK   11  A    between atoms: C10_16  and  C13_19 
REMARK   12  A    between atoms: C13_19  and  O4_20 
REMARK   13  A    between atoms: O4_20  and  P1_21 
REMARK   14  A    between atoms: P1_21  and  O6_23 
REMARK   15  A    between atoms: P1_21  and  O7_24 
REMARK   16  A    between atoms: O7_24  and  P2_25 
REMARK   17  A    between atoms: P2_25  and  O9_27 
REMARK   18  A    between atoms: P2_25  and  O10_28 
REMARK   19  A    between atoms: O10_28  and  C14_29 
REMARK   20  A    between atoms: C14_29  and  C15_30 
REMARK   21  A    between atoms: C16_31  and  O13_49 
REMARK   22  A    between atoms: C17_32  and  O12_48 
REMARK   23  A    between atoms: C18_33  and  N3_35 
REMARK   24  A    between atoms: C21_40  and  N7_47 
REMARK   25  A    between atoms: O13_49  and  P3_50 
REMARK   26  A    between atoms: P3_50  and  O15_52 
REMARK   27  A    between atoms: P3_50  and  O16_53 
ROOT
HETATM    1  C1  UNL     1       9.523  13.599   5.926  1.00  0.00     0.104 C 
HETATM    2  C2  UNL     1       9.729  12.131   6.143  1.00  0.00     0.182 C 
HETATM    3  O1  UNL     1       8.822  11.305   6.080  1.00  0.00    -0.286 OA
ENDROOT
BRANCH   2   4
HETATM    4  S1  UNL     1      11.383  11.682   6.538  1.00  0.00    -0.091 SA
BRANCH   4   5
HETATM    5  C3  UNL     1      11.131   9.958   7.072  1.00  0.00     0.102 C 
BRANCH   5   6
HETATM    6  C4  UNL     1      12.430   9.151   7.024  1.00  0.00     0.133 C 
BRANCH   6   7
HETATM    7  N1  UNL     1      13.549   9.922   6.521  1.00  0.00    -0.360 N 
HETATM    8  C5  UNL     1      14.851   9.529   6.731  1.00  0.00     0.219 C 
HETATM    9  O2  UNL     1      15.145   8.557   7.417  1.00  0.00    -0.274 OA
HETATM   10  H8  UNL     1      13.362  10.766   5.998  1.00  0.00     0.162 HD
BRANCH   8  11
HETATM   11  C6  UNL     1      15.865  10.443   6.077  1.00  0.00     0.122 C 
BRANCH  11  12
HETATM   12  C7  UNL     1      16.585   9.758   4.915  1.00  0.00     0.132 C 
BRANCH  12  13
HETATM   13  N2  UNL     1      16.481  10.492   3.672  1.00  0.00    -0.358 N 
HETATM   14  C8  UNL     1      16.769   9.871   2.470  1.00  0.00     0.247 C 
HETATM   15  O3  UNL     1      17.229   8.737   2.417  1.00  0.00    -0.271 OA
HETATM   16  H13 UNL     1      15.784  11.233   3.657  1.00  0.00     0.162 HD
BRANCH  14  17
HETATM   17  C9  UNL     1      16.449  10.705   1.221  1.00  0.00     0.219 C 
BRANCH  17  18
HETATM   18  C10 UNL     1      17.643  11.533   0.678  1.00  0.00     0.009 C 
HETATM   19  C11 UNL     1      17.846  12.838   1.463  1.00  0.00     0.020 C 
HETATM   20  C12 UNL     1      18.959  10.733   0.737  1.00  0.00     0.020 C 
BRANCH  18  21
HETATM   21  C13 UNL     1      17.295  11.863  -0.802  1.00  0.00     0.192 C 
BRANCH  21  22
HETATM   22  O4  UNL     1      16.008  12.429  -0.940  1.00  0.00    -0.296 OA
BRANCH  22  23
HETATM   23  P1  UNL     1      15.061  12.144  -2.203  1.00  0.00     0.401 P 
HETATM   24  O5  UNL     1      15.798  11.736  -3.439  1.00  0.00    -0.631 OA
BRANCH  23  25
HETATM   25  O6  UNL     1      14.140  13.450  -2.397  1.00  0.00    -0.307 OA
HETATM   26  H23 UNL     1      13.367  13.436  -1.818  1.00  0.00     0.222 HD
ENDBRANCH  23  25
BRANCH  23  27
HETATM   27  O7  UNL     1      13.993  11.086  -1.685  1.00  0.00    -0.195 OA
BRANCH  27  28
HETATM   28  P2  UNL     1      12.648  10.881  -2.514  1.00  0.00     0.401 P 
HETATM   29  O8  UNL     1      11.521  11.816  -2.217  1.00  0.00    -0.631 OA
BRANCH  28  30
HETATM   30  O9  UNL     1      13.143  10.919  -4.031  1.00  0.00    -0.307 OA
HETATM   31  H24 UNL     1      14.004  11.386  -4.163  1.00  0.00     0.222 HD
ENDBRANCH  28  30
BRANCH  28  32
HETATM   32  O10 UNL     1      12.325   9.326  -2.349  1.00  0.00    -0.294 OA
BRANCH  32  33
HETATM   33  C14 UNL     1      11.803   8.598  -3.430  1.00  0.00     0.215 C 
BRANCH  33  34
HETATM   34  C15 UNL     1      12.771   7.441  -3.673  1.00  0.00     0.180 C 
HETATM   35  C16 UNL     1      12.667   6.435  -2.535  1.00  0.00     0.197 C 
HETATM   36  C17 UNL     1      14.044   6.432  -1.898  1.00  0.00     0.199 C 
HETATM   37  C18 UNL     1      14.936   6.887  -3.056  1.00  0.00     0.262 C 
HETATM   38  O11 UNL     1      14.137   7.864  -3.759  1.00  0.00    -0.353 OA
BRANCH  35  39
HETATM   39  O13 UNL     1      12.332   5.169  -3.094  1.00  0.00    -0.286 OA
BRANCH  39  40
HETATM   40  P3  UNL     1      11.023   4.475  -2.493  1.00  0.00     0.391 P 
HETATM   41  O14 UNL     1       9.851   5.396  -2.377  1.00  0.00    -0.632 OA
BRANCH  40  42
HETATM   42  O15 UNL     1      11.610   3.851  -1.142  1.00  0.00    -0.307 OA
HETATM   43  H36 UNL     1      12.059   2.991  -1.322  1.00  0.00     0.222 HD
ENDBRANCH  40  42
BRANCH  40  44
HETATM   44  O16 UNL     1      10.874   3.208  -3.442  1.00  0.00    -0.307 OA
HETATM   45  H37 UNL     1      10.009   2.776  -3.359  1.00  0.00     0.222 HD
ENDBRANCH  40  44
ENDBRANCH  39  40
ENDBRANCH  35  39
BRANCH  36  46
HETATM   46  O12 UNL     1      14.320   5.153  -1.320  1.00  0.00    -0.388 OA
HETATM   47  H35 UNL     1      14.159   4.487  -2.030  1.00  0.00     0.210 HD
ENDBRANCH  36  46
BRANCH  37  48
HETATM   48  N3  UNL     1      16.156   7.524  -2.601  1.00  0.00    -0.297 N 
HETATM   49  C19 UNL     1      16.792   7.336  -1.396  1.00  0.00     0.188 A 
HETATM   50  N4  UNL     1      17.946   7.964  -1.338  1.00  0.00    -0.346 N 
HETATM   51  C20 UNL     1      18.066   8.586  -2.568  1.00  0.00     0.116 A 
HETATM   52  H4  UNL     1      18.605   7.988  -0.561  1.00  0.00     0.167 HD
HETATM   53  C21 UNL     1      19.081   9.370  -3.145  1.00  0.00     0.109 A 
HETATM   54  C23 UNL     1      16.946   8.354  -3.346  1.00  0.00     0.142 A 
HETATM   55  N5  UNL     1      18.894   9.856  -4.396  1.00  0.00    -0.341 N 
HETATM   56  C22 UNL     1      17.739   9.567  -5.027  1.00  0.00     0.183 A 
HETATM   57  H5  UNL     1      19.610  10.426  -4.848  1.00  0.00     0.167 HD
HETATM   58  N6  UNL     1      16.705   8.824  -4.582  1.00  0.00    -0.336 N 
HETATM   59  H6  UNL     1      15.853   8.642  -5.113  1.00  0.00     0.168 HD
BRANCH  53  60
HETATM   60  N7  UNL     1      20.265   9.683  -2.495  1.00  0.00    -0.287 NA
HETATM   61  H33 UNL     1      20.272  10.602  -2.057  1.00  0.00     0.125 HD
HETATM   62  H34 UNL     1      21.086   9.423  -3.024  1.00  0.00     0.125 HD
ENDBRANCH  53  60
ENDBRANCH  37  48
ENDBRANCH  33  34
ENDBRANCH  32  33
ENDBRANCH  28  32
ENDBRANCH  27  28
ENDBRANCH  23  27
ENDBRANCH  22  23
ENDBRANCH  21  22
ENDBRANCH  18  21
ENDBRANCH  17  18
BRANCH  17  63
HETATM   63  O17 UNL     1      15.969   9.857   0.172  1.00  0.00    -0.385 OA
HETATM   64  H38 UNL     1      16.737   9.529  -0.326  1.00  0.00     0.210 HD
ENDBRANCH  17  63
ENDBRANCH  14  17
ENDBRANCH  12  13
ENDBRANCH  11  12
ENDBRANCH   8  11
ENDBRANCH   6   7
ENDBRANCH   5   6
ENDBRANCH   4   5
ENDBRANCH   2   4
TORSDOF 27
ENDMDL
