MODEL 1
REMARK VINA RESULT:      -4.4      0.000      0.000
REMARK  2 active torsions:
REMARK  status: ('A' for Active; 'I' for Inactive)
REMARK    1  A    between atoms: C3_3  and  O1_8 
REMARK    2  A    between atoms: C6_6  and  N1_7 
ROOT
HETATM    1  C1  UNL     1      -3.840  11.120  15.289  1.00  0.00     0.026 A 
HETATM    2  C2  UNL     1      -3.389  10.070  16.091  1.00  0.00     0.038 A 
HETATM    3  C3  UNL     1      -3.268   8.797  15.554  1.00  0.00     0.065 A 
HETATM    4  C4  UNL     1      -3.578   8.559  14.219  1.00  0.00     0.038 A 
HETATM    5  C5  UNL     1      -4.031   9.615  13.423  1.00  0.00     0.026 A 
HETATM    6  C6  UNL     1      -4.214  10.893  13.961  1.00  0.00     0.005 A 
ENDROOT
BRANCH   6   7
HETATM    7  N1  UNL     1      -4.553  11.966  13.129  1.00  0.00    -0.303 NA
HETATM    8  H5  UNL     1      -3.848  12.696  13.099  1.00  0.00     0.124 HD
HETATM    9  H6  UNL     1      -5.484  12.335  13.293  1.00  0.00     0.124 HD
ENDBRANCH   6   7
BRANCH   3  10
HETATM   10  O1  UNL     1      -2.822   7.800  16.368  1.00  0.00    -0.361 OA
HETATM   11  H7  UNL     1      -3.050   8.022  17.285  1.00  0.00     0.217 HD
ENDBRANCH   3  10
TORSDOF 2
ENDMDL
MODEL 2
REMARK VINA RESULT:      -4.0     26.935     27.868
REMARK  2 active torsions:
REMARK  status: ('A' for Active; 'I' for Inactive)
REMARK    1  A    between atoms: C3_3  and  O1_8 
REMARK    2  A    between atoms: C6_6  and  N1_7 
ROOT
HETATM    1  C1  UNL     1       3.466 -12.473   0.181  1.00  0.00     0.026 A 
HETATM    2  C2  UNL     1       2.417 -11.616   0.517  1.00  0.00     0.038 A 
HETATM    3  C3  UNL     1       1.324 -11.501  -0.330  1.00  0.00     0.065 A 
HETATM    4  C4  UNL     1       1.257 -12.244  -1.503  1.00  0.00     0.038 A 
HETATM    5  C5  UNL     1       2.312 -13.100  -1.834  1.00  0.00     0.026 A 
HETATM    6  C6  UNL     1       3.447 -13.185  -1.023  1.00  0.00     0.005 A 
ENDROOT
BRANCH   6   7
HETATM    7  N1  UNL     1       4.442 -14.130  -1.299  1.00  0.00    -0.303 NA
HETATM    8  H5  UNL     1       5.247 -14.067  -0.683  1.00  0.00     0.124 HD
HETATM    9  H6  UNL     1       4.707 -14.172  -2.278  1.00  0.00     0.124 HD
ENDBRANCH   6   7
BRANCH   3  10
HETATM   10  O1  UNL     1       0.319 -10.656   0.035  1.00  0.00    -0.361 OA
HETATM   11  H7  UNL     1      -0.448 -11.185   0.305  1.00  0.00     0.217 HD
ENDBRANCH   3  10
TORSDOF 2
ENDMDL
MODEL 3
REMARK VINA RESULT:      -4.0     36.419     36.897
REMARK  2 active torsions:
REMARK  status: ('A' for Active; 'I' for Inactive)
REMARK    1  A    between atoms: C3_3  and  O1_8 
REMARK    2  A    between atoms: C6_6  and  N1_7 
ROOT
HETATM    1  C1  UNL     1       1.129  -2.948 -18.821  1.00  0.00     0.026 A 
HETATM    2  C2  UNL     1       1.259  -4.327 -18.996  1.00  0.00     0.038 A 
HETATM    3  C3  UNL     1       2.511  -4.875 -19.236  1.00  0.00     0.065 A 
HETATM    4  C4  UNL     1       3.640  -4.065 -19.289  1.00  0.00     0.038 A 
HETATM    5  C5  UNL     1       3.501  -2.685 -19.115  1.00  0.00     0.026 A 
HETATM    6  C6  UNL     1       2.241  -2.108 -18.930  1.00  0.00     0.005 A 
ENDROOT
BRANCH   6   7
HETATM    7  N1  UNL     1       2.126  -0.744 -18.639  1.00  0.00    -0.303 NA
HETATM    8  H5  UNL     1       1.297  -0.310 -19.035  1.00  0.00     0.124 HD
HETATM    9  H6  UNL     1       2.968  -0.211 -18.828  1.00  0.00     0.124 HD
ENDBRANCH   6   7
BRANCH   3  10
HETATM   10  O1  UNL     1       2.597  -6.225 -19.398  1.00  0.00    -0.361 OA
HETATM   11  H7  UNL     1       1.997  -6.652 -18.765  1.00  0.00     0.217 HD
ENDBRANCH   3  10
TORSDOF 2
ENDMDL
MODEL 4
REMARK VINA RESULT:      -3.9     32.799     33.559
REMARK  2 active torsions:
REMARK  status: ('A' for Active; 'I' for Inactive)
REMARK    1  A    between atoms: C3_3  and  O1_8 
REMARK    2  A    between atoms: C6_6  and  N1_7 
ROOT
HETATM    1  C1  UNL     1      10.791   1.384 -15.344  1.00  0.00     0.026 A 
HETATM    2  C2  UNL     1      11.612   1.896 -14.336  1.00  0.00     0.038 A 
HETATM    3  C3  UNL     1      11.254   3.069 -13.687  1.00  0.00     0.065 A 
HETATM    4  C4  UNL     1      10.077   3.731 -14.019  1.00  0.00     0.038 A 
HETATM    5  C5  UNL     1       9.261   3.213 -15.030  1.00  0.00     0.026 A 
HETATM    6  C6  UNL     1       9.634   2.065 -15.735  1.00  0.00     0.005 A 
ENDROOT
BRANCH   6   7
HETATM    7  N1  UNL     1       8.756   1.489 -16.660  1.00  0.00    -0.303 NA
HETATM    8  H5  UNL     1       8.455   0.552 -16.409  1.00  0.00     0.124 HD
HETATM    9  H6  UNL     1       9.075   1.548 -17.621  1.00  0.00     0.124 HD
ENDBRANCH   6   7
BRANCH   3  10
HETATM   10  O1  UNL     1      12.079   3.534 -12.708  1.00  0.00    -0.361 OA
HETATM   11  H7  UNL     1      11.608   3.495 -11.861  1.00  0.00     0.217 HD
ENDBRANCH   3  10
TORSDOF 2
ENDMDL
MODEL 5
REMARK VINA RESULT:      -3.9     27.482     27.917
REMARK  2 active torsions:
REMARK  status: ('A' for Active; 'I' for Inactive)
REMARK    1  A    between atoms: C3_3  and  O1_8 
REMARK    2  A    between atoms: C6_6  and  N1_7 
ROOT
HETATM    1  C1  UNL     1      20.319   6.785  -0.293  1.00  0.00     0.026 A 
HETATM    2  C2  UNL     1      19.585   7.917  -0.656  1.00  0.00     0.038 A 
HETATM    3  C3  UNL     1      18.294   7.773  -1.145  1.00  0.00     0.065 A 
HETATM    4  C4  UNL     1      17.718   6.513  -1.260  1.00  0.00     0.038 A 
HETATM    5  C5  UNL     1      18.459   5.384  -0.896  1.00  0.00     0.026 A 
HETATM    6  C6  UNL     1      19.781   5.505  -0.457  1.00  0.00     0.005 A 
ENDROOT
BRANCH   6   7
HETATM    7  N1  UNL     1      20.472   4.384   0.017  1.00  0.00    -0.303 NA
HETATM    8  H5  UNL     1      20.359   3.559  -0.565  1.00  0.00     0.124 HD
HETATM    9  H6  UNL     1      20.311   4.188   0.999  1.00  0.00     0.124 HD
ENDBRANCH   6   7
BRANCH   3  10
HETATM   10  O1  UNL     1      17.611   8.901  -1.485  1.00  0.00    -0.361 OA
HETATM   11  H7  UNL     1      17.380   8.851  -2.427  1.00  0.00     0.217 HD
ENDBRANCH   3  10
TORSDOF 2
ENDMDL
MODEL 6
REMARK VINA RESULT:      -3.9     36.427     37.256
REMARK  2 active torsions:
REMARK  status: ('A' for Active; 'I' for Inactive)
REMARK    1  A    between atoms: C3_3  and  O1_8 
REMARK    2  A    between atoms: C6_6  and  N1_7 
ROOT
HETATM    1  C1  UNL     1       1.573  -4.079 -19.113  1.00  0.00     0.026 A 
HETATM    2  C2  UNL     1       1.419  -2.784 -18.614  1.00  0.00     0.038 A 
HETATM    3  C3  UNL     1       2.305  -1.788 -18.999  1.00  0.00     0.065 A 
HETATM    4  C4  UNL     1       3.336  -2.064 -19.890  1.00  0.00     0.038 A 
HETATM    5  C5  UNL     1       3.485  -3.363 -20.385  1.00  0.00     0.026 A 
HETATM    6  C6  UNL     1       2.638  -4.393 -19.964  1.00  0.00     0.005 A 
ENDROOT
BRANCH   6   7
HETATM    7  N1  UNL     1       2.720  -5.659 -20.554  1.00  0.00    -0.303 NA
HETATM    8  H5  UNL     1       2.642  -5.643 -21.566  1.00  0.00     0.124 HD
HETATM    9  H6  UNL     1       2.110  -6.350 -20.130  1.00  0.00     0.124 HD
ENDBRANCH   6   7
BRANCH   3  10
HETATM   10  O1  UNL     1       2.119  -0.537 -18.491  1.00  0.00    -0.361 OA
HETATM   11  H7  UNL     1       1.316  -0.160 -18.885  1.00  0.00     0.217 HD
ENDBRANCH   3  10
TORSDOF 2
ENDMDL
MODEL 7
REMARK VINA RESULT:      -3.9     32.880     33.615
REMARK  2 active torsions:
REMARK  status: ('A' for Active; 'I' for Inactive)
REMARK    1  A    between atoms: C3_3  and  O1_8 
REMARK    2  A    between atoms: C6_6  and  N1_7 
ROOT
HETATM    1  C1  UNL     1      10.027   3.704 -14.105  1.00  0.00     0.026 A 
HETATM    2  C2  UNL     1       9.161   3.173 -15.064  1.00  0.00     0.038 A 
HETATM    3  C3  UNL     1       9.498   1.997 -15.719  1.00  0.00     0.065 A 
HETATM    4  C4  UNL     1      10.682   1.334 -15.418  1.00  0.00     0.038 A 
HETATM    5  C5  UNL     1      11.545   1.872 -14.459  1.00  0.00     0.026 A 
HETATM    6  C6  UNL     1      11.251   3.086 -13.830  1.00  0.00     0.005 A 
ENDROOT
BRANCH   6   7
HETATM    7  N1  UNL     1      12.060   3.554 -12.789  1.00  0.00    -0.303 NA
HETATM    8  H5  UNL     1      11.566   3.667 -11.908  1.00  0.00     0.124 HD
HETATM    9  H6  UNL     1      12.609   4.372 -13.031  1.00  0.00     0.124 HD
ENDBRANCH   6   7
BRANCH   3  10
HETATM   10  O1  UNL     1       8.625   1.510 -16.645  1.00  0.00    -0.361 OA
HETATM   11  H7  UNL     1       8.915   0.622 -16.907  1.00  0.00     0.217 HD
ENDBRANCH   3  10
TORSDOF 2
ENDMDL
MODEL 8
REMARK VINA RESULT:      -3.8     33.416     33.821
REMARK  2 active torsions:
REMARK  status: ('A' for Active; 'I' for Inactive)
REMARK    1  A    between atoms: C3_3  and  O1_8 
REMARK    2  A    between atoms: C6_6  and  N1_7 
ROOT
HETATM    1  C1  UNL     1      11.204  -4.044 -12.516  1.00  0.00     0.026 A 
HETATM    2  C2  UNL     1      11.971  -4.110 -11.351  1.00  0.00     0.038 A 
HETATM    3  C3  UNL     1      12.833  -3.070 -11.034  1.00  0.00     0.065 A 
HETATM    4  C4  UNL     1      12.928  -1.954 -11.858  1.00  0.00     0.038 A 
HETATM    5  C5  UNL     1      12.158  -1.895 -13.024  1.00  0.00     0.026 A 
HETATM    6  C6  UNL     1      11.328  -2.959 -13.390  1.00  0.00     0.005 A 
ENDROOT
BRANCH   6   7
HETATM    7  N1  UNL     1      10.474  -2.840 -14.492  1.00  0.00    -0.303 NA
HETATM    8  H5  UNL     1      10.868  -3.204 -15.355  1.00  0.00     0.124 HD
HETATM    9  H6  UNL     1      10.081  -1.912 -14.609  1.00  0.00     0.124 HD
ENDBRANCH   6   7
BRANCH   3  10
HETATM   10  O1  UNL     1      13.562  -3.171  -9.887  1.00  0.00    -0.361 OA
HETATM   11  H7  UNL     1      13.700  -4.112  -9.690  1.00  0.00     0.217 HD
ENDBRANCH   3  10
TORSDOF 2
ENDMDL
MODEL 9
REMARK VINA RESULT:      -3.8     21.437     22.252
REMARK  2 active torsions:
REMARK  status: ('A' for Active; 'I' for Inactive)
REMARK    1  A    between atoms: C3_3  and  O1_8 
REMARK    2  A    between atoms: C6_6  and  N1_7 
ROOT
HETATM    1  C1  UNL     1       0.095  15.734  -6.137  1.00  0.00     0.026 A 
HETATM    2  C2  UNL     1      -0.015  14.491  -5.511  1.00  0.00     0.038 A 
HETATM    3  C3  UNL     1       0.916  13.499  -5.783  1.00  0.00     0.065 A 
HETATM    4  C4  UNL     1       1.967  13.736  -6.661  1.00  0.00     0.038 A 
HETATM    5  C5  UNL     1       2.070  14.983  -7.286  1.00  0.00     0.026 A 
HETATM    6  C6  UNL     1       1.109  15.975  -7.069  1.00  0.00     0.005 A 
ENDROOT
BRANCH   6   7
HETATM    7  N1  UNL     1       1.285  17.256  -7.604  1.00  0.00    -0.303 NA
HETATM    8  H5  UNL     1       0.967  18.001  -6.993  1.00  0.00     0.124 HD
HETATM    9  H6  UNL     1       0.935  17.357  -8.551  1.00  0.00     0.124 HD
ENDBRANCH   6   7
BRANCH   3  10
HETATM   10  O1  UNL     1       0.775  12.300  -5.149  1.00  0.00    -0.361 OA
HETATM   11  H7  UNL     1      -0.056  11.892  -5.440  1.00  0.00     0.217 HD
ENDBRANCH   3  10
TORSDOF 2
ENDMDL
