MODEL 1
REMARK VINA RESULT:      -5.3      0.000      0.000
REMARK  27 active torsions:
REMARK  status: ('A' for Active; 'I' for Inactive)
REMARK    1  A    between atoms: C2_2  and  S1_4 
REMARK    2  A    between atoms: S1_4  and  C3_5 
REMARK    3  A    between atoms: C3_5  and  C4_6 
REMARK    4  A    between atoms: C4_6  and  N1_7 
REMARK       I    between atoms: N1_7  and  C5_8 
REMARK    5  A    between atoms: C5_8  and  C6_10 
REMARK    6  A    between atoms: C6_10  and  C7_11 
REMARK    7  A    between atoms: C7_11  and  N2_12 
REMARK       I    between atoms: N2_12  and  C8_13 
REMARK    8  A    between atoms: C8_13  and  C9_15 
REMARK    9  A    between atoms: C9_15  and  C10_16 
REMARK   10  A    between atoms: C9_15  and  O17_54 
REMARK   11  A    between atoms: C10_16  and  C13_19 
REMARK   12  A    between atoms: C13_19  and  O4_20 
REMARK   13  A    between atoms: O4_20  and  P1_21 
REMARK   14  A    between atoms: P1_21  and  O6_23 
REMARK   15  A    between atoms: P1_21  and  O7_24 
REMARK   16  A    between atoms: O7_24  and  P2_25 
REMARK   17  A    between atoms: P2_25  and  O9_27 
REMARK   18  A    between atoms: P2_25  and  O10_28 
REMARK   19  A    between atoms: O10_28  and  C14_29 
REMARK   20  A    between atoms: C14_29  and  C15_30 
REMARK   21  A    between atoms: C16_31  and  O13_49 
REMARK   22  A    between atoms: C17_32  and  O12_48 
REMARK   23  A    between atoms: C18_33  and  N3_35 
REMARK   24  A    between atoms: C21_40  and  N7_47 
REMARK   25  A    between atoms: O13_49  and  P3_50 
REMARK   26  A    between atoms: P3_50  and  O15_52 
REMARK   27  A    between atoms: P3_50  and  O16_53 
ROOT
HETATM    1  C1  UNL     1      -8.076  20.819  -6.314  1.00  0.00     0.104 C 
HETATM    2  C2  UNL     1      -6.997  20.063  -7.027  1.00  0.00     0.182 C 
HETATM    3  O1  UNL     1      -5.807  20.360  -6.957  1.00  0.00    -0.286 OA
ENDROOT
BRANCH   2   4
HETATM    4  S1  UNL     1      -7.577  18.729  -8.015  1.00  0.00    -0.091 SA
BRANCH   4   5
HETATM    5  C3  UNL     1      -6.272  17.498  -7.695  1.00  0.00     0.102 C 
BRANCH   5   6
HETATM    6  C4  UNL     1      -5.307  17.370  -8.875  1.00  0.00     0.133 C 
BRANCH   6   7
HETATM    7  N1  UNL     1      -4.648  18.619  -9.197  1.00  0.00    -0.360 N 
HETATM    8  C5  UNL     1      -3.485  18.656  -9.931  1.00  0.00     0.219 C 
HETATM    9  O2  UNL     1      -2.896  17.641 -10.285  1.00  0.00    -0.274 OA
HETATM   10  H8  UNL     1      -5.063  19.484  -8.878  1.00  0.00     0.162 HD
BRANCH   8  11
HETATM   11  C6  UNL     1      -2.992  20.061 -10.203  1.00  0.00     0.122 C 
BRANCH  11  12
HETATM   12  C7  UNL     1      -1.824  20.442  -9.295  1.00  0.00     0.132 C 
BRANCH  12  13
HETATM   13  N2  UNL     1      -1.187  19.297  -8.679  1.00  0.00    -0.358 N 
HETATM   14  C8  UNL     1       0.192  19.190  -8.665  1.00  0.00     0.247 C 
HETATM   15  O3  UNL     1       0.912  19.979  -9.264  1.00  0.00    -0.271 OA
HETATM   16  H13 UNL     1      -1.694  18.879  -7.901  1.00  0.00     0.162 HD
BRANCH  14  17
HETATM   17  C9  UNL     1       0.739  18.024  -7.829  1.00  0.00     0.219 C 
BRANCH  17  18
HETATM   18  C10 UNL     1       1.446  16.917  -8.655  1.00  0.00     0.009 C 
HETATM   19  C11 UNL     1       0.667  16.559  -9.929  1.00  0.00     0.020 C 
HETATM   20  C12 UNL     1       2.868  17.343  -9.072  1.00  0.00     0.020 C 
BRANCH  18  21
HETATM   21  C13 UNL     1       1.523  15.673  -7.724  1.00  0.00     0.192 C 
BRANCH  21  22
HETATM   22  O4  UNL     1       0.767  15.839  -6.541  1.00  0.00    -0.296 OA
BRANCH  22  23
HETATM   23  P1  UNL     1       0.153  14.605  -5.720  1.00  0.00     0.401 P 
HETATM   24  O5  UNL     1      -0.322  14.960  -4.347  1.00  0.00    -0.631 OA
BRANCH  23  25
HETATM   25  O6  UNL     1       1.258  13.435  -5.744  1.00  0.00    -0.307 OA
HETATM   26  H23 UNL     1       1.996  13.646  -6.330  1.00  0.00     0.222 HD
ENDBRANCH  23  25
BRANCH  23  27
HETATM   27  O7  UNL     1      -0.965  13.994  -6.673  1.00  0.00    -0.195 OA
BRANCH  27  28
HETATM   28  P2  UNL     1      -2.019  12.968  -6.062  1.00  0.00     0.401 P 
HETATM   29  O8  UNL     1      -2.560  11.924  -6.985  1.00  0.00    -0.631 OA
BRANCH  28  30
HETATM   30  O9  UNL     1      -1.262  12.380  -4.786  1.00  0.00    -0.307 OA
HETATM   31  H24 UNL     1      -1.748  12.505  -3.935  1.00  0.00     0.222 HD
ENDBRANCH  28  30
BRANCH  28  32
HETATM   32  O10 UNL     1      -3.104  13.903  -5.356  1.00  0.00    -0.294 OA
BRANCH  32  33
HETATM   33  C14 UNL     1      -3.568  15.057  -6.007  1.00  0.00     0.215 C 
BRANCH  33  34
HETATM   34  C15 UNL     1      -4.294  15.882  -4.946  1.00  0.00     0.180 C 
HETATM   35  C16 UNL     1      -3.279  16.592  -4.061  1.00  0.00     0.197 C 
HETATM   36  C17 UNL     1      -3.519  16.029  -2.673  1.00  0.00     0.199 C 
HETATM   37  C18 UNL     1      -4.983  15.589  -2.752  1.00  0.00     0.262 C 
HETATM   38  O11 UNL     1      -5.133  15.089  -4.099  1.00  0.00    -0.353 OA
BRANCH  35  39
HETATM   39  O13 UNL     1      -3.539  17.990  -4.125  1.00  0.00    -0.286 OA
BRANCH  39  40
HETATM   40  P3  UNL     1      -2.500  18.846  -4.987  1.00  0.00     0.391 P 
HETATM   41  O14 UNL     1      -2.222  20.202  -4.423  1.00  0.00    -0.632 OA
BRANCH  40  42
HETATM   42  O15 UNL     1      -3.177  18.770  -6.434  1.00  0.00    -0.307 OA
HETATM   43  H36 UNL     1      -3.133  19.646  -6.886  1.00  0.00     0.222 HD
ENDBRANCH  40  42
BRANCH  40  44
HETATM   44  O16 UNL     1      -1.280  17.833  -5.105  1.00  0.00    -0.307 OA
HETATM   45  H37 UNL     1      -0.568  18.166  -5.674  1.00  0.00     0.222 HD
ENDBRANCH  40  44
ENDBRANCH  39  40
ENDBRANCH  35  39
BRANCH  36  46
HETATM   46  O12 UNL     1      -3.177  16.998  -1.678  1.00  0.00    -0.388 OA
HETATM   47  H35 UNL     1      -3.964  17.080  -1.088  1.00  0.00     0.210 HD
ENDBRANCH  36  46
BRANCH  37  48
HETATM   48  N3  UNL     1      -5.295  14.523  -1.821  1.00  0.00    -0.297 N 
HETATM   49  C19 UNL     1      -6.243  14.540  -0.825  1.00  0.00     0.188 A 
HETATM   50  N4  UNL     1      -6.369  13.371  -0.236  1.00  0.00    -0.346 N 
HETATM   51  C20 UNL     1      -5.460  12.554  -0.886  1.00  0.00     0.116 A 
HETATM   52  H4  UNL     1      -6.996  13.121   0.529  1.00  0.00     0.167 HD
HETATM   53  C21 UNL     1      -5.142  11.191  -0.756  1.00  0.00     0.109 A 
HETATM   54  C23 UNL     1      -4.761  13.265  -1.843  1.00  0.00     0.142 A 
HETATM   55  N5  UNL     1      -4.174  10.672  -1.550  1.00  0.00    -0.341 N 
HETATM   56  C22 UNL     1      -3.558  11.492  -2.425  1.00  0.00     0.183 A 
HETATM   57  H5  UNL     1      -3.918   9.686  -1.488  1.00  0.00     0.167 HD
HETATM   58  N6  UNL     1      -3.783  12.804  -2.643  1.00  0.00    -0.336 N 
HETATM   59  H6  UNL     1      -3.279  13.371  -3.325  1.00  0.00     0.168 HD
BRANCH  53  60
HETATM   60  N7  UNL     1      -5.761  10.346   0.152  1.00  0.00    -0.287 NA
HETATM   61  H33 UNL     1      -6.778  10.369   0.118  1.00  0.00     0.125 HD
HETATM   62  H34 UNL     1      -5.335  10.371   1.068  1.00  0.00     0.125 HD
ENDBRANCH  53  60
ENDBRANCH  37  48
ENDBRANCH  33  34
ENDBRANCH  32  33
ENDBRANCH  28  32
ENDBRANCH  27  28
ENDBRANCH  23  27
ENDBRANCH  22  23
ENDBRANCH  21  22
ENDBRANCH  18  21
ENDBRANCH  17  18
BRANCH  17  63
HETATM   63  O17 UNL     1       1.657  18.512  -6.844  1.00  0.00    -0.385 OA
HETATM   64  H38 UNL     1       1.302  18.292  -5.966  1.00  0.00     0.210 HD
ENDBRANCH  17  63
ENDBRANCH  14  17
ENDBRANCH  12  13
ENDBRANCH  11  12
ENDBRANCH   8  11
ENDBRANCH   6   7
ENDBRANCH   5   6
ENDBRANCH   4   5
ENDBRANCH   2   4
TORSDOF 27
ENDMDL
MODEL 2
REMARK VINA RESULT:      -5.2      6.071     10.095
REMARK  27 active torsions:
REMARK  status: ('A' for Active; 'I' for Inactive)
REMARK    1  A    between atoms: C2_2  and  S1_4 
REMARK    2  A    between atoms: S1_4  and  C3_5 
REMARK    3  A    between atoms: C3_5  and  C4_6 
REMARK    4  A    between atoms: C4_6  and  N1_7 
REMARK       I    between atoms: N1_7  and  C5_8 
REMARK    5  A    between atoms: C5_8  and  C6_10 
REMARK    6  A    between atoms: C6_10  and  C7_11 
REMARK    7  A    between atoms: C7_11  and  N2_12 
REMARK       I    between atoms: N2_12  and  C8_13 
REMARK    8  A    between atoms: C8_13  and  C9_15 
REMARK    9  A    between atoms: C9_15  and  C10_16 
REMARK   10  A    between atoms: C9_15  and  O17_54 
REMARK   11  A    between atoms: C10_16  and  C13_19 
REMARK   12  A    between atoms: C13_19  and  O4_20 
REMARK   13  A    between atoms: O4_20  and  P1_21 
REMARK   14  A    between atoms: P1_21  and  O6_23 
REMARK   15  A    between atoms: P1_21  and  O7_24 
REMARK   16  A    between atoms: O7_24  and  P2_25 
REMARK   17  A    between atoms: P2_25  and  O9_27 
REMARK   18  A    between atoms: P2_25  and  O10_28 
REMARK   19  A    between atoms: O10_28  and  C14_29 
REMARK   20  A    between atoms: C14_29  and  C15_30 
REMARK   21  A    between atoms: C16_31  and  O13_49 
REMARK   22  A    between atoms: C17_32  and  O12_48 
REMARK   23  A    between atoms: C18_33  and  N3_35 
REMARK   24  A    between atoms: C21_40  and  N7_47 
REMARK   25  A    between atoms: O13_49  and  P3_50 
REMARK   26  A    between atoms: P3_50  and  O15_52 
REMARK   27  A    between atoms: P3_50  and  O16_53 
ROOT
HETATM    1  C1  UNL     1       2.085  21.840   2.537  1.00  0.00     0.104 C 
HETATM    2  C2  UNL     1       2.284  20.397   2.889  1.00  0.00     0.182 C 
HETATM    3  O1  UNL     1       1.577  19.493   2.452  1.00  0.00    -0.286 OA
ENDROOT
BRANCH   2   4
HETATM    4  S1  UNL     1       3.598  20.102   4.019  1.00  0.00    -0.091 SA
BRANCH   4   5
HETATM    5  C3  UNL     1       4.837  19.382   2.893  1.00  0.00     0.102 C 
BRANCH   5   6
HETATM    6  C4  UNL     1       4.812  17.852   2.921  1.00  0.00     0.133 C 
BRANCH   6   7
HETATM    7  N1  UNL     1       4.145  17.283   1.767  1.00  0.00    -0.360 N 
HETATM    8  C5  UNL     1       3.052  16.458   1.897  1.00  0.00     0.219 C 
HETATM    9  O2  UNL     1       2.628  16.092   2.986  1.00  0.00    -0.274 OA
HETATM   10  H8  UNL     1       4.493  17.508   0.845  1.00  0.00     0.162 HD
BRANCH   8  11
HETATM   11  C6  UNL     1       2.473  16.018   0.570  1.00  0.00     0.122 C 
BRANCH  11  12
HETATM   12  C7  UNL     1       1.222  16.814   0.200  1.00  0.00     0.132 C 
BRANCH  12  13
HETATM   13  N2  UNL     1       0.383  17.114   1.341  1.00  0.00    -0.358 N 
HETATM   14  C8  UNL     1      -0.969  17.348   1.169  1.00  0.00     0.247 C 
HETATM   15  O3  UNL     1      -1.480  17.429   0.059  1.00  0.00    -0.271 OA
HETATM   16  H13 UNL     1       0.674  16.695   2.222  1.00  0.00     0.162 HD
BRANCH  14  17
HETATM   17  C9  UNL     1      -1.772  17.476   2.472  1.00  0.00     0.219 C 
BRANCH  17  18
HETATM   18  C10 UNL     1      -2.190  16.123   3.106  1.00  0.00     0.009 C 
HETATM   19  C11 UNL     1      -2.074  14.959   2.112  1.00  0.00     0.020 C 
HETATM   20  C12 UNL     1      -1.325  15.785   4.337  1.00  0.00     0.020 C 
BRANCH  18  21
HETATM   21  C13 UNL     1      -3.674  16.295   3.539  1.00  0.00     0.192 C 
BRANCH  21  22
HETATM   22  O4  UNL     1      -4.445  15.137   3.289  1.00  0.00    -0.296 OA
BRANCH  22  23
HETATM   23  P1  UNL     1      -5.867  15.181   2.549  1.00  0.00     0.401 P 
HETATM   24  O5  UNL     1      -6.849  16.127   3.165  1.00  0.00    -0.631 OA
BRANCH  23  25
HETATM   25  O6  UNL     1      -6.393  13.662   2.463  1.00  0.00    -0.307 OA
HETATM   26  H23 UNL     1      -5.702  13.027   2.689  1.00  0.00     0.222 HD
ENDBRANCH  23  25
BRANCH  23  27
HETATM   27  O7  UNL     1      -5.526  15.477   1.023  1.00  0.00    -0.195 OA
BRANCH  27  28
HETATM   28  P2  UNL     1      -6.722  15.596  -0.023  1.00  0.00     0.401 P 
HETATM   29  O8  UNL     1      -7.606  14.401  -0.179  1.00  0.00    -0.631 OA
BRANCH  28  30
HETATM   30  O9  UNL     1      -7.488  16.917   0.443  1.00  0.00    -0.307 OA
HETATM   31  H24 UNL     1      -7.425  17.667  -0.197  1.00  0.00     0.222 HD
ENDBRANCH  28  30
BRANCH  28  32
HETATM   32  O10 UNL     1      -6.017  16.120  -1.357  1.00  0.00    -0.294 OA
BRANCH  32  33
HETATM   33  C14 UNL     1      -4.746  15.643  -1.714  1.00  0.00     0.215 C 
BRANCH  33  34
HETATM   34  C15 UNL     1      -4.982  14.399  -2.569  1.00  0.00     0.180 C 
HETATM   35  C16 UNL     1      -4.270  13.205  -1.948  1.00  0.00     0.197 C 
HETATM   36  C17 UNL     1      -3.254  12.779  -2.990  1.00  0.00     0.199 C 
HETATM   37  C18 UNL     1      -3.885  13.292  -4.286  1.00  0.00     0.262 C 
HETATM   38  O11 UNL     1      -4.502  14.544  -3.910  1.00  0.00    -0.353 OA
BRANCH  35  39
HETATM   39  O13 UNL     1      -5.241  12.193  -1.700  1.00  0.00    -0.286 OA
BRANCH  39  40
HETATM   40  P3  UNL     1      -5.179  11.519  -0.251  1.00  0.00     0.391 P 
HETATM   41  O14 UNL     1      -4.608  10.138  -0.254  1.00  0.00    -0.632 OA
BRANCH  40  42
HETATM   42  O15 UNL     1      -6.696  11.692   0.225  1.00  0.00    -0.307 OA
HETATM   43  H36 UNL     1      -6.743  12.231   1.050  1.00  0.00     0.222 HD
ENDBRANCH  40  42
BRANCH  40  44
HETATM   44  O16 UNL     1      -4.409  12.633   0.582  1.00  0.00    -0.307 OA
HETATM   45  H37 UNL     1      -4.514  13.522   0.208  1.00  0.00     0.222 HD
ENDBRANCH  40  44
ENDBRANCH  39  40
ENDBRANCH  35  39
BRANCH  36  46
HETATM   46  O12 UNL     1      -3.003  11.374  -2.893  1.00  0.00    -0.388 OA
HETATM   47  H35 UNL     1      -3.447  10.958  -3.671  1.00  0.00     0.210 HD
ENDBRANCH  36  46
BRANCH  37  48
HETATM   48  N3  UNL     1      -2.903  13.549  -5.320  1.00  0.00    -0.297 N 
HETATM   49  C19 UNL     1      -2.653  12.786  -6.437  1.00  0.00     0.188 A 
HETATM   50  N4  UNL     1      -1.787  13.356  -7.247  1.00  0.00    -0.346 N 
HETATM   51  C20 UNL     1      -1.463  14.549  -6.626  1.00  0.00     0.116 A 
HETATM   52  H4  UNL     1      -1.434  12.998  -8.134  1.00  0.00     0.167 HD
HETATM   53  C21 UNL     1      -0.630  15.620  -6.996  1.00  0.00     0.109 A 
HETATM   54  C23 UNL     1      -2.117  14.663  -5.413  1.00  0.00     0.142 A 
HETATM   55  N5  UNL     1      -0.508  16.670  -6.147  1.00  0.00    -0.341 N 
HETATM   56  C22 UNL     1      -1.189  16.634  -4.985  1.00  0.00     0.183 A 
HETATM   57  H5  UNL     1       0.084  17.467  -6.383  1.00  0.00     0.167 HD
HETATM   58  N6  UNL     1      -2.018  15.672  -4.529  1.00  0.00    -0.336 N 
HETATM   59  H6  UNL     1      -2.506  15.706  -3.634  1.00  0.00     0.168 HD
BRANCH  53  60
HETATM   60  N7  UNL     1       0.084  15.656  -8.183  1.00  0.00    -0.287 NA
HETATM   61  H33 UNL     1       0.385  14.743  -8.518  1.00  0.00     0.125 HD
HETATM   62  H34 UNL     1       0.768  16.399  -8.210  1.00  0.00     0.125 HD
ENDBRANCH  53  60
ENDBRANCH  37  48
ENDBRANCH  33  34
ENDBRANCH  32  33
ENDBRANCH  28  32
ENDBRANCH  27  28
ENDBRANCH  23  27
ENDBRANCH  22  23
ENDBRANCH  21  22
ENDBRANCH  18  21
ENDBRANCH  17  18
BRANCH  17  63
HETATM   63  O17 UNL     1      -1.024  18.220   3.441  1.00  0.00    -0.385 OA
HETATM   64  H38 UNL     1      -0.371  18.761   2.966  1.00  0.00     0.210 HD
ENDBRANCH  17  63
ENDBRANCH  14  17
ENDBRANCH  12  13
ENDBRANCH  11  12
ENDBRANCH   8  11
ENDBRANCH   6   7
ENDBRANCH   5   6
ENDBRANCH   4   5
ENDBRANCH   2   4
TORSDOF 27
ENDMDL
MODEL 3
REMARK VINA RESULT:      -5.1      5.353     10.275
REMARK  27 active torsions:
REMARK  status: ('A' for Active; 'I' for Inactive)
REMARK    1  A    between atoms: C2_2  and  S1_4 
REMARK    2  A    between atoms: S1_4  and  C3_5 
REMARK    3  A    between atoms: C3_5  and  C4_6 
REMARK    4  A    between atoms: C4_6  and  N1_7 
REMARK       I    between atoms: N1_7  and  C5_8 
REMARK    5  A    between atoms: C5_8  and  C6_10 
REMARK    6  A    between atoms: C6_10  and  C7_11 
REMARK    7  A    between atoms: C7_11  and  N2_12 
REMARK       I    between atoms: N2_12  and  C8_13 
REMARK    8  A    between atoms: C8_13  and  C9_15 
REMARK    9  A    between atoms: C9_15  and  C10_16 
REMARK   10  A    between atoms: C9_15  and  O17_54 
REMARK   11  A    between atoms: C10_16  and  C13_19 
REMARK   12  A    between atoms: C13_19  and  O4_20 
REMARK   13  A    between atoms: O4_20  and  P1_21 
REMARK   14  A    between atoms: P1_21  and  O6_23 
REMARK   15  A    between atoms: P1_21  and  O7_24 
REMARK   16  A    between atoms: O7_24  and  P2_25 
REMARK   17  A    between atoms: P2_25  and  O9_27 
REMARK   18  A    between atoms: P2_25  and  O10_28 
REMARK   19  A    between atoms: O10_28  and  C14_29 
REMARK   20  A    between atoms: C14_29  and  C15_30 
REMARK   21  A    between atoms: C16_31  and  O13_49 
REMARK   22  A    between atoms: C17_32  and  O12_48 
REMARK   23  A    between atoms: C18_33  and  N3_35 
REMARK   24  A    between atoms: C21_40  and  N7_47 
REMARK   25  A    between atoms: O13_49  and  P3_50 
REMARK   26  A    between atoms: P3_50  and  O15_52 
REMARK   27  A    between atoms: P3_50  and  O16_53 
ROOT
HETATM    1  C1  UNL     1       1.465  20.633   3.255  1.00  0.00     0.104 C 
HETATM    2  C2  UNL     1       1.874  19.416   2.484  1.00  0.00     0.182 C 
HETATM    3  O1  UNL     1       1.077  18.694   1.890  1.00  0.00    -0.286 OA
ENDROOT
BRANCH   2   4
HETATM    4  S1  UNL     1       3.599  19.075   2.529  1.00  0.00    -0.091 SA
BRANCH   4   5
HETATM    5  C3  UNL     1       3.573  17.258   2.398  1.00  0.00     0.102 C 
BRANCH   5   6
HETATM    6  C4  UNL     1       3.304  16.592   3.749  1.00  0.00     0.133 C 
BRANCH   6   7
HETATM    7  N1  UNL     1       1.950  16.093   3.868  1.00  0.00    -0.360 N 
HETATM    8  C5  UNL     1       1.032  16.682   4.706  1.00  0.00     0.219 C 
HETATM    9  O2  UNL     1       1.322  17.606   5.457  1.00  0.00    -0.274 OA
HETATM   10  H8  UNL     1       1.675  15.294   3.311  1.00  0.00     0.162 HD
BRANCH   8  11
HETATM   11  C6  UNL     1      -0.338  16.042   4.639  1.00  0.00     0.122 C 
BRANCH  11  12
HETATM   12  C7  UNL     1      -0.647  15.500   3.244  1.00  0.00     0.132 C 
BRANCH  12  13
HETATM   13  N2  UNL     1      -1.882  16.019   2.694  1.00  0.00    -0.358 N 
HETATM   14  C8  UNL     1      -2.797  15.164   2.107  1.00  0.00     0.247 C 
HETATM   15  O3  UNL     1      -2.555  13.977   1.924  1.00  0.00    -0.271 OA
HETATM   16  H13 UNL     1      -2.249  16.851   3.150  1.00  0.00     0.162 HD
BRANCH  14  17
HETATM   17  C9  UNL     1      -4.135  15.815   1.727  1.00  0.00     0.219 C 
BRANCH  17  18
HETATM   18  C10 UNL     1      -5.314  15.460   2.671  1.00  0.00     0.009 C 
HETATM   19  C11 UNL     1      -4.843  14.716   3.930  1.00  0.00     0.020 C 
HETATM   20  C12 UNL     1      -6.076  16.722   3.122  1.00  0.00     0.020 C 
BRANCH  18  21
HETATM   21  C13 UNL     1      -6.260  14.541   1.846  1.00  0.00     0.192 C 
BRANCH  21  22
HETATM   22  O4  UNL     1      -5.850  13.189   1.866  1.00  0.00    -0.296 OA
BRANCH  22  23
HETATM   23  P1  UNL     1      -5.575  12.342   0.532  1.00  0.00     0.401 P 
HETATM   24  O5  UNL     1      -6.299  11.034   0.478  1.00  0.00    -0.631 OA
BRANCH  23  25
HETATM   25  O6  UNL     1      -3.978  12.208   0.388  1.00  0.00    -0.307 OA
HETATM   26  H23 UNL     1      -3.615  11.546   0.991  1.00  0.00     0.222 HD
ENDBRANCH  23  25
BRANCH  23  27
HETATM   27  O7  UNL     1      -5.911  13.338  -0.663  1.00  0.00    -0.195 OA
BRANCH  27  28
HETATM   28  P2  UNL     1      -5.030  13.274  -1.989  1.00  0.00     0.401 P 
HETATM   29  O8  UNL     1      -4.464  11.942  -2.361  1.00  0.00    -0.631 OA
BRANCH  28  30
HETATM   30  O9  UNL     1      -5.989  13.906  -3.097  1.00  0.00    -0.307 OA
HETATM   31  H24 UNL     1      -5.765  13.643  -4.023  1.00  0.00     0.222 HD
ENDBRANCH  28  30
BRANCH  28  32
HETATM   32  O10 UNL     1      -3.972  14.456  -1.807  1.00  0.00    -0.294 OA
BRANCH  32  33
HETATM   33  C14 UNL     1      -3.947  15.523  -2.718  1.00  0.00     0.215 C 
BRANCH  33  34
HETATM   34  C15 UNL     1      -2.473  15.829  -2.978  1.00  0.00     0.180 C 
HETATM   35  C16 UNL     1      -2.268  17.335  -3.068  1.00  0.00     0.197 C 
HETATM   36  C17 UNL     1      -1.764  17.571  -4.479  1.00  0.00     0.199 C 
HETATM   37  C18 UNL     1      -1.126  16.223  -4.824  1.00  0.00     0.262 C 
HETATM   38  O11 UNL     1      -1.988  15.249  -4.195  1.00  0.00    -0.353 OA
BRANCH  35  39
HETATM   39  O13 UNL     1      -1.307  17.708  -2.086  1.00  0.00    -0.286 OA
BRANCH  39  40
HETATM   40  P3  UNL     1      -1.867  18.582  -0.870  1.00  0.00     0.391 P 
HETATM   41  O14 UNL     1      -3.344  18.806  -0.920  1.00  0.00    -0.632 OA
BRANCH  40  42
HETATM   42  O15 UNL     1      -0.919  19.868  -0.963  1.00  0.00    -0.307 OA
HETATM   43  H36 UNL     1       0.010  19.633  -0.730  1.00  0.00     0.222 HD
ENDBRANCH  40  42
BRANCH  40  44
HETATM   44  O16 UNL     1      -1.284  17.793   0.381  1.00  0.00    -0.307 OA
HETATM   45  H37 UNL     1      -0.978  18.382   1.089  1.00  0.00     0.222 HD
ENDBRANCH  40  44
ENDBRANCH  39  40
ENDBRANCH  35  39
BRANCH  36  46
HETATM   46  O12 UNL     1      -0.922  18.726  -4.519  1.00  0.00    -0.388 OA
HETATM   47  H35 UNL     1      -1.485  19.471  -4.837  1.00  0.00     0.210 HD
ENDBRANCH  36  46
BRANCH  37  48
HETATM   48  N3  UNL     1      -1.099  15.969  -6.250  1.00  0.00    -0.297 N 
HETATM   49  C19 UNL     1      -2.019  15.258  -6.986  1.00  0.00     0.188 A 
HETATM   50  N4  UNL     1      -1.777  15.317  -8.277  1.00  0.00    -0.346 N 
HETATM   51  C20 UNL     1      -0.648  16.110  -8.385  1.00  0.00     0.116 A 
HETATM   52  H4  UNL     1      -2.304  14.877  -9.031  1.00  0.00     0.167 HD
HETATM   53  C21 UNL     1       0.082  16.583  -9.489  1.00  0.00     0.109 A 
HETATM   54  C23 UNL     1      -0.195  16.488  -7.135  1.00  0.00     0.142 A 
HETATM   55  N5  UNL     1       1.176  17.351  -9.263  1.00  0.00    -0.341 N 
HETATM   56  C22 UNL     1       1.513  17.620  -7.987  1.00  0.00     0.183 A 
HETATM   57  H5  UNL     1       1.728  17.715 -10.039  1.00  0.00     0.167 HD
HETATM   58  N6  UNL     1       0.890  17.232  -6.855  1.00  0.00    -0.336 N 
HETATM   59  H6  UNL     1       1.199  17.472  -5.913  1.00  0.00     0.168 HD
BRANCH  53  60
HETATM   60  N7  UNL     1      -0.253  16.296 -10.803  1.00  0.00    -0.287 NA
HETATM   61  H33 UNL     1      -0.341  15.303 -11.006  1.00  0.00     0.125 HD
HETATM   62  H34 UNL     1       0.262  16.854 -11.472  1.00  0.00     0.125 HD
ENDBRANCH  53  60
ENDBRANCH  37  48
ENDBRANCH  33  34
ENDBRANCH  32  33
ENDBRANCH  28  32
ENDBRANCH  27  28
ENDBRANCH  23  27
ENDBRANCH  22  23
ENDBRANCH  21  22
ENDBRANCH  18  21
ENDBRANCH  17  18
BRANCH  17  63
HETATM   63  O17 UNL     1      -3.997  17.239   1.689  1.00  0.00    -0.385 OA
HETATM   64  H38 UNL     1      -4.077  17.525   0.763  1.00  0.00     0.210 HD
ENDBRANCH  17  63
ENDBRANCH  14  17
ENDBRANCH  12  13
ENDBRANCH  11  12
ENDBRANCH   8  11
ENDBRANCH   6   7
ENDBRANCH   5   6
ENDBRANCH   4   5
ENDBRANCH   2   4
TORSDOF 27
ENDMDL
MODEL 4
REMARK VINA RESULT:      -5.0      3.503      8.009
REMARK  27 active torsions:
REMARK  status: ('A' for Active; 'I' for Inactive)
REMARK    1  A    between atoms: C2_2  and  S1_4 
REMARK    2  A    between atoms: S1_4  and  C3_5 
REMARK    3  A    between atoms: C3_5  and  C4_6 
REMARK    4  A    between atoms: C4_6  and  N1_7 
REMARK       I    between atoms: N1_7  and  C5_8 
REMARK    5  A    between atoms: C5_8  and  C6_10 
REMARK    6  A    between atoms: C6_10  and  C7_11 
REMARK    7  A    between atoms: C7_11  and  N2_12 
REMARK       I    between atoms: N2_12  and  C8_13 
REMARK    8  A    between atoms: C8_13  and  C9_15 
REMARK    9  A    between atoms: C9_15  and  C10_16 
REMARK   10  A    between atoms: C9_15  and  O17_54 
REMARK   11  A    between atoms: C10_16  and  C13_19 
REMARK   12  A    between atoms: C13_19  and  O4_20 
REMARK   13  A    between atoms: O4_20  and  P1_21 
REMARK   14  A    between atoms: P1_21  and  O6_23 
REMARK   15  A    between atoms: P1_21  and  O7_24 
REMARK   16  A    between atoms: O7_24  and  P2_25 
REMARK   17  A    between atoms: P2_25  and  O9_27 
REMARK   18  A    between atoms: P2_25  and  O10_28 
REMARK   19  A    between atoms: O10_28  and  C14_29 
REMARK   20  A    between atoms: C14_29  and  C15_30 
REMARK   21  A    between atoms: C16_31  and  O13_49 
REMARK   22  A    between atoms: C17_32  and  O12_48 
REMARK   23  A    between atoms: C18_33  and  N3_35 
REMARK   24  A    between atoms: C21_40  and  N7_47 
REMARK   25  A    between atoms: O13_49  and  P3_50 
REMARK   26  A    between atoms: P3_50  and  O15_52 
REMARK   27  A    between atoms: P3_50  and  O16_53 
ROOT
HETATM    1  C1  UNL     1      -6.871  21.051  -1.334  1.00  0.00     0.104 C 
HETATM    2  C2  UNL     1      -7.024  19.566  -1.202  1.00  0.00     0.182 C 
HETATM    3  O1  UNL     1      -6.634  18.933  -0.224  1.00  0.00    -0.286 OA
ENDROOT
BRANCH   2   4
HETATM    4  S1  UNL     1      -7.777  18.788  -2.587  1.00  0.00    -0.091 SA
BRANCH   4   5
HETATM    5  C3  UNL     1      -7.390  17.044  -2.229  1.00  0.00     0.102 C 
BRANCH   5   6
HETATM    6  C4  UNL     1      -8.621  16.147  -2.366  1.00  0.00     0.133 C 
BRANCH   6   7
HETATM    7  N1  UNL     1      -8.708  15.151  -1.317  1.00  0.00    -0.360 N 
HETATM    8  C5  UNL     1      -8.158  13.898  -1.462  1.00  0.00     0.219 C 
HETATM    9  O2  UNL     1      -7.638  13.522  -2.505  1.00  0.00    -0.274 OA
HETATM   10  H8  UNL     1      -9.179  15.392  -0.456  1.00  0.00     0.162 HD
BRANCH   8  11
HETATM   11  C6  UNL     1      -8.311  13.032  -0.230  1.00  0.00     0.122 C 
BRANCH  11  12
HETATM   12  C7  UNL     1      -8.073  13.822   1.056  1.00  0.00     0.132 C 
BRANCH  12  13
HETATM   13  N2  UNL     1      -6.733  14.363   1.151  1.00  0.00    -0.358 N 
HETATM   14  C8  UNL     1      -5.726  13.629   1.748  1.00  0.00     0.247 C 
HETATM   15  O3  UNL     1      -5.943  12.566   2.317  1.00  0.00    -0.271 OA
HETATM   16  H13 UNL     1      -6.465  15.000   0.404  1.00  0.00     0.162 HD
BRANCH  14  17
HETATM   17  C9  UNL     1      -4.322  14.240   1.624  1.00  0.00     0.219 C 
BRANCH  17  18
HETATM   18  C10 UNL     1      -3.920  15.172   2.797  1.00  0.00     0.009 C 
HETATM   19  C11 UNL     1      -4.705  14.859   4.079  1.00  0.00     0.020 C 
HETATM   20  C12 UNL     1      -2.417  15.058   3.120  1.00  0.00     0.020 C 
BRANCH  18  21
HETATM   21  C13 UNL     1      -4.247  16.618   2.325  1.00  0.00     0.192 C 
BRANCH  21  22
HETATM   22  O4  UNL     1      -4.346  16.715   0.918  1.00  0.00    -0.296 OA
BRANCH  22  23
HETATM   23  P1  UNL     1      -3.253  17.469   0.019  1.00  0.00     0.401 P 
HETATM   24  O5  UNL     1      -1.841  17.255   0.464  1.00  0.00    -0.631 OA
BRANCH  23  25
HETATM   25  O6  UNL     1      -3.687  19.018  -0.041  1.00  0.00    -0.307 OA
HETATM   26  H23 UNL     1      -4.630  19.136   0.134  1.00  0.00     0.222 HD
ENDBRANCH  23  25
BRANCH  23  27
HETATM   27  O7  UNL     1      -3.557  17.005  -1.472  1.00  0.00    -0.195 OA
BRANCH  27  28
HETATM   28  P2  UNL     1      -3.133  17.958  -2.677  1.00  0.00     0.401 P 
HETATM   29  O8  UNL     1      -4.055  19.087  -3.004  1.00  0.00    -0.631 OA
BRANCH  28  30
HETATM   30  O9  UNL     1      -1.657  18.417  -2.278  1.00  0.00    -0.307 OA
HETATM   31  H24 UNL     1      -1.628  19.176  -1.645  1.00  0.00     0.222 HD
ENDBRANCH  28  30
BRANCH  28  32
HETATM   32  O10 UNL     1      -2.814  16.949  -3.873  1.00  0.00    -0.294 OA
BRANCH  32  33
HETATM   33  C14 UNL     1      -2.082  17.389  -4.987  1.00  0.00     0.215 C 
BRANCH  33  34
HETATM   34  C15 UNL     1      -1.226  16.204  -5.431  1.00  0.00     0.180 C 
HETATM   35  C16 UNL     1      -1.706  15.702  -6.786  1.00  0.00     0.197 C 
HETATM   36  C17 UNL     1      -2.164  14.279  -6.529  1.00  0.00     0.199 C 
HETATM   37  C18 UNL     1      -1.338  13.892  -5.299  1.00  0.00     0.262 C 
HETATM   38  O11 UNL     1      -1.277  15.104  -4.516  1.00  0.00    -0.353 OA
BRANCH  35  39
HETATM   39  O13 UNL     1      -0.608  15.757  -7.691  1.00  0.00    -0.286 OA
BRANCH  39  40
HETATM   40  P3  UNL     1      -0.787  16.750  -8.932  1.00  0.00     0.391 P 
HETATM   41  O14 UNL     1       0.028  17.999  -8.826  1.00  0.00    -0.632 OA
BRANCH  40  42
HETATM   42  O15 UNL     1      -2.379  16.905  -8.964  1.00  0.00    -0.307 OA
HETATM   43  H36 UNL     1      -2.801  16.301  -8.308  1.00  0.00     0.222 HD
ENDBRANCH  40  42
BRANCH  40  44
HETATM   44  O16 UNL     1      -0.493  15.780 -10.157  1.00  0.00    -0.307 OA
HETATM   45  H37 UNL     1      -0.734  16.170 -11.012  1.00  0.00     0.222 HD
ENDBRANCH  40  44
ENDBRANCH  39  40
ENDBRANCH  35  39
BRANCH  36  46
HETATM   46  O12 UNL     1      -1.999  13.484  -7.706  1.00  0.00    -0.388 OA
HETATM   47  H35 UNL     1      -1.181  13.811  -8.151  1.00  0.00     0.210 HD
ENDBRANCH  36  46
BRANCH  37  48
HETATM   48  N3  UNL     1      -1.972  12.856  -4.507  1.00  0.00    -0.297 N 
HETATM   49  C19 UNL     1      -1.659  11.517  -4.487  1.00  0.00     0.188 A 
HETATM   50  N4  UNL     1      -2.333  10.862  -3.568  1.00  0.00    -0.346 N 
HETATM   51  C20 UNL     1      -3.119  11.824  -2.959  1.00  0.00     0.116 A 
HETATM   52  H4  UNL     1      -2.288   9.866  -3.351  1.00  0.00     0.167 HD
HETATM   53  C21 UNL     1      -4.025  11.775  -1.885  1.00  0.00     0.109 A 
HETATM   54  C23 UNL     1      -2.934  13.057  -3.557  1.00  0.00     0.142 A 
HETATM   55  N5  UNL     1      -4.663  12.915  -1.521  1.00  0.00    -0.341 N 
HETATM   56  C22 UNL     1      -4.400  14.042  -2.213  1.00  0.00     0.183 A 
HETATM   57  H5  UNL     1      -5.324  12.919  -0.745  1.00  0.00     0.167 HD
HETATM   58  N6  UNL     1      -3.551  14.211  -3.247  1.00  0.00    -0.336 N 
HETATM   59  H6  UNL     1      -3.398  15.096  -3.730  1.00  0.00     0.168 HD
BRANCH  53  60
HETATM   60  N7  UNL     1      -4.310  10.617  -1.180  1.00  0.00    -0.287 NA
HETATM   61  H33 UNL     1      -5.043  10.045  -1.593  1.00  0.00     0.125 HD
HETATM   62  H34 UNL     1      -4.355  10.764  -0.180  1.00  0.00     0.125 HD
ENDBRANCH  53  60
ENDBRANCH  37  48
ENDBRANCH  33  34
ENDBRANCH  32  33
ENDBRANCH  28  32
ENDBRANCH  27  28
ENDBRANCH  23  27
ENDBRANCH  22  23
ENDBRANCH  21  22
ENDBRANCH  18  21
ENDBRANCH  17  18
BRANCH  17  63
HETATM   63  O17 UNL     1      -3.341  13.203   1.510  1.00  0.00    -0.385 OA
HETATM   64  H38 UNL     1      -3.796  12.384   1.255  1.00  0.00     0.210 HD
ENDBRANCH  17  63
ENDBRANCH  14  17
ENDBRANCH  12  13
ENDBRANCH  11  12
ENDBRANCH   8  11
ENDBRANCH   6   7
ENDBRANCH   5   6
ENDBRANCH   4   5
ENDBRANCH   2   4
TORSDOF 27
ENDMDL
MODEL 5
REMARK VINA RESULT:      -4.8      5.424      7.146
REMARK  27 active torsions:
REMARK  status: ('A' for Active; 'I' for Inactive)
REMARK    1  A    between atoms: C2_2  and  S1_4 
REMARK    2  A    between atoms: S1_4  and  C3_5 
REMARK    3  A    between atoms: C3_5  and  C4_6 
REMARK    4  A    between atoms: C4_6  and  N1_7 
REMARK       I    between atoms: N1_7  and  C5_8 
REMARK    5  A    between atoms: C5_8  and  C6_10 
REMARK    6  A    between atoms: C6_10  and  C7_11 
REMARK    7  A    between atoms: C7_11  and  N2_12 
REMARK       I    between atoms: N2_12  and  C8_13 
REMARK    8  A    between atoms: C8_13  and  C9_15 
REMARK    9  A    between atoms: C9_15  and  C10_16 
REMARK   10  A    between atoms: C9_15  and  O17_54 
REMARK   11  A    between atoms: C10_16  and  C13_19 
REMARK   12  A    between atoms: C13_19  and  O4_20 
REMARK   13  A    between atoms: O4_20  and  P1_21 
REMARK   14  A    between atoms: P1_21  and  O6_23 
REMARK   15  A    between atoms: P1_21  and  O7_24 
REMARK   16  A    between atoms: O7_24  and  P2_25 
REMARK   17  A    between atoms: P2_25  and  O9_27 
REMARK   18  A    between atoms: P2_25  and  O10_28 
REMARK   19  A    between atoms: O10_28  and  C14_29 
REMARK   20  A    between atoms: C14_29  and  C15_30 
REMARK   21  A    between atoms: C16_31  and  O13_49 
REMARK   22  A    between atoms: C17_32  and  O12_48 
REMARK   23  A    between atoms: C18_33  and  N3_35 
REMARK   24  A    between atoms: C21_40  and  N7_47 
REMARK   25  A    between atoms: O13_49  and  P3_50 
REMARK   26  A    between atoms: P3_50  and  O15_52 
REMARK   27  A    between atoms: P3_50  and  O16_53 
ROOT
HETATM    1  C1  UNL     1      -3.511  21.639  -0.310  1.00  0.00     0.104 C 
HETATM    2  C2  UNL     1      -4.780  20.885  -0.048  1.00  0.00     0.182 C 
HETATM    3  O1  UNL     1      -4.824  19.846   0.606  1.00  0.00    -0.286 OA
ENDROOT
BRANCH   2   4
HETATM    4  S1  UNL     1      -6.208  21.591  -0.792  1.00  0.00    -0.091 SA
BRANCH   4   5
HETATM    5  C3  UNL     1      -5.995  21.021  -2.509  1.00  0.00     0.102 C 
BRANCH   5   6
HETATM    6  C4  UNL     1      -6.516  19.595  -2.705  1.00  0.00     0.133 C 
BRANCH   6   7
HETATM    7  N1  UNL     1      -6.224  19.069  -4.022  1.00  0.00    -0.360 N 
HETATM    8  C5  UNL     1      -5.913  17.744  -4.220  1.00  0.00     0.219 C 
HETATM    9  O2  UNL     1      -5.786  16.951  -3.295  1.00  0.00    -0.274 OA
HETATM   10  H8  UNL     1      -6.257  19.696  -4.815  1.00  0.00     0.162 HD
BRANCH   8  11
HETATM   11  C6  UNL     1      -5.697  17.390  -5.676  1.00  0.00     0.122 C 
BRANCH  11  12
HETATM   12  C7  UNL     1      -4.216  17.215  -6.007  1.00  0.00     0.132 C 
BRANCH  12  13
HETATM   13  N2  UNL     1      -3.582  16.164  -5.240  1.00  0.00    -0.358 N 
HETATM   14  C8  UNL     1      -2.285  15.779  -5.523  1.00  0.00     0.247 C 
HETATM   15  O3  UNL     1      -1.672  16.216  -6.489  1.00  0.00    -0.271 OA
HETATM   16  H13 UNL     1      -3.893  16.079  -4.274  1.00  0.00     0.162 HD
BRANCH  14  17
HETATM   17  C9  UNL     1      -1.675  14.783  -4.525  1.00  0.00     0.219 C 
BRANCH  17  18
HETATM   18  C10 UNL     1      -1.766  13.298  -4.962  1.00  0.00     0.009 C 
HETATM   19  C11 UNL     1      -2.466  13.136  -6.320  1.00  0.00     0.020 C 
HETATM   20  C12 UNL     1      -0.369  12.653  -5.068  1.00  0.00     0.020 C 
BRANCH  18  21
HETATM   21  C13 UNL     1      -2.594  12.578  -3.859  1.00  0.00     0.192 C 
BRANCH  21  22
HETATM   22  O4  UNL     1      -3.205  13.487  -2.966  1.00  0.00    -0.296 OA
BRANCH  22  23
HETATM   23  P1  UNL     1      -4.748  13.385  -2.540  1.00  0.00     0.401 P 
HETATM   24  O5  UNL     1      -5.173  12.018  -2.104  1.00  0.00    -0.631 OA
BRANCH  23  25
HETATM   25  O6  UNL     1      -5.609  13.973  -3.766  1.00  0.00    -0.307 OA
HETATM   26  H23 UNL     1      -5.419  13.514  -4.594  1.00  0.00     0.222 HD
ENDBRANCH  23  25
BRANCH  23  27
HETATM   27  O7  UNL     1      -4.948  14.523  -1.447  1.00  0.00    -0.195 OA
BRANCH  27  28
HETATM   28  P2  UNL     1      -4.596  14.202   0.073  1.00  0.00     0.401 P 
HETATM   29  O8  UNL     1      -5.746  14.031   1.012  1.00  0.00    -0.631 OA
BRANCH  28  30
HETATM   30  O9  UNL     1      -3.646  12.923  -0.033  1.00  0.00    -0.307 OA
HETATM   31  H24 UNL     1      -2.878  12.938   0.590  1.00  0.00     0.222 HD
ENDBRANCH  28  30
BRANCH  28  32
HETATM   32  O10 UNL     1      -3.533  15.326   0.470  1.00  0.00    -0.294 OA
BRANCH  32  33
HETATM   33  C14 UNL     1      -3.798  16.197   1.538  1.00  0.00     0.215 C 
BRANCH  33  34
HETATM   34  C15 UNL     1      -2.763  17.317   1.441  1.00  0.00     0.180 C 
HETATM   35  C16 UNL     1      -1.912  17.127   0.192  1.00  0.00     0.197 C 
HETATM   36  C17 UNL     1      -0.503  16.923   0.714  1.00  0.00     0.199 C 
HETATM   37  C18 UNL     1      -0.553  17.638   2.067  1.00  0.00     0.262 C 
HETATM   38  O11 UNL     1      -1.879  17.360   2.568  1.00  0.00    -0.353 OA
BRANCH  35  39
HETATM   39  O13 UNL     1      -2.026  18.303  -0.602  1.00  0.00    -0.286 OA
BRANCH  39  40
HETATM   40  P3  UNL     1      -2.353  18.061  -2.149  1.00  0.00     0.391 P 
HETATM   41  O14 UNL     1      -3.093  19.188  -2.792  1.00  0.00    -0.632 OA
BRANCH  40  42
HETATM   42  O15 UNL     1      -3.082  16.638  -2.082  1.00  0.00    -0.307 OA
HETATM   43  H36 UNL     1      -3.655  16.577  -1.281  1.00  0.00     0.222 HD
ENDBRANCH  40  42
BRANCH  40  44
HETATM   44  O16 UNL     1      -0.913  17.703  -2.722  1.00  0.00    -0.307 OA
HETATM   45  H37 UNL     1      -0.264  18.409  -2.577  1.00  0.00     0.222 HD
ENDBRANCH  40  44
ENDBRANCH  39  40
ENDBRANCH  35  39
BRANCH  36  46
HETATM   46  O12 UNL     1       0.452  17.392  -0.241  1.00  0.00    -0.388 OA
HETATM   47  H35 UNL     1       1.026  18.040   0.234  1.00  0.00     0.210 HD
ENDBRANCH  36  46
BRANCH  37  48
HETATM   48  N3  UNL     1       0.419  17.118   3.007  1.00  0.00    -0.297 N 
HETATM   49  C19 UNL     1       0.295  15.999   3.798  1.00  0.00     0.188 A 
HETATM   50  N4  UNL     1       1.404  15.723   4.449  1.00  0.00    -0.346 N 
HETATM   51  C20 UNL     1       2.293  16.709   4.057  1.00  0.00     0.116 A 
HETATM   52  H4  UNL     1       1.572  14.954   5.097  1.00  0.00     0.167 HD
HETATM   53  C21 UNL     1       3.645  16.948   4.360  1.00  0.00     0.109 A 
HETATM   54  C23 UNL     1       1.684  17.602   3.195  1.00  0.00     0.142 A 
HETATM   55  N5  UNL     1       4.251  18.030   3.813  1.00  0.00    -0.341 N 
HETATM   56  C22 UNL     1       3.524  18.829   3.007  1.00  0.00     0.183 A 
HETATM   57  H5  UNL     1       5.231  18.234   4.007  1.00  0.00     0.167 HD
HETATM   58  N6  UNL     1       2.233  18.697   2.639  1.00  0.00    -0.336 N 
HETATM   59  H6  UNL     1       1.739  19.341   2.021  1.00  0.00     0.168 HD
BRANCH  53  60
HETATM   60  N7  UNL     1       4.392  16.139   5.201  1.00  0.00    -0.287 NA
HETATM   61  H33 UNL     1       4.089  15.167   5.225  1.00  0.00     0.125 HD
HETATM   62  H34 UNL     1       4.596  16.574   6.090  1.00  0.00     0.125 HD
ENDBRANCH  53  60
ENDBRANCH  37  48
ENDBRANCH  33  34
ENDBRANCH  32  33
ENDBRANCH  28  32
ENDBRANCH  27  28
ENDBRANCH  23  27
ENDBRANCH  22  23
ENDBRANCH  21  22
ENDBRANCH  18  21
ENDBRANCH  17  18
BRANCH  17  63
HETATM   63  O17 UNL     1      -0.300  15.104  -4.287  1.00  0.00    -0.385 OA
HETATM   64  H38 UNL     1      -0.171  15.183  -3.327  1.00  0.00     0.210 HD
ENDBRANCH  17  63
ENDBRANCH  14  17
ENDBRANCH  12  13
ENDBRANCH  11  12
ENDBRANCH   8  11
ENDBRANCH   6   7
ENDBRANCH   5   6
ENDBRANCH   4   5
ENDBRANCH   2   4
TORSDOF 27
ENDMDL
MODEL 6
REMARK VINA RESULT:      -4.7      5.331      7.291
REMARK  27 active torsions:
REMARK  status: ('A' for Active; 'I' for Inactive)
REMARK    1  A    between atoms: C2_2  and  S1_4 
REMARK    2  A    between atoms: S1_4  and  C3_5 
REMARK    3  A    between atoms: C3_5  and  C4_6 
REMARK    4  A    between atoms: C4_6  and  N1_7 
REMARK       I    between atoms: N1_7  and  C5_8 
REMARK    5  A    between atoms: C5_8  and  C6_10 
REMARK    6  A    between atoms: C6_10  and  C7_11 
REMARK    7  A    between atoms: C7_11  and  N2_12 
REMARK       I    between atoms: N2_12  and  C8_13 
REMARK    8  A    between atoms: C8_13  and  C9_15 
REMARK    9  A    between atoms: C9_15  and  C10_16 
REMARK   10  A    between atoms: C9_15  and  O17_54 
REMARK   11  A    between atoms: C10_16  and  C13_19 
REMARK   12  A    between atoms: C13_19  and  O4_20 
REMARK   13  A    between atoms: O4_20  and  P1_21 
REMARK   14  A    between atoms: P1_21  and  O6_23 
REMARK   15  A    between atoms: P1_21  and  O7_24 
REMARK   16  A    between atoms: O7_24  and  P2_25 
REMARK   17  A    between atoms: P2_25  and  O9_27 
REMARK   18  A    between atoms: P2_25  and  O10_28 
REMARK   19  A    between atoms: O10_28  and  C14_29 
REMARK   20  A    between atoms: C14_29  and  C15_30 
REMARK   21  A    between atoms: C16_31  and  O13_49 
REMARK   22  A    between atoms: C17_32  and  O12_48 
REMARK   23  A    between atoms: C18_33  and  N3_35 
REMARK   24  A    between atoms: C21_40  and  N7_47 
REMARK   25  A    between atoms: O13_49  and  P3_50 
REMARK   26  A    between atoms: P3_50  and  O15_52 
REMARK   27  A    between atoms: P3_50  and  O16_53 
ROOT
HETATM    1  C1  UNL     1      -3.177  21.279   1.903  1.00  0.00     0.104 C 
HETATM    2  C2  UNL     1      -2.631  21.122   0.516  1.00  0.00     0.182 C 
HETATM    3  O1  UNL     1      -3.141  21.644  -0.472  1.00  0.00    -0.286 OA
ENDROOT
BRANCH   2   4
HETATM    4  S1  UNL     1      -1.213  20.088   0.408  1.00  0.00    -0.091 SA
BRANCH   4   5
HETATM    5  C3  UNL     1      -1.115  19.861  -1.397  1.00  0.00     0.102 C 
BRANCH   5   6
HETATM    6  C4  UNL     1      -1.422  18.419  -1.807  1.00  0.00     0.133 C 
BRANCH   6   7
HETATM    7  N1  UNL     1      -1.464  18.243  -3.244  1.00  0.00    -0.360 N 
HETATM    8  C5  UNL     1      -2.643  18.320  -3.949  1.00  0.00     0.219 C 
HETATM    9  O2  UNL     1      -3.731  18.461  -3.402  1.00  0.00    -0.274 OA
HETATM   10  H8  UNL     1      -0.600  18.066  -3.738  1.00  0.00     0.162 HD
BRANCH   8  11
HETATM   11  C6  UNL     1      -2.459  18.163  -5.443  1.00  0.00     0.122 C 
BRANCH  11  12
HETATM   12  C7  UNL     1      -1.036  17.735  -5.801  1.00  0.00     0.132 C 
BRANCH  12  13
HETATM   13  N2  UNL     1      -0.946  16.348  -6.207  1.00  0.00    -0.358 N 
HETATM   14  C8  UNL     1      -0.664  15.366  -5.276  1.00  0.00     0.247 C 
HETATM   15  O3  UNL     1      -0.368  15.632  -4.118  1.00  0.00    -0.271 OA
HETATM   16  H13 UNL     1      -1.529  16.085  -7.000  1.00  0.00     0.162 HD
BRANCH  14  17
HETATM   17  C9  UNL     1      -0.773  13.928  -5.803  1.00  0.00     0.219 C 
BRANCH  17  18
HETATM   18  C10 UNL     1      -2.152  13.257  -5.563  1.00  0.00     0.009 C 
HETATM   19  C11 UNL     1      -3.283  14.289  -5.441  1.00  0.00     0.020 C 
HETATM   20  C12 UNL     1      -2.515  12.286  -6.704  1.00  0.00     0.020 C 
BRANCH  18  21
HETATM   21  C13 UNL     1      -2.016  12.471  -4.227  1.00  0.00     0.192 C 
BRANCH  21  22
HETATM   22  O4  UNL     1      -2.812  13.019  -3.196  1.00  0.00    -0.296 OA
BRANCH  22  23
HETATM   23  P1  UNL     1      -3.923  12.173  -2.410  1.00  0.00     0.401 P 
HETATM   24  O5  UNL     1      -3.911  10.709  -2.721  1.00  0.00    -0.631 OA
BRANCH  23  25
HETATM   25  O6  UNL     1      -5.339  12.885  -2.694  1.00  0.00    -0.307 OA
HETATM   26  H23 UNL     1      -5.972  12.730  -1.981  1.00  0.00     0.222 HD
ENDBRANCH  23  25
BRANCH  23  27
HETATM   27  O7  UNL     1      -3.701  12.528  -0.875  1.00  0.00    -0.195 OA
BRANCH  27  28
HETATM   28  P2  UNL     1      -4.458  11.668   0.232  1.00  0.00     0.401 P 
HETATM   29  O8  UNL     1      -5.899  11.363  -0.017  1.00  0.00    -0.631 OA
BRANCH  28  30
HETATM   30  O9  UNL     1      -3.536  10.374   0.385  1.00  0.00    -0.307 OA
HETATM   31  H24 UNL     1      -3.713   9.846   1.201  1.00  0.00     0.222 HD
ENDBRANCH  28  30
BRANCH  28  32
HETATM   32  O10 UNL     1      -4.131  12.425   1.599  1.00  0.00    -0.294 OA
BRANCH  32  33
HETATM   33  C14 UNL     1      -3.078  13.351   1.655  1.00  0.00     0.215 C 
BRANCH  33  34
HETATM   34  C15 UNL     1      -3.633  14.587   2.360  1.00  0.00     0.180 C 
HETATM   35  C16 UNL     1      -4.173  15.569   1.330  1.00  0.00     0.197 C 
HETATM   36  C17 UNL     1      -3.319  16.812   1.497  1.00  0.00     0.199 C 
HETATM   37  C18 UNL     1      -2.855  16.691   2.951  1.00  0.00     0.262 C 
HETATM   38  O11 UNL     1      -2.648  15.274   3.142  1.00  0.00    -0.353 OA
BRANCH  35  39
HETATM   39  O13 UNL     1      -5.543  15.815   1.630  1.00  0.00    -0.286 OA
BRANCH  39  40
HETATM   40  P3  UNL     1      -6.574  15.504   0.449  1.00  0.00     0.391 P 
HETATM   41  O14 UNL     1      -7.671  14.566   0.837  1.00  0.00    -0.632 OA
BRANCH  40  42
HETATM   42  O15 UNL     1      -5.573  15.034  -0.707  1.00  0.00    -0.307 OA
HETATM   43  H36 UNL     1      -5.522  14.049  -0.745  1.00  0.00     0.222 HD
ENDBRANCH  40  42
BRANCH  40  44
HETATM   44  O16 UNL     1      -6.986  16.972  -0.004  1.00  0.00    -0.307 OA
HETATM   45  H37 UNL     1      -7.576  17.410   0.629  1.00  0.00     0.222 HD
ENDBRANCH  40  44
ENDBRANCH  39  40
ENDBRANCH  35  39
BRANCH  36  46
HETATM   46  O12 UNL     1      -4.066  17.978   1.142  1.00  0.00    -0.388 OA
HETATM   47  H35 UNL     1      -4.840  17.664   0.616  1.00  0.00     0.210 HD
ENDBRANCH  36  46
BRANCH  37  48
HETATM   48  N3  UNL     1      -1.605  17.382   3.195  1.00  0.00    -0.297 N 
HETATM   49  C19 UNL     1      -1.428  18.562   3.878  1.00  0.00     0.188 A 
HETATM   50  N4  UNL     1      -0.157  18.861   4.036  1.00  0.00    -0.346 N 
HETATM   51  C20 UNL     1       0.524  17.819   3.430  1.00  0.00     0.116 A 
HETATM   52  H4  UNL     1       0.239  19.677   4.502  1.00  0.00     0.167 HD
HETATM   53  C21 UNL     1       1.892  17.526   3.295  1.00  0.00     0.109 A 
HETATM   54  C23 UNL     1      -0.361  16.916   2.871  1.00  0.00     0.142 A 
HETATM   55  N5  UNL     1       2.252  16.407   2.621  1.00  0.00    -0.341 N 
HETATM   56  C22 UNL     1       1.278  15.630   2.108  1.00  0.00     0.183 A 
HETATM   57  H5  UNL     1       3.235  16.160   2.505  1.00  0.00     0.167 HD
HETATM   58  N6  UNL     1      -0.057  15.803   2.181  1.00  0.00    -0.336 N 
HETATM   59  H6  UNL     1      -0.746  15.174   1.767  1.00  0.00     0.168 HD
BRANCH  53  60
HETATM   60  N7  UNL     1       2.898  18.330   3.808  1.00  0.00    -0.287 NA
HETATM   61  H33 UNL     1       3.727  18.389   3.221  1.00  0.00     0.125 HD
HETATM   62  H34 UNL     1       3.049  18.189   4.798  1.00  0.00     0.125 HD
ENDBRANCH  53  60
ENDBRANCH  37  48
ENDBRANCH  33  34
ENDBRANCH  32  33
ENDBRANCH  28  32
ENDBRANCH  27  28
ENDBRANCH  23  27
ENDBRANCH  22  23
ENDBRANCH  21  22
ENDBRANCH  18  21
ENDBRANCH  17  18
BRANCH  17  63
HETATM   63  O17 UNL     1      -0.491  13.894  -7.206  1.00  0.00    -0.385 OA
HETATM   64  H38 UNL     1       0.026  13.092  -7.391  1.00  0.00     0.210 HD
ENDBRANCH  17  63
ENDBRANCH  14  17
ENDBRANCH  12  13
ENDBRANCH  11  12
ENDBRANCH   8  11
ENDBRANCH   6   7
ENDBRANCH   5   6
ENDBRANCH   4   5
ENDBRANCH   2   4
TORSDOF 27
ENDMDL
MODEL 7
REMARK VINA RESULT:      -4.7      6.635     10.426
REMARK  27 active torsions:
REMARK  status: ('A' for Active; 'I' for Inactive)
REMARK    1  A    between atoms: C2_2  and  S1_4 
REMARK    2  A    between atoms: S1_4  and  C3_5 
REMARK    3  A    between atoms: C3_5  and  C4_6 
REMARK    4  A    between atoms: C4_6  and  N1_7 
REMARK       I    between atoms: N1_7  and  C5_8 
REMARK    5  A    between atoms: C5_8  and  C6_10 
REMARK    6  A    between atoms: C6_10  and  C7_11 
REMARK    7  A    between atoms: C7_11  and  N2_12 
REMARK       I    between atoms: N2_12  and  C8_13 
REMARK    8  A    between atoms: C8_13  and  C9_15 
REMARK    9  A    between atoms: C9_15  and  C10_16 
REMARK   10  A    between atoms: C9_15  and  O17_54 
REMARK   11  A    between atoms: C10_16  and  C13_19 
REMARK   12  A    between atoms: C13_19  and  O4_20 
REMARK   13  A    between atoms: O4_20  and  P1_21 
REMARK   14  A    between atoms: P1_21  and  O6_23 
REMARK   15  A    between atoms: P1_21  and  O7_24 
REMARK   16  A    between atoms: O7_24  and  P2_25 
REMARK   17  A    between atoms: P2_25  and  O9_27 
REMARK   18  A    between atoms: P2_25  and  O10_28 
REMARK   19  A    between atoms: O10_28  and  C14_29 
REMARK   20  A    between atoms: C14_29  and  C15_30 
REMARK   21  A    between atoms: C16_31  and  O13_49 
REMARK   22  A    between atoms: C17_32  and  O12_48 
REMARK   23  A    between atoms: C18_33  and  N3_35 
REMARK   24  A    between atoms: C21_40  and  N7_47 
REMARK   25  A    between atoms: O13_49  and  P3_50 
REMARK   26  A    between atoms: P3_50  and  O15_52 
REMARK   27  A    between atoms: P3_50  and  O16_53 
ROOT
HETATM    1  C1  UNL     1       1.540  21.929   2.418  1.00  0.00     0.104 C 
HETATM    2  C2  UNL     1       2.656  20.956   2.649  1.00  0.00     0.182 C 
HETATM    3  O1  UNL     1       2.993  20.108   1.826  1.00  0.00    -0.286 OA
ENDROOT
BRANCH   2   4
HETATM    4  S1  UNL     1       3.428  21.099   4.222  1.00  0.00    -0.091 SA
BRANCH   4   5
HETATM    5  C3  UNL     1       5.176  21.195   3.718  1.00  0.00     0.102 C 
BRANCH   5   6
HETATM    6  C4  UNL     1       5.969  19.969   4.174  1.00  0.00     0.133 C 
BRANCH   6   7
HETATM    7  N1  UNL     1       5.119  18.844   4.505  1.00  0.00    -0.360 N 
HETATM    8  C5  UNL     1       4.947  17.788   3.640  1.00  0.00     0.219 C 
HETATM    9  O2  UNL     1       5.432  17.771   2.515  1.00  0.00    -0.274 OA
HETATM   10  H8  UNL     1       4.648  18.837   5.399  1.00  0.00     0.162 HD
BRANCH   8  11
HETATM   11  C6  UNL     1       4.066  16.693   4.200  1.00  0.00     0.122 C 
BRANCH  11  12
HETATM   12  C7  UNL     1       3.006  16.244   3.195  1.00  0.00     0.132 C 
BRANCH  12  13
HETATM   13  N2  UNL     1       1.722  15.974   3.807  1.00  0.00    -0.358 N 
HETATM   14  C8  UNL     1       0.792  16.988   3.952  1.00  0.00     0.247 C 
HETATM   15  O3  UNL     1       1.054  18.154   3.687  1.00  0.00    -0.271 OA
HETATM   16  H13 UNL     1       1.364  15.030   3.677  1.00  0.00     0.162 HD
BRANCH  14  17
HETATM   17  C9  UNL     1      -0.587  16.531   4.451  1.00  0.00     0.219 C 
BRANCH  17  18
HETATM   18  C10 UNL     1      -1.552  16.062   3.331  1.00  0.00     0.009 C 
HETATM   19  C11 UNL     1      -0.890  15.052   2.382  1.00  0.00     0.020 C 
HETATM   20  C12 UNL     1      -2.819  15.405   3.915  1.00  0.00     0.020 C 
BRANCH  18  21
HETATM   21  C13 UNL     1      -1.943  17.343   2.539  1.00  0.00     0.192 C 
BRANCH  21  22
HETATM   22  O4  UNL     1      -1.151  17.524   1.383  1.00  0.00    -0.296 OA
BRANCH  22  23
HETATM   23  P1  UNL     1      -1.741  18.086   0.002  1.00  0.00     0.401 P 
HETATM   24  O5  UNL     1      -0.698  18.476  -0.996  1.00  0.00    -0.631 OA
BRANCH  23  25
HETATM   25  O6  UNL     1      -2.756  19.278   0.381  1.00  0.00    -0.307 OA
HETATM   26  H23 UNL     1      -3.359  19.026   1.092  1.00  0.00     0.222 HD
ENDBRANCH  23  25
BRANCH  23  27
HETATM   27  O7  UNL     1      -2.754  16.965  -0.498  1.00  0.00    -0.195 OA
BRANCH  27  28
HETATM   28  P2  UNL     1      -3.900  17.368  -1.529  1.00  0.00     0.401 P 
HETATM   29  O8  UNL     1      -5.096  18.068  -0.972  1.00  0.00    -0.631 OA
BRANCH  28  30
HETATM   30  O9  UNL     1      -3.115  18.203  -2.641  1.00  0.00    -0.307 OA
HETATM   31  H24 UNL     1      -3.654  18.914  -3.066  1.00  0.00     0.222 HD
ENDBRANCH  28  30
BRANCH  28  32
HETATM   32  O10 UNL     1      -4.191  16.016  -2.328  1.00  0.00    -0.294 OA
BRANCH  32  33
HETATM   33  C14 UNL     1      -5.494  15.496  -2.377  1.00  0.00     0.215 C 
BRANCH  33  34
HETATM   34  C15 UNL     1      -5.355  14.036  -2.805  1.00  0.00     0.180 C 
HETATM   35  C16 UNL     1      -4.976  13.181  -1.604  1.00  0.00     0.197 C 
HETATM   36  C17 UNL     1      -3.618  12.604  -1.956  1.00  0.00     0.199 C 
HETATM   37  C18 UNL     1      -3.644  12.627  -3.486  1.00  0.00     0.262 C 
HETATM   38  O11 UNL     1      -4.355  13.842  -3.812  1.00  0.00    -0.353 OA
BRANCH  35  39
HETATM   39  O13 UNL     1      -5.966  12.168  -1.453  1.00  0.00    -0.286 OA
BRANCH  39  40
HETATM   40  P3  UNL     1      -6.391  11.839   0.053  1.00  0.00     0.391 P 
HETATM   41  O14 UNL     1      -7.830  12.113   0.346  1.00  0.00    -0.632 OA
BRANCH  40  42
HETATM   42  O15 UNL     1      -5.296  12.678   0.863  1.00  0.00    -0.307 OA
HETATM   43  H36 UNL     1      -4.436  12.194   0.890  1.00  0.00     0.222 HD
ENDBRANCH  40  42
BRANCH  40  44
HETATM   44  O16 UNL     1      -5.882  10.340   0.202  1.00  0.00    -0.307 OA
HETATM   45  H37 UNL     1      -5.637   9.938  -0.647  1.00  0.00     0.222 HD
ENDBRANCH  40  44
ENDBRANCH  39  40
ENDBRANCH  35  39
BRANCH  36  46
HETATM   46  O12 UNL     1      -3.438  11.335  -1.321  1.00  0.00    -0.388 OA
HETATM   47  H35 UNL     1      -2.467  11.230  -1.180  1.00  0.00     0.210 HD
ENDBRANCH  36  46
BRANCH  37  48
HETATM   48  N3  UNL     1      -2.317  12.695  -4.064  1.00  0.00    -0.297 N 
HETATM   49  C19 UNL     1      -1.521  11.640  -4.444  1.00  0.00     0.188 A 
HETATM   50  N4  UNL     1      -0.424  12.036  -5.053  1.00  0.00    -0.346 N 
HETATM   51  C20 UNL     1      -0.516  13.417  -5.072  1.00  0.00     0.116 A 
HETATM   52  H4  UNL     1       0.326  11.456  -5.427  1.00  0.00     0.167 HD
HETATM   53  C21 UNL     1       0.309  14.419  -5.612  1.00  0.00     0.109 A 
HETATM   54  C23 UNL     1      -1.664  13.840  -4.428  1.00  0.00     0.142 A 
HETATM   55  N5  UNL     1      -0.056  15.715  -5.454  1.00  0.00    -0.341 N 
HETATM   56  C22 UNL     1      -1.193  15.980  -4.782  1.00  0.00     0.183 A 
HETATM   57  H5  UNL     1       0.515  16.469  -5.835  1.00  0.00     0.167 HD
HETATM   58  N6  UNL     1      -2.063  15.109  -4.231  1.00  0.00    -0.336 N 
HETATM   59  H6  UNL     1      -2.912  15.377  -3.731  1.00  0.00     0.168 HD
BRANCH  53  60
HETATM   60  N7  UNL     1       1.487  14.152  -6.292  1.00  0.00    -0.287 NA
HETATM   61  H33 UNL     1       2.148  14.926  -6.303  1.00  0.00     0.125 HD
HETATM   62  H34 UNL     1       1.337  13.669  -7.167  1.00  0.00     0.125 HD
ENDBRANCH  53  60
ENDBRANCH  37  48
ENDBRANCH  33  34
ENDBRANCH  32  33
ENDBRANCH  28  32
ENDBRANCH  27  28
ENDBRANCH  23  27
ENDBRANCH  22  23
ENDBRANCH  21  22
ENDBRANCH  18  21
ENDBRANCH  17  18
BRANCH  17  63
HETATM   63  O17 UNL     1      -0.441  15.468   5.399  1.00  0.00    -0.385 OA
HETATM   64  H38 UNL     1       0.062  15.808   6.158  1.00  0.00     0.210 HD
ENDBRANCH  17  63
ENDBRANCH  14  17
ENDBRANCH  12  13
ENDBRANCH  11  12
ENDBRANCH   8  11
ENDBRANCH   6   7
ENDBRANCH   5   6
ENDBRANCH   4   5
ENDBRANCH   2   4
TORSDOF 27
ENDMDL
MODEL 8
REMARK VINA RESULT:      -4.7      4.646      8.113
REMARK  27 active torsions:
REMARK  status: ('A' for Active; 'I' for Inactive)
REMARK    1  A    between atoms: C2_2  and  S1_4 
REMARK    2  A    between atoms: S1_4  and  C3_5 
REMARK    3  A    between atoms: C3_5  and  C4_6 
REMARK    4  A    between atoms: C4_6  and  N1_7 
REMARK       I    between atoms: N1_7  and  C5_8 
REMARK    5  A    between atoms: C5_8  and  C6_10 
REMARK    6  A    between atoms: C6_10  and  C7_11 
REMARK    7  A    between atoms: C7_11  and  N2_12 
REMARK       I    between atoms: N2_12  and  C8_13 
REMARK    8  A    between atoms: C8_13  and  C9_15 
REMARK    9  A    between atoms: C9_15  and  C10_16 
REMARK   10  A    between atoms: C9_15  and  O17_54 
REMARK   11  A    between atoms: C10_16  and  C13_19 
REMARK   12  A    between atoms: C13_19  and  O4_20 
REMARK   13  A    between atoms: O4_20  and  P1_21 
REMARK   14  A    between atoms: P1_21  and  O6_23 
REMARK   15  A    between atoms: P1_21  and  O7_24 
REMARK   16  A    between atoms: O7_24  and  P2_25 
REMARK   17  A    between atoms: P2_25  and  O9_27 
REMARK   18  A    between atoms: P2_25  and  O10_28 
REMARK   19  A    between atoms: O10_28  and  C14_29 
REMARK   20  A    between atoms: C14_29  and  C15_30 
REMARK   21  A    between atoms: C16_31  and  O13_49 
REMARK   22  A    between atoms: C17_32  and  O12_48 
REMARK   23  A    between atoms: C18_33  and  N3_35 
REMARK   24  A    between atoms: C21_40  and  N7_47 
REMARK   25  A    between atoms: O13_49  and  P3_50 
REMARK   26  A    between atoms: P3_50  and  O15_52 
REMARK   27  A    between atoms: P3_50  and  O16_53 
ROOT
HETATM    1  C1  UNL     1      -0.028  19.802   4.375  1.00  0.00     0.104 C 
HETATM    2  C2  UNL     1       1.358  19.456   3.923  1.00  0.00     0.182 C 
HETATM    3  O1  UNL     1       2.314  20.219   4.035  1.00  0.00    -0.286 OA
ENDROOT
BRANCH   2   4
HETATM    4  S1  UNL     1       1.502  17.871   3.175  1.00  0.00    -0.091 SA
BRANCH   4   5
HETATM    5  C3  UNL     1      -0.209  17.272   3.354  1.00  0.00     0.102 C 
BRANCH   5   6
HETATM    6  C4  UNL     1      -0.270  15.748   3.473  1.00  0.00     0.133 C 
BRANCH   6   7
HETATM    7  N1  UNL     1      -1.170  15.147   2.509  1.00  0.00    -0.360 N 
HETATM    8  C5  UNL     1      -2.515  15.014   2.760  1.00  0.00     0.219 C 
HETATM    9  O2  UNL     1      -3.019  15.318   3.835  1.00  0.00    -0.274 OA
HETATM   10  H8  UNL     1      -0.794  14.825   1.628  1.00  0.00     0.162 HD
BRANCH   8  11
HETATM   11  C6  UNL     1      -3.284  14.413   1.604  1.00  0.00     0.122 C 
BRANCH  11  12
HETATM   12  C7  UNL     1      -4.105  15.463   0.856  1.00  0.00     0.132 C 
BRANCH  12  13
HETATM   13  N2  UNL     1      -3.511  16.783   0.899  1.00  0.00    -0.358 N 
HETATM   14  C8  UNL     1      -3.372  17.522  -0.262  1.00  0.00     0.247 C 
HETATM   15  O3  UNL     1      -3.627  17.057  -1.365  1.00  0.00    -0.271 OA
HETATM   16  H13 UNL     1      -3.652  17.298   1.765  1.00  0.00     0.162 HD
BRANCH  14  17
HETATM   17  C9  UNL     1      -2.894  18.967  -0.052  1.00  0.00     0.219 C 
BRANCH  17  18
HETATM   18  C10 UNL     1      -1.379  19.185  -0.299  1.00  0.00     0.009 C 
HETATM   19  C11 UNL     1      -0.760  20.155   0.719  1.00  0.00     0.020 C 
HETATM   20  C12 UNL     1      -0.597  17.858  -0.226  1.00  0.00     0.020 C 
BRANCH  18  21
HETATM   21  C13 UNL     1      -1.262  19.784  -1.730  1.00  0.00     0.192 C 
BRANCH  21  22
HETATM   22  O4  UNL     1      -1.173  18.786  -2.726  1.00  0.00    -0.296 OA
BRANCH  22  23
HETATM   23  P1  UNL     1      -2.023  18.834  -4.085  1.00  0.00     0.401 P 
HETATM   24  O5  UNL     1      -1.592  19.904  -5.038  1.00  0.00    -0.631 OA
BRANCH  23  25
HETATM   25  O6  UNL     1      -3.573  18.927  -3.662  1.00  0.00    -0.307 OA
HETATM   26  H23 UNL     1      -3.767  18.395  -2.879  1.00  0.00     0.222 HD
ENDBRANCH  23  25
BRANCH  23  27
HETATM   27  O7  UNL     1      -1.950  17.356  -4.668  1.00  0.00    -0.195 OA
BRANCH  27  28
HETATM   28  P2  UNL     1      -2.823  16.990  -5.950  1.00  0.00     0.401 P 
HETATM   29  O8  UNL     1      -3.947  17.913  -6.289  1.00  0.00    -0.631 OA
BRANCH  28  30
HETATM   30  O9  UNL     1      -1.732  16.838  -7.105  1.00  0.00    -0.307 OA
HETATM   31  H24 UNL     1      -0.843  17.200  -6.871  1.00  0.00     0.222 HD
ENDBRANCH  28  30
BRANCH  28  32
HETATM   32  O10 UNL     1      -3.222  15.460  -5.720  1.00  0.00    -0.294 OA
BRANCH  32  33
HETATM   33  C14 UNL     1      -4.076  15.108  -4.664  1.00  0.00     0.215 C 
BRANCH  33  34
HETATM   34  C15 UNL     1      -3.206  14.390  -3.633  1.00  0.00     0.180 C 
HETATM   35  C16 UNL     1      -2.680  13.087  -4.221  1.00  0.00     0.197 C 
HETATM   36  C17 UNL     1      -3.265  12.003  -3.337  1.00  0.00     0.199 C 
HETATM   37  C18 UNL     1      -3.498  12.749  -2.021  1.00  0.00     0.262 C 
HETATM   38  O11 UNL     1      -3.914  14.071  -2.430  1.00  0.00    -0.353 OA
BRANCH  35  39
HETATM   39  O13 UNL     1      -1.258  13.119  -4.161  1.00  0.00    -0.286 OA
BRANCH  39  40
HETATM   40  P3  UNL     1      -0.517  13.429  -5.544  1.00  0.00     0.391 P 
HETATM   41  O14 UNL     1      -1.314  13.054  -6.752  1.00  0.00    -0.632 OA
BRANCH  40  42
HETATM   42  O15 UNL     1       0.875  12.676  -5.312  1.00  0.00    -0.307 OA
HETATM   43  H36 UNL     1       1.094  12.635  -4.351  1.00  0.00     0.222 HD
ENDBRANCH  40  42
BRANCH  40  44
HETATM   44  O16 UNL     1      -0.135  14.961  -5.360  1.00  0.00    -0.307 OA
HETATM   45  H37 UNL     1      -0.698  15.555  -5.881  1.00  0.00     0.222 HD
ENDBRANCH  40  44
ENDBRANCH  39  40
ENDBRANCH  35  39
BRANCH  36  46
HETATM   46  O12 UNL     1      -2.396  10.868  -3.303  1.00  0.00    -0.388 OA
HETATM   47  H35 UNL     1      -2.891  10.152  -2.837  1.00  0.00     0.210 HD
ENDBRANCH  36  46
BRANCH  37  48
HETATM   48  N3  UNL     1      -4.551  12.155  -1.223  1.00  0.00    -0.297 N 
HETATM   49  C19 UNL     1      -4.448  11.066  -0.388  1.00  0.00     0.188 A 
HETATM   50  N4  UNL     1      -5.553  10.854   0.293  1.00  0.00    -0.346 N 
HETATM   51  C20 UNL     1      -6.414  11.857  -0.117  1.00  0.00     0.116 A 
HETATM   52  H4  UNL     1      -5.736  10.115   0.971  1.00  0.00     0.167 HD
HETATM   53  C21 UNL     1      -7.722  12.204   0.263  1.00  0.00     0.109 A 
HETATM   54  C23 UNL     1      -5.819  12.646  -1.084  1.00  0.00     0.142 A 
HETATM   55  N5  UNL     1      -8.315  13.261  -0.345  1.00  0.00    -0.341 N 
HETATM   56  C22 UNL     1      -7.621  13.926  -1.290  1.00  0.00     0.183 A 
HETATM   57  H5  UNL     1      -9.262  13.545  -0.093  1.00  0.00     0.167 HD
HETATM   58  N6  UNL     1      -6.368  13.692  -1.728  1.00  0.00    -0.336 N 
HETATM   59  H6  UNL     1      -5.897  14.236  -2.452  1.00  0.00     0.168 HD
BRANCH  53  60
HETATM   60  N7  UNL     1      -8.445  11.515   1.223  1.00  0.00    -0.287 NA
HETATM   61  H33 UNL     1      -9.436  11.744   1.246  1.00  0.00     0.125 HD
HETATM   62  H34 UNL     1      -7.969  11.464   2.114  1.00  0.00     0.125 HD
ENDBRANCH  53  60
ENDBRANCH  37  48
ENDBRANCH  33  34
ENDBRANCH  32  33
ENDBRANCH  28  32
ENDBRANCH  27  28
ENDBRANCH  23  27
ENDBRANCH  22  23
ENDBRANCH  21  22
ENDBRANCH  18  21
ENDBRANCH  17  18
BRANCH  17  63
HETATM   63  O17 UNL     1      -3.626  19.856  -0.902  1.00  0.00    -0.385 OA
HETATM   64  H38 UNL     1      -4.391  20.189  -0.403  1.00  0.00     0.210 HD
ENDBRANCH  17  63
ENDBRANCH  14  17
ENDBRANCH  12  13
ENDBRANCH  11  12
ENDBRANCH   8  11
ENDBRANCH   6   7
ENDBRANCH   5   6
ENDBRANCH   4   5
ENDBRANCH   2   4
TORSDOF 27
ENDMDL
MODEL 9
REMARK VINA RESULT:      -4.6     26.031     28.943
REMARK  27 active torsions:
REMARK  status: ('A' for Active; 'I' for Inactive)
REMARK    1  A    between atoms: C2_2  and  S1_4 
REMARK    2  A    between atoms: S1_4  and  C3_5 
REMARK    3  A    between atoms: C3_5  and  C4_6 
REMARK    4  A    between atoms: C4_6  and  N1_7 
REMARK       I    between atoms: N1_7  and  C5_8 
REMARK    5  A    between atoms: C5_8  and  C6_10 
REMARK    6  A    between atoms: C6_10  and  C7_11 
REMARK    7  A    between atoms: C7_11  and  N2_12 
REMARK       I    between atoms: N2_12  and  C8_13 
REMARK    8  A    between atoms: C8_13  and  C9_15 
REMARK    9  A    between atoms: C9_15  and  C10_16 
REMARK   10  A    between atoms: C9_15  and  O17_54 
REMARK   11  A    between atoms: C10_16  and  C13_19 
REMARK   12  A    between atoms: C13_19  and  O4_20 
REMARK   13  A    between atoms: O4_20  and  P1_21 
REMARK   14  A    between atoms: P1_21  and  O6_23 
REMARK   15  A    between atoms: P1_21  and  O7_24 
REMARK   16  A    between atoms: O7_24  and  P2_25 
REMARK   17  A    between atoms: P2_25  and  O9_27 
REMARK   18  A    between atoms: P2_25  and  O10_28 
REMARK   19  A    between atoms: O10_28  and  C14_29 
REMARK   20  A    between atoms: C14_29  and  C15_30 
REMARK   21  A    between atoms: C16_31  and  O13_49 
REMARK   22  A    between atoms: C17_32  and  O12_48 
REMARK   23  A    between atoms: C18_33  and  N3_35 
REMARK   24  A    between atoms: C21_40  and  N7_47 
REMARK   25  A    between atoms: O13_49  and  P3_50 
REMARK   26  A    between atoms: P3_50  and  O15_52 
REMARK   27  A    between atoms: P3_50  and  O16_53 
ROOT
HETATM    1  C1  UNL     1       9.988 -12.775 -17.271  1.00  0.00     0.104 C 
HETATM    2  C2  UNL     1      10.004 -11.316 -16.930  1.00  0.00     0.182 C 
HETATM    3  O1  UNL     1      10.717 -10.837 -16.052  1.00  0.00    -0.286 OA
ENDROOT
BRANCH   2   4
HETATM    4  S1  UNL     1       8.883 -10.340 -17.869  1.00  0.00    -0.091 SA
BRANCH   4   5
HETATM    5  C3  UNL     1       7.474 -10.267 -16.716  1.00  0.00     0.102 C 
BRANCH   5   6
HETATM    6  C4  UNL     1       7.623  -9.130 -15.704  1.00  0.00     0.133 C 
BRANCH   6   7
HETATM    7  N1  UNL     1       8.692  -8.214 -16.045  1.00  0.00    -0.360 N 
HETATM    8  C5  UNL     1       9.601  -7.780 -15.108  1.00  0.00     0.219 C 
HETATM    9  O2  UNL     1       9.515  -8.073 -13.921  1.00  0.00    -0.274 OA
HETATM   10  H8  UNL     1       8.772  -7.894 -17.001  1.00  0.00     0.162 HD
BRANCH   8  11
HETATM   11  C6  UNL     1      10.668  -6.874 -15.683  1.00  0.00     0.122 C 
BRANCH  11  12
HETATM   12  C7  UNL     1      11.946  -6.894 -14.845  1.00  0.00     0.132 C 
BRANCH  12  13
HETATM   13  N2  UNL     1      11.794  -6.240 -13.562  1.00  0.00    -0.358 N 
HETATM   14  C8  UNL     1      12.001  -4.878 -13.445  1.00  0.00     0.247 C 
HETATM   15  O3  UNL     1      12.428  -4.202 -14.373  1.00  0.00    -0.271 OA
HETATM   16  H13 UNL     1      11.115  -6.664 -12.932  1.00  0.00     0.162 HD
BRANCH  14  17
HETATM   17  C9  UNL     1      11.635  -4.286 -12.076  1.00  0.00     0.219 C 
BRANCH  17  18
HETATM   18  C10 UNL     1      12.852  -3.845 -11.220  1.00  0.00     0.009 C 
HETATM   19  C11 UNL     1      13.309  -2.418 -11.557  1.00  0.00     0.020 C 
HETATM   20  C12 UNL     1      12.531  -3.898  -9.713  1.00  0.00     0.020 C 
BRANCH  18  21
HETATM   21  C13 UNL     1      13.992  -4.851 -11.550  1.00  0.00     0.192 C 
BRANCH  21  22
HETATM   22  O4  UNL     1      13.847  -6.075 -10.858  1.00  0.00    -0.296 OA
BRANCH  22  23
HETATM   23  P1  UNL     1      14.411  -7.466 -11.422  1.00  0.00     0.401 P 
HETATM   24  O5  UNL     1      15.468  -8.090 -10.566  1.00  0.00    -0.631 OA
BRANCH  23  25
HETATM   25  O6  UNL     1      14.879  -7.197 -12.939  1.00  0.00    -0.307 OA
HETATM   26  H23 UNL     1      14.457  -7.804 -13.560  1.00  0.00     0.222 HD
ENDBRANCH  23  25
BRANCH  23  27
HETATM   27  O7  UNL     1      13.122  -8.369 -11.651  1.00  0.00    -0.195 OA
BRANCH  27  28
HETATM   28  P2  UNL     1      12.065  -8.516 -10.469  1.00  0.00     0.401 P 
HETATM   29  O8  UNL     1      12.604  -8.852  -9.117  1.00  0.00    -0.631 OA
BRANCH  28  30
HETATM   30  O9  UNL     1      11.259  -7.139 -10.524  1.00  0.00    -0.307 OA
HETATM   31  H24 UNL     1      10.338  -7.224 -10.875  1.00  0.00     0.222 HD
ENDBRANCH  28  30
BRANCH  28  32
HETATM   32  O10 UNL     1      10.969  -9.521 -11.053  1.00  0.00    -0.294 OA
BRANCH  32  33
HETATM   33  C14 UNL     1      11.015 -10.883 -10.716  1.00  0.00     0.215 C 
BRANCH  33  34
HETATM   34  C15 UNL     1       9.739 -11.170  -9.926  1.00  0.00     0.180 C 
HETATM   35  C16 UNL     1       8.994  -9.868  -9.660  1.00  0.00     0.197 C 
HETATM   36  C17 UNL     1       8.974  -9.739  -8.149  1.00  0.00     0.199 C 
HETATM   37  C18 UNL     1       9.096 -11.197  -7.698  1.00  0.00     0.262 C 
HETATM   38  O11 UNL     1       9.992 -11.794  -8.662  1.00  0.00    -0.353 OA
BRANCH  35  39
HETATM   39  O13 UNL     1       7.684  -9.991 -10.206  1.00  0.00    -0.286 OA
BRANCH  39  40
HETATM   40  P3  UNL     1       7.202  -8.771 -11.120  1.00  0.00     0.391 P 
HETATM   41  O14 UNL     1       6.616  -9.194 -12.428  1.00  0.00    -0.632 OA
BRANCH  40  42
HETATM   42  O15 UNL     1       8.532  -7.882 -11.158  1.00  0.00    -0.307 OA
HETATM   43  H36 UNL     1       8.570  -7.280 -10.377  1.00  0.00     0.222 HD
ENDBRANCH  40  42
BRANCH  40  44
HETATM   44  O16 UNL     1       6.262  -7.975 -10.115  1.00  0.00    -0.307 OA
HETATM   45  H37 UNL     1       6.609  -7.958  -9.209  1.00  0.00     0.222 HD
ENDBRANCH  40  44
ENDBRANCH  39  40
ENDBRANCH  35  39
BRANCH  36  46
HETATM   46  O12 UNL     1       7.813  -9.017  -7.728  1.00  0.00    -0.388 OA
HETATM   47  H35 UNL     1       7.239  -8.925  -8.525  1.00  0.00     0.210 HD
ENDBRANCH  36  46
BRANCH  37  48
HETATM   48  N3  UNL     1       9.681 -11.324  -6.378  1.00  0.00    -0.297 N 
HETATM   49  C19 UNL     1      10.994 -11.597  -6.073  1.00  0.00     0.188 A 
HETATM   50  N4  UNL     1      11.232 -11.520  -4.782  1.00  0.00    -0.346 N 
HETATM   51  C20 UNL     1      10.014 -11.176  -4.222  1.00  0.00     0.116 A 
HETATM   52  H4  UNL     1      12.116 -11.679  -4.300  1.00  0.00     0.167 HD
HETATM   53  C21 UNL     1       9.615 -10.903  -2.902  1.00  0.00     0.109 A 
HETATM   54  C23 UNL     1       9.036 -11.089  -5.196  1.00  0.00     0.142 A 
HETATM   55  N5  UNL     1       8.315 -10.597  -2.667  1.00  0.00    -0.341 N 
HETATM   56  C22 UNL     1       7.466 -10.573  -3.714  1.00  0.00     0.183 A 
HETATM   57  H5  UNL     1       7.989 -10.389  -1.723  1.00  0.00     0.167 HD
HETATM   58  N6  UNL     1       7.733 -10.806  -5.015  1.00  0.00    -0.336 N 
HETATM   59  H6  UNL     1       7.040 -10.772  -5.763  1.00  0.00     0.168 HD
BRANCH  53  60
HETATM   60  N7  UNL     1      10.481 -10.941  -1.821  1.00  0.00    -0.287 NA
HETATM   61  H33 UNL     1      10.054 -11.259  -0.954  1.00  0.00     0.125 HD
HETATM   62  H34 UNL     1      11.076 -10.125  -1.764  1.00  0.00     0.125 HD
ENDBRANCH  53  60
ENDBRANCH  37  48
ENDBRANCH  33  34
ENDBRANCH  32  33
ENDBRANCH  28  32
ENDBRANCH  27  28
ENDBRANCH  23  27
ENDBRANCH  22  23
ENDBRANCH  21  22
ENDBRANCH  18  21
ENDBRANCH  17  18
BRANCH  17  63
HETATM   63  O17 UNL     1      10.765  -3.161 -12.242  1.00  0.00    -0.385 OA
HETATM   64  H38 UNL     1       9.911  -3.486 -12.573  1.00  0.00     0.210 HD
ENDBRANCH  17  63
ENDBRANCH  14  17
ENDBRANCH  12  13
ENDBRANCH  11  12
ENDBRANCH   8  11
ENDBRANCH   6   7
ENDBRANCH   5   6
ENDBRANCH   4   5
ENDBRANCH   2   4
TORSDOF 27
ENDMDL
