MODEL 1
REMARK VINA RESULT:      -3.4      0.000      0.000
REMARK  2 active torsions:
REMARK  status: ('A' for Active; 'I' for Inactive)
REMARK    1  A    between atoms: C3_3  and  O1_8 
REMARK    2  A    between atoms: C6_6  and  N1_7 
ROOT
HETATM    1  C1  UNL     1      -5.697  15.794   7.579  1.00  0.00     0.026 A 
HETATM    2  C2  UNL     1      -6.457  16.192   8.681  1.00  0.00     0.038 A 
HETATM    3  C3  UNL     1      -6.363  15.487   9.873  1.00  0.00     0.065 A 
HETATM    4  C4  UNL     1      -5.506  14.397   9.985  1.00  0.00     0.038 A 
HETATM    5  C5  UNL     1      -4.749  14.004   8.877  1.00  0.00     0.026 A 
HETATM    6  C6  UNL     1      -4.874  14.666   7.651  1.00  0.00     0.005 A 
ENDROOT
BRANCH   6   7
HETATM    7  N1  UNL     1      -4.027  14.342   6.586  1.00  0.00    -0.303 NA
HETATM    8  H5  UNL     1      -4.286  13.487   6.104  1.00  0.00     0.124 HD
HETATM    9  H6  UNL     1      -3.041  14.367   6.823  1.00  0.00     0.124 HD
ENDBRANCH   6   7
BRANCH   3  10
HETATM   10  O1  UNL     1      -7.119  15.908  10.925  1.00  0.00    -0.361 OA
HETATM   11  H7  UNL     1      -7.852  15.284  11.049  1.00  0.00     0.217 HD
ENDBRANCH   3  10
TORSDOF 2
ENDMDL
MODEL 2
REMARK VINA RESULT:      -3.3      2.779      3.681
REMARK  2 active torsions:
REMARK  status: ('A' for Active; 'I' for Inactive)
REMARK    1  A    between atoms: C3_3  and  O1_8 
REMARK    2  A    between atoms: C6_6  and  N1_7 
ROOT
HETATM    1  C1  UNL     1      -5.436  14.333   9.902  1.00  0.00     0.026 A 
HETATM    2  C2  UNL     1      -4.662  13.977   8.796  1.00  0.00     0.038 A 
HETATM    3  C3  UNL     1      -4.790  14.686   7.610  1.00  0.00     0.065 A 
HETATM    4  C4  UNL     1      -5.671  15.758   7.518  1.00  0.00     0.038 A 
HETATM    5  C5  UNL     1      -6.443  16.107   8.629  1.00  0.00     0.026 A 
HETATM    6  C6  UNL     1      -6.371  15.368   9.814  1.00  0.00     0.005 A 
ENDROOT
BRANCH   6   7
HETATM    7  N1  UNL     1      -7.058  15.798  10.956  1.00  0.00    -0.303 NA
HETATM    8  H5  UNL     1      -6.450  16.022  11.737  1.00  0.00     0.124 HD
HETATM    9  H6  UNL     1      -7.826  15.192  11.225  1.00  0.00     0.124 HD
ENDBRANCH   6   7
BRANCH   3  10
HETATM   10  O1  UNL     1      -4.015  14.309   6.554  1.00  0.00    -0.361 OA
HETATM   11  H7  UNL     1      -4.214  14.889   5.802  1.00  0.00     0.217 HD
ENDBRANCH   3  10
TORSDOF 2
ENDMDL
MODEL 3
REMARK VINA RESULT:      -3.2      1.728      2.411
REMARK  2 active torsions:
REMARK  status: ('A' for Active; 'I' for Inactive)
REMARK    1  A    between atoms: C3_3  and  O1_8 
REMARK    2  A    between atoms: C6_6  and  N1_7 
ROOT
HETATM    1  C1  UNL     1      -5.031  14.623   7.612  1.00  0.00     0.026 A 
HETATM    2  C2  UNL     1      -4.542  13.910   8.709  1.00  0.00     0.038 A 
HETATM    3  C3  UNL     1      -5.038  14.175   9.978  1.00  0.00     0.065 A 
HETATM    4  C4  UNL     1      -6.030  15.131  10.164  1.00  0.00     0.038 A 
HETATM    5  C5  UNL     1      -6.514  15.841   9.062  1.00  0.00     0.026 A 
HETATM    6  C6  UNL     1      -5.985  15.630   7.784  1.00  0.00     0.005 A 
ENDROOT
BRANCH   6   7
HETATM    7  N1  UNL     1      -6.557  16.258   6.672  1.00  0.00    -0.303 NA
HETATM    8  H5  UNL     1      -7.528  16.005   6.515  1.00  0.00     0.124 HD
HETATM    9  H6  UNL     1      -5.999  16.187   5.828  1.00  0.00     0.124 HD
ENDBRANCH   6   7
BRANCH   3  10
HETATM   10  O1  UNL     1      -4.537  13.457  11.022  1.00  0.00    -0.361 OA
HETATM   11  H7  UNL     1      -4.089  12.671  10.671  1.00  0.00     0.217 HD
ENDBRANCH   3  10
TORSDOF 2
ENDMDL
MODEL 4
REMARK VINA RESULT:      -3.1      2.275      2.997
REMARK  2 active torsions:
REMARK  status: ('A' for Active; 'I' for Inactive)
REMARK    1  A    between atoms: C3_3  and  O1_8 
REMARK    2  A    between atoms: C6_6  and  N1_7 
ROOT
HETATM    1  C1  UNL     1      -4.594  13.943   8.625  1.00  0.00     0.026 A 
HETATM    2  C2  UNL     1      -4.991  14.691   7.514  1.00  0.00     0.038 A 
HETATM    3  C3  UNL     1      -5.854  15.765   7.681  1.00  0.00     0.065 A 
HETATM    4  C4  UNL     1      -6.314  16.114   8.946  1.00  0.00     0.038 A 
HETATM    5  C5  UNL     1      -5.913  15.361  10.053  1.00  0.00     0.026 A 
HETATM    6  C6  UNL     1      -5.091  14.240   9.898  1.00  0.00     0.005 A 
ENDROOT
BRANCH   6   7
HETATM    7  N1  UNL     1      -4.600  13.565  11.022  1.00  0.00    -0.303 NA
HETATM    8  H5  UNL     1      -4.972  13.912  11.901  1.00  0.00     0.124 HD
HETATM    9  H6  UNL     1      -3.590  13.476  11.038  1.00  0.00     0.124 HD
ENDBRANCH   6   7
BRANCH   3  10
HETATM   10  O1  UNL     1      -6.216  16.471   6.573  1.00  0.00    -0.361 OA
HETATM   11  H7  UNL     1      -6.917  17.095   6.819  1.00  0.00     0.217 HD
ENDBRANCH   3  10
TORSDOF 2
ENDMDL
MODEL 5
REMARK VINA RESULT:      -3.1      8.399      8.954
REMARK  2 active torsions:
REMARK  status: ('A' for Active; 'I' for Inactive)
REMARK    1  A    between atoms: C3_3  and  O1_8 
REMARK    2  A    between atoms: C6_6  and  N1_7 
ROOT
HETATM    1  C1  UNL     1     -12.048  11.839   2.896  1.00  0.00     0.026 A 
HETATM    2  C2  UNL     1     -12.095  12.697   1.794  1.00  0.00     0.038 A 
HETATM    3  C3  UNL     1     -11.242  13.790   1.737  1.00  0.00     0.065 A 
HETATM    4  C4  UNL     1     -10.329  14.030   2.758  1.00  0.00     0.038 A 
HETATM    5  C5  UNL     1     -10.289  13.168   3.858  1.00  0.00     0.026 A 
HETATM    6  C6  UNL     1     -11.181  12.095   3.962  1.00  0.00     0.005 A 
ENDROOT
BRANCH   6   7
HETATM    7  N1  UNL     1     -11.054  11.172   5.005  1.00  0.00    -0.303 NA
HETATM    8  H5  UNL     1     -11.343  11.534   5.909  1.00  0.00     0.124 HD
HETATM    9  H6  UNL     1     -10.147  10.718   5.044  1.00  0.00     0.124 HD
ENDBRANCH   6   7
BRANCH   3  10
HETATM   10  O1  UNL     1     -11.316  14.601   0.644  1.00  0.00    -0.361 OA
HETATM   11  H7  UNL     1     -11.141  15.514   0.924  1.00  0.00     0.217 HD
ENDBRANCH   3  10
TORSDOF 2
ENDMDL
MODEL 6
REMARK VINA RESULT:      -3.0      8.166      8.673
REMARK  2 active torsions:
REMARK  status: ('A' for Active; 'I' for Inactive)
REMARK    1  A    between atoms: C3_3  and  O1_8 
REMARK    2  A    between atoms: C6_6  and  N1_7 
ROOT
HETATM    1  C1  UNL     1     -12.095  12.769   1.833  1.00  0.00     0.026 A 
HETATM    2  C2  UNL     1     -11.990  11.914   2.933  1.00  0.00     0.038 A 
HETATM    3  C3  UNL     1     -11.046  12.173   3.916  1.00  0.00     0.065 A 
HETATM    4  C4  UNL     1     -10.215  13.284   3.825  1.00  0.00     0.038 A 
HETATM    5  C5  UNL     1     -10.325  14.134   2.721  1.00  0.00     0.026 A 
HETATM    6  C6  UNL     1     -11.229  13.858   1.691  1.00  0.00     0.005 A 
ENDROOT
BRANCH   6   7
HETATM    7  N1  UNL     1     -11.416  14.776   0.651  1.00  0.00    -0.303 NA
HETATM    8  H5  UNL     1     -11.704  15.697   0.967  1.00  0.00     0.124 HD
HETATM    9  H6  UNL     1     -11.996  14.428  -0.105  1.00  0.00     0.124 HD
ENDBRANCH   6   7
BRANCH   3  10
HETATM   10  O1  UNL     1     -10.976  11.318   4.975  1.00  0.00    -0.361 OA
HETATM   11  H7  UNL     1     -10.213  11.564   5.522  1.00  0.00     0.217 HD
ENDBRANCH   3  10
TORSDOF 2
ENDMDL
MODEL 7
REMARK VINA RESULT:      -3.0      8.318      8.892
REMARK  2 active torsions:
REMARK  status: ('A' for Active; 'I' for Inactive)
REMARK    1  A    between atoms: C3_3  and  O1_8 
REMARK    2  A    between atoms: C6_6  and  N1_7 
ROOT
HETATM    1  C1  UNL     1     -10.231  13.213   3.874  1.00  0.00     0.026 A 
HETATM    2  C2  UNL     1     -10.310  14.119   2.813  1.00  0.00     0.038 A 
HETATM    3  C3  UNL     1     -11.234  13.912   1.799  1.00  0.00     0.065 A 
HETATM    4  C4  UNL     1     -12.094  12.820   1.838  1.00  0.00     0.038 A 
HETATM    5  C5  UNL     1     -12.009  11.917   2.902  1.00  0.00     0.026 A 
HETATM    6  C6  UNL     1     -11.044  12.076   3.902  1.00  0.00     0.005 A 
ENDROOT
BRANCH   6   7
HETATM    7  N1  UNL     1     -11.045  11.237   5.022  1.00  0.00    -0.303 NA
HETATM    8  H5  UNL     1     -11.937  11.204   5.506  1.00  0.00     0.124 HD
HETATM    9  H6  UNL     1     -10.268  11.395   5.654  1.00  0.00     0.124 HD
ENDBRANCH   6   7
BRANCH   3  10
HETATM   10  O1  UNL     1     -11.282  14.819   0.784  1.00  0.00    -0.361 OA
HETATM   11  H7  UNL     1     -12.196  15.130   0.690  1.00  0.00     0.217 HD
ENDBRANCH   3  10
TORSDOF 2
ENDMDL
MODEL 8
REMARK VINA RESULT:      -2.9      7.494      8.105
REMARK  2 active torsions:
REMARK  status: ('A' for Active; 'I' for Inactive)
REMARK    1  A    between atoms: C3_3  and  O1_8 
REMARK    2  A    between atoms: C6_6  and  N1_7 
ROOT
HETATM    1  C1  UNL     1      -9.282  14.316   3.040  1.00  0.00     0.026 A 
HETATM    2  C2  UNL     1      -9.821  13.486   4.026  1.00  0.00     0.038 A 
HETATM    3  C3  UNL     1     -10.945  12.723   3.744  1.00  0.00     0.065 A 
HETATM    4  C4  UNL     1     -11.530  12.764   2.484  1.00  0.00     0.038 A 
HETATM    5  C5  UNL     1     -10.987  13.598   1.502  1.00  0.00     0.026 A 
HETATM    6  C6  UNL     1      -9.890  14.419   1.785  1.00  0.00     0.005 A 
ENDROOT
BRANCH   6   7
HETATM    7  N1  UNL     1      -9.281  15.158   0.765  1.00  0.00    -0.303 NA
HETATM    8  H5  UNL     1      -8.898  14.586   0.019  1.00  0.00     0.124 HD
HETATM    9  H6  UNL     1      -8.619  15.851   1.099  1.00  0.00     0.124 HD
ENDBRANCH   6   7
BRANCH   3  10
HETATM   10  O1  UNL     1     -11.438  11.924   4.732  1.00  0.00    -0.361 OA
HETATM   11  H7  UNL     1     -12.247  11.496   4.409  1.00  0.00     0.217 HD
ENDBRANCH   3  10
TORSDOF 2
ENDMDL
MODEL 9
REMARK VINA RESULT:      -2.7      5.910      6.559
REMARK  2 active torsions:
REMARK  status: ('A' for Active; 'I' for Inactive)
REMARK    1  A    between atoms: C3_3  and  O1_8 
REMARK    2  A    between atoms: C6_6  and  N1_7 
ROOT
HETATM    1  C1  UNL     1      -9.738  16.452   4.447  1.00  0.00     0.026 A 
HETATM    2  C2  UNL     1      -8.370  16.173   4.482  1.00  0.00     0.038 A 
HETATM    3  C3  UNL     1      -7.928  14.870   4.301  1.00  0.00     0.065 A 
HETATM    4  C4  UNL     1      -8.834  13.841   4.069  1.00  0.00     0.038 A 
HETATM    5  C5  UNL     1     -10.202  14.127   4.036  1.00  0.00     0.026 A 
HETATM    6  C6  UNL     1     -10.670  15.424   4.275  1.00  0.00     0.005 A 
ENDROOT
BRANCH   6   7
HETATM    7  N1  UNL     1     -12.029  15.722   4.122  1.00  0.00    -0.303 NA
HETATM    8  H5  UNL     1     -12.348  16.483   4.713  1.00  0.00     0.124 HD
HETATM    9  H6  UNL     1     -12.635  14.911   4.175  1.00  0.00     0.124 HD
ENDBRANCH   6   7
BRANCH   3  10
HETATM   10  O1  UNL     1      -6.585  14.640   4.340  1.00  0.00    -0.361 OA
HETATM   11  H7  UNL     1      -6.183  15.260   4.969  1.00  0.00     0.217 HD
ENDBRANCH   3  10
TORSDOF 2
ENDMDL
MODEL 10
REMARK VINA RESULT:      -2.7      5.592      6.163
REMARK  2 active torsions:
REMARK  status: ('A' for Active; 'I' for Inactive)
REMARK    1  A    between atoms: C3_3  and  O1_8 
REMARK    2  A    between atoms: C6_6  and  N1_7 
ROOT
HETATM    1  C1  UNL     1      -8.526  16.185   4.458  1.00  0.00     0.026 A 
HETATM    2  C2  UNL     1      -9.902  16.409   4.372  1.00  0.00     0.038 A 
HETATM    3  C3  UNL     1     -10.759  15.344   4.137  1.00  0.00     0.065 A 
HETATM    4  C4  UNL     1     -10.262  14.052   4.001  1.00  0.00     0.038 A 
HETATM    5  C5  UNL     1      -8.884  13.835   4.087  1.00  0.00     0.026 A 
HETATM    6  C6  UNL     1      -7.999  14.904   4.265  1.00  0.00     0.005 A 
ENDROOT
BRANCH   6   7
HETATM    7  N1  UNL     1      -6.636  14.664   4.468  1.00  0.00    -0.303 NA
HETATM    8  H5  UNL     1      -6.401  13.679   4.541  1.00  0.00     0.124 HD
HETATM    9  H6  UNL     1      -6.229  15.215   5.217  1.00  0.00     0.124 HD
ENDBRANCH   6   7
BRANCH   3  10
HETATM   10  O1  UNL     1     -12.095  15.603   4.063  1.00  0.00    -0.361 OA
HETATM   11  H7  UNL     1     -12.580  14.782   4.242  1.00  0.00     0.217 HD
ENDBRANCH   3  10
TORSDOF 2
ENDMDL
MODEL 11
REMARK VINA RESULT:      -2.6      7.451      8.172
REMARK  2 active torsions:
REMARK  status: ('A' for Active; 'I' for Inactive)
REMARK    1  A    between atoms: C3_3  and  O1_8 
REMARK    2  A    between atoms: C6_6  and  N1_7 
ROOT
HETATM    1  C1  UNL     1     -10.424  13.096   3.957  1.00  0.00     0.026 A 
HETATM    2  C2  UNL     1      -9.533  14.171   4.000  1.00  0.00     0.038 A 
HETATM    3  C3  UNL     1      -9.367  14.971   2.878  1.00  0.00     0.065 A 
HETATM    4  C4  UNL     1     -10.090  14.722   1.717  1.00  0.00     0.038 A 
HETATM    5  C5  UNL     1     -10.979  13.643   1.682  1.00  0.00     0.026 A 
HETATM    6  C6  UNL     1     -11.117  12.791   2.782  1.00  0.00     0.005 A 
ENDROOT
BRANCH   6   7
HETATM    7  N1  UNL     1     -12.094  11.789   2.779  1.00  0.00    -0.303 NA
HETATM    8  H5  UNL     1     -13.026  12.128   2.563  1.00  0.00     0.124 HD
HETATM    9  H6  UNL     1     -12.079  11.198   3.603  1.00  0.00     0.124 HD
ENDBRANCH   6   7
BRANCH   3  10
HETATM   10  O1  UNL     1      -8.491  16.011   2.961  1.00  0.00    -0.361 OA
HETATM   11  H7  UNL     1      -8.950  16.825   2.699  1.00  0.00     0.217 HD
ENDBRANCH   3  10
TORSDOF 2
ENDMDL
MODEL 12
REMARK VINA RESULT:      -2.6      8.469      9.196
REMARK  2 active torsions:
REMARK  status: ('A' for Active; 'I' for Inactive)
REMARK    1  A    between atoms: C3_3  and  O1_8 
REMARK    2  A    between atoms: C6_6  and  N1_7 
ROOT
HETATM    1  C1  UNL     1      -9.665  15.244   2.075  1.00  0.00     0.026 A 
HETATM    2  C2  UNL     1      -9.818  14.858   0.742  1.00  0.00     0.038 A 
HETATM    3  C3  UNL     1     -10.676  13.816   0.422  1.00  0.00     0.065 A 
HETATM    4  C4  UNL     1     -11.397  13.162   1.415  1.00  0.00     0.038 A 
HETATM    5  C5  UNL     1     -11.237  13.553   2.748  1.00  0.00     0.026 A 
HETATM    6  C6  UNL     1     -10.333  14.561   3.096  1.00  0.00     0.005 A 
ENDROOT
BRANCH   6   7
HETATM    7  N1  UNL     1     -10.269  15.025   4.415  1.00  0.00    -0.303 NA
HETATM    8  H5  UNL     1     -10.517  14.325   5.106  1.00  0.00     0.124 HD
HETATM    9  H6  UNL     1     -10.752  15.904   4.565  1.00  0.00     0.124 HD
ENDBRANCH   6   7
BRANCH   3  10
HETATM   10  O1  UNL     1     -10.801  13.471  -0.891  1.00  0.00    -0.361 OA
HETATM   11  H7  UNL     1     -11.699  13.133  -1.038  1.00  0.00     0.217 HD
ENDBRANCH   3  10
TORSDOF 2
ENDMDL
MODEL 13
REMARK VINA RESULT:      -2.6      2.672      3.107
REMARK  2 active torsions:
REMARK  status: ('A' for Active; 'I' for Inactive)
REMARK    1  A    between atoms: C3_3  and  O1_8 
REMARK    2  A    between atoms: C6_6  and  N1_7 
ROOT
HETATM    1  C1  UNL     1      -6.283  16.107   8.925  1.00  0.00     0.026 A 
HETATM    2  C2  UNL     1      -6.502  15.879   7.565  1.00  0.00     0.038 A 
HETATM    3  C3  UNL     1      -5.828  14.849   6.923  1.00  0.00     0.065 A 
HETATM    4  C4  UNL     1      -4.949  14.033   7.625  1.00  0.00     0.038 A 
HETATM    5  C5  UNL     1      -4.734  14.268   8.986  1.00  0.00     0.026 A 
HETATM    6  C6  UNL     1      -5.358  15.337   9.637  1.00  0.00     0.005 A 
ENDROOT
BRANCH   6   7
HETATM    7  N1  UNL     1      -5.230  15.492  11.022  1.00  0.00    -0.303 NA
HETATM    8  H5  UNL     1      -5.910  16.127  11.426  1.00  0.00     0.124 HD
HETATM    9  H6  UNL     1      -4.283  15.694  11.326  1.00  0.00     0.124 HD
ENDBRANCH   6   7
BRANCH   3  10
HETATM   10  O1  UNL     1      -6.071  14.657   5.596  1.00  0.00    -0.361 OA
HETATM   11  H7  UNL     1      -5.702  15.406   5.101  1.00  0.00     0.217 HD
ENDBRANCH   3  10
TORSDOF 2
ENDMDL
MODEL 14
REMARK VINA RESULT:      -2.4     15.734     16.741
REMARK  2 active torsions:
REMARK  status: ('A' for Active; 'I' for Inactive)
REMARK    1  A    between atoms: C3_3  and  O1_8 
REMARK    2  A    between atoms: C6_6  and  N1_7 
ROOT
HETATM    1  C1  UNL     1      -1.740   3.725  -1.051  1.00  0.00     0.026 A 
HETATM    2  C2  UNL     1      -1.328   2.631  -1.815  1.00  0.00     0.038 A 
HETATM    3  C3  UNL     1      -1.467   2.664  -3.195  1.00  0.00     0.065 A 
HETATM    4  C4  UNL     1      -1.998   3.783  -3.826  1.00  0.00     0.038 A 
HETATM    5  C5  UNL     1      -2.410   4.874  -3.055  1.00  0.00     0.026 A 
HETATM    6  C6  UNL     1      -2.332   4.836  -1.659  1.00  0.00     0.005 A 
ENDROOT
BRANCH   6   7
HETATM    7  N1  UNL     1      -2.634   5.976  -0.905  1.00  0.00    -0.303 NA
HETATM    8  H5  UNL     1      -3.485   6.446  -1.199  1.00  0.00     0.124 HD
HETATM    9  H6  UNL     1      -1.855   6.618  -0.801  1.00  0.00     0.124 HD
ENDBRANCH   6   7
BRANCH   3  10
HETATM   10  O1  UNL     1      -1.051   1.578  -3.905  1.00  0.00    -0.361 OA
HETATM   11  H7  UNL     1      -0.432   1.069  -3.357  1.00  0.00     0.217 HD
ENDBRANCH   3  10
TORSDOF 2
ENDMDL
MODEL 15
REMARK VINA RESULT:      -2.4      6.351      7.253
REMARK  2 active torsions:
REMARK  status: ('A' for Active; 'I' for Inactive)
REMARK    1  A    between atoms: C3_3  and  O1_8 
REMARK    2  A    between atoms: C6_6  and  N1_7 
ROOT
HETATM    1  C1  UNL     1      -8.686  14.262   4.081  1.00  0.00     0.026 A 
HETATM    2  C2  UNL     1      -9.593  13.951   3.066  1.00  0.00     0.038 A 
HETATM    3  C3  UNL     1     -10.081  14.959   2.247  1.00  0.00     0.065 A 
HETATM    4  C4  UNL     1      -9.662  16.274   2.417  1.00  0.00     0.038 A 
HETATM    5  C5  UNL     1      -8.755  16.578   3.436  1.00  0.00     0.026 A 
HETATM    6  C6  UNL     1      -8.297  15.586   4.309  1.00  0.00     0.005 A 
ENDROOT
BRANCH   6   7
HETATM    7  N1  UNL     1      -7.301  15.878   5.247  1.00  0.00    -0.303 NA
HETATM    8  H5  UNL     1      -6.468  16.294   4.841  1.00  0.00     0.124 HD
HETATM    9  H6  UNL     1      -7.083  15.106   5.868  1.00  0.00     0.124 HD
ENDBRANCH   6   7
BRANCH   3  10
HETATM   10  O1  UNL     1     -10.962  14.614   1.267  1.00  0.00    -0.361 OA
HETATM   11  H7  UNL     1     -10.783  13.700   0.996  1.00  0.00     0.217 HD
ENDBRANCH   3  10
TORSDOF 2
ENDMDL
MODEL 16
REMARK VINA RESULT:      -2.4     15.709     16.637
REMARK  2 active torsions:
REMARK  status: ('A' for Active; 'I' for Inactive)
REMARK    1  A    between atoms: C3_3  and  O1_8 
REMARK    2  A    between atoms: C6_6  and  N1_7 
ROOT
HETATM    1  C1  UNL     1      -2.388   4.887  -3.049  1.00  0.00     0.026 A 
HETATM    2  C2  UNL     1      -1.996   3.774  -3.796  1.00  0.00     0.038 A 
HETATM    3  C3  UNL     1      -1.457   2.669  -3.152  1.00  0.00     0.065 A 
HETATM    4  C4  UNL     1      -1.320   2.653  -1.768  1.00  0.00     0.038 A 
HETATM    5  C5  UNL     1      -1.714   3.771  -1.028  1.00  0.00     0.026 A 
HETATM    6  C6  UNL     1      -2.204   4.917  -1.663  1.00  0.00     0.005 A 
ENDROOT
BRANCH   6   7
HETATM    7  N1  UNL     1      -2.705   5.982  -0.907  1.00  0.00    -0.303 NA
HETATM    8  H5  UNL     1      -2.282   6.065   0.012  1.00  0.00     0.124 HD
HETATM    9  H6  UNL     1      -3.719   6.018  -0.871  1.00  0.00     0.124 HD
ENDBRANCH   6   7
BRANCH   3  10
HETATM   10  O1  UNL     1      -1.089   1.602  -3.915  1.00  0.00    -0.361 OA
HETATM   11  H7  UNL     1      -1.423   1.736  -4.817  1.00  0.00     0.217 HD
ENDBRANCH   3  10
TORSDOF 2
ENDMDL
MODEL 17
REMARK VINA RESULT:      -2.4      7.573      8.267
REMARK  2 active torsions:
REMARK  status: ('A' for Active; 'I' for Inactive)
REMARK    1  A    between atoms: C3_3  and  O1_8 
REMARK    2  A    between atoms: C6_6  and  N1_7 
ROOT
HETATM    1  C1  UNL     1     -11.658  15.087   2.854  1.00  0.00     0.026 A 
HETATM    2  C2  UNL     1     -11.008  14.737   1.668  1.00  0.00     0.038 A 
HETATM    3  C3  UNL     1      -9.705  14.264   1.712  1.00  0.00     0.065 A 
HETATM    4  C4  UNL     1      -9.044  14.120   2.926  1.00  0.00     0.038 A 
HETATM    5  C5  UNL     1      -9.699  14.473   4.110  1.00  0.00     0.026 A 
HETATM    6  C6  UNL     1     -10.992  15.007   4.081  1.00  0.00     0.005 A 
ENDROOT
BRANCH   6   7
HETATM    7  N1  UNL     1     -11.682  15.245   5.275  1.00  0.00    -0.303 NA
HETATM    8  H5  UNL     1     -12.132  14.419   5.658  1.00  0.00     0.124 HD
HETATM    9  H6  UNL     1     -12.307  16.043   5.236  1.00  0.00     0.124 HD
ENDBRANCH   6   7
BRANCH   3  10
HETATM   10  O1  UNL     1      -9.107  13.930   0.533  1.00  0.00    -0.361 OA
HETATM   11  H7  UNL     1      -8.153  14.087   0.615  1.00  0.00     0.217 HD
ENDBRANCH   3  10
TORSDOF 2
ENDMDL
MODEL 18
REMARK VINA RESULT:      -2.3      6.116      6.981
REMARK  2 active torsions:
REMARK  status: ('A' for Active; 'I' for Inactive)
REMARK    1  A    between atoms: C3_3  and  O1_8 
REMARK    2  A    between atoms: C6_6  and  N1_7 
ROOT
HETATM    1  C1  UNL     1      -9.455  13.948   3.102  1.00  0.00     0.026 A 
HETATM    2  C2  UNL     1      -8.503  14.252   4.077  1.00  0.00     0.038 A 
HETATM    3  C3  UNL     1      -8.135  15.573   4.292  1.00  0.00     0.065 A 
HETATM    4  C4  UNL     1      -8.718  16.598   3.555  1.00  0.00     0.038 A 
HETATM    5  C5  UNL     1      -9.670  16.286   2.580  1.00  0.00     0.026 A 
HETATM    6  C6  UNL     1     -10.010  14.957   2.309  1.00  0.00     0.005 A 
ENDROOT
BRANCH   6   7
HETATM    7  N1  UNL     1     -11.047  14.663   1.416  1.00  0.00    -0.303 NA
HETATM    8  H5  UNL     1     -11.007  13.720   1.041  1.00  0.00     0.124 HD
HETATM    9  H6  UNL     1     -11.176  15.362   0.693  1.00  0.00     0.124 HD
ENDBRANCH   6   7
BRANCH   3  10
HETATM   10  O1  UNL     1      -7.205  15.829   5.254  1.00  0.00    -0.361 OA
HETATM   11  H7  UNL     1      -7.330  15.198   5.981  1.00  0.00     0.217 HD
ENDBRANCH   3  10
TORSDOF 2
ENDMDL
MODEL 19
REMARK VINA RESULT:      -2.2      9.321     10.034
REMARK  2 active torsions:
REMARK  status: ('A' for Active; 'I' for Inactive)
REMARK    1  A    between atoms: C3_3  and  O1_8 
REMARK    2  A    between atoms: C6_6  and  N1_7 
ROOT
HETATM    1  C1  UNL     1     -10.574  14.584   1.707  1.00  0.00     0.026 A 
HETATM    2  C2  UNL     1      -9.589  14.086   0.851  1.00  0.00     0.038 A 
HETATM    3  C3  UNL     1      -9.188  14.836  -0.246  1.00  0.00     0.065 A 
HETATM    4  C4  UNL     1      -9.746  16.085  -0.492  1.00  0.00     0.038 A 
HETATM    5  C5  UNL     1     -10.733  16.576   0.369  1.00  0.00     0.026 A 
HETATM    6  C6  UNL     1     -11.192  15.811   1.445  1.00  0.00     0.005 A 
ENDROOT
BRANCH   6   7
HETATM    7  N1  UNL     1     -12.091  16.358   2.367  1.00  0.00    -0.303 NA
HETATM    8  H5  UNL     1     -12.343  17.321   2.168  1.00  0.00     0.124 HD
HETATM    9  H6  UNL     1     -11.820  16.222   3.335  1.00  0.00     0.124 HD
ENDBRANCH   6   7
BRANCH   3  10
HETATM   10  O1  UNL     1      -8.222  14.317  -1.056  1.00  0.00    -0.361 OA
HETATM   11  H7  UNL     1      -8.646  13.746  -1.716  1.00  0.00     0.217 HD
ENDBRANCH   3  10
TORSDOF 2
ENDMDL
MODEL 20
REMARK VINA RESULT:      -2.2     16.435     16.734
REMARK  2 active torsions:
REMARK  status: ('A' for Active; 'I' for Inactive)
REMARK    1  A    between atoms: C3_3  and  O1_8 
REMARK    2  A    between atoms: C6_6  and  N1_7 
ROOT
HETATM    1  C1  UNL     1       1.177  15.618  -6.865  1.00  0.00     0.026 A 
HETATM    2  C2  UNL     1      -0.082  16.222  -6.838  1.00  0.00     0.038 A 
HETATM    3  C3  UNL     1      -1.224  15.435  -6.879  1.00  0.00     0.065 A 
HETATM    4  C4  UNL     1      -1.127  14.049  -6.930  1.00  0.00     0.038 A 
HETATM    5  C5  UNL     1       0.136  13.451  -6.958  1.00  0.00     0.026 A 
HETATM    6  C6  UNL     1       1.298  14.229  -6.977  1.00  0.00     0.005 A 
ENDROOT
BRANCH   6   7
HETATM    7  N1  UNL     1       2.555  13.621  -6.885  1.00  0.00    -0.303 NA
HETATM    8  H5  UNL     1       2.513  12.622  -6.710  1.00  0.00     0.124 HD
HETATM    9  H6  UNL     1       3.196  14.097  -6.260  1.00  0.00     0.124 HD
ENDBRANCH   6   7
BRANCH   3  10
HETATM   10  O1  UNL     1      -2.433  16.063  -6.847  1.00  0.00    -0.361 OA
HETATM   11  H7  UNL     1      -2.759  16.061  -5.933  1.00  0.00     0.217 HD
ENDBRANCH   3  10
TORSDOF 2
ENDMDL
