MODEL 1
REMARK VINA RESULT:      -5.0      0.000      0.000
REMARK  2 active torsions:
REMARK  status: ('A' for Active; 'I' for Inactive)
REMARK    1  A    between atoms: C3_3  and  O1_8 
REMARK    2  A    between atoms: C6_6  and  N1_7 
ROOT
HETATM    1  C1  UNL     1      -5.711   1.947 -14.563  1.00  0.00     0.026 A 
HETATM    2  C2  UNL     1      -4.386   2.365 -14.424  1.00  0.00     0.038 A 
HETATM    3  C3  UNL     1      -3.519   2.273 -15.504  1.00  0.00     0.065 A 
HETATM    4  C4  UNL     1      -3.962   1.782 -16.727  1.00  0.00     0.038 A 
HETATM    5  C5  UNL     1      -5.289   1.364 -16.858  1.00  0.00     0.026 A 
HETATM    6  C6  UNL     1      -6.162   1.395 -15.765  1.00  0.00     0.005 A 
ENDROOT
BRANCH   6   7
HETATM    7  N1  UNL     1      -7.517   1.087 -15.937  1.00  0.00    -0.303 NA
HETATM    8  H5  UNL     1      -8.010   0.918 -15.065  1.00  0.00     0.124 HD
HETATM    9  H6  UNL     1      -7.689   0.363 -16.625  1.00  0.00     0.124 HD
ENDBRANCH   6   7
BRANCH   3  10
HETATM   10  O1  UNL     1      -2.235   2.693 -15.329  1.00  0.00    -0.361 OA
HETATM   11  H7  UNL     1      -2.089   3.480 -15.879  1.00  0.00     0.217 HD
ENDBRANCH   3  10
TORSDOF 2
ENDMDL
MODEL 2
REMARK VINA RESULT:      -4.9      2.783      3.683
REMARK  2 active torsions:
REMARK  status: ('A' for Active; 'I' for Inactive)
REMARK    1  A    between atoms: C3_3  and  O1_8 
REMARK    2  A    between atoms: C6_6  and  N1_7 
ROOT
HETATM    1  C1  UNL     1      -4.159   1.768 -16.745  1.00  0.00     0.026 A 
HETATM    2  C2  UNL     1      -5.501   1.405 -16.879  1.00  0.00     0.038 A 
HETATM    3  C3  UNL     1      -6.334   1.426 -15.769  1.00  0.00     0.065 A 
HETATM    4  C4  UNL     1      -5.848   1.822 -14.528  1.00  0.00     0.038 A 
HETATM    5  C5  UNL     1      -4.504   2.183 -14.401  1.00  0.00     0.026 A 
HETATM    6  C6  UNL     1      -3.635   2.111 -15.495  1.00  0.00     0.005 A 
ENDROOT
BRANCH   6   7
HETATM    7  N1  UNL     1      -2.324   2.587 -15.386  1.00  0.00    -0.303 NA
HETATM    8  H5  UNL     1      -1.629   1.964 -15.786  1.00  0.00     0.124 HD
HETATM    9  H6  UNL     1      -2.075   2.894 -14.452  1.00  0.00     0.124 HD
ENDBRANCH   6   7
BRANCH   3  10
HETATM   10  O1  UNL     1      -7.637   1.068 -15.942  1.00  0.00    -0.361 OA
HETATM   11  H7  UNL     1      -8.156   1.421 -15.202  1.00  0.00     0.217 HD
ENDBRANCH   3  10
TORSDOF 2
ENDMDL
MODEL 3
REMARK VINA RESULT:      -4.7     23.265     23.439
REMARK  2 active torsions:
REMARK  status: ('A' for Active; 'I' for Inactive)
REMARK    1  A    between atoms: C3_3  and  O1_8 
REMARK    2  A    between atoms: C6_6  and  N1_7 
ROOT
HETATM    1  C1  UNL     1       7.555 -11.333  -0.559  1.00  0.00     0.026 A 
HETATM    2  C2  UNL     1       7.141 -10.358   0.351  1.00  0.00     0.038 A 
HETATM    3  C3  UNL     1       5.853 -10.401   0.866  1.00  0.00     0.065 A 
HETATM    4  C4  UNL     1       4.977 -11.416   0.497  1.00  0.00     0.038 A 
HETATM    5  C5  UNL     1       5.398 -12.388  -0.415  1.00  0.00     0.026 A 
HETATM    6  C6  UNL     1       6.672 -12.327  -0.990  1.00  0.00     0.005 A 
ENDROOT
BRANCH   6   7
HETATM    7  N1  UNL     1       7.125 -13.368  -1.809  1.00  0.00    -0.303 NA
HETATM    8  H5  UNL     1       7.120 -13.141  -2.798  1.00  0.00     0.124 HD
HETATM    9  H6  UNL     1       6.688 -14.263  -1.615  1.00  0.00     0.124 HD
ENDBRANCH   6   7
BRANCH   3  10
HETATM   10  O1  UNL     1       5.487  -9.434   1.753  1.00  0.00    -0.361 OA
HETATM   11  H7  UNL     1       4.645  -9.690   2.162  1.00  0.00     0.217 HD
ENDBRANCH   3  10
TORSDOF 2
ENDMDL
MODEL 4
REMARK VINA RESULT:      -4.5     29.923     30.467
REMARK  2 active torsions:
REMARK  status: ('A' for Active; 'I' for Inactive)
REMARK    1  A    between atoms: C3_3  and  O1_8 
REMARK    2  A    between atoms: C6_6  and  N1_7 
ROOT
HETATM    1  C1  UNL     1      -2.527   3.964  14.809  1.00  0.00     0.026 A 
HETATM    2  C2  UNL     1      -2.577   5.090  13.984  1.00  0.00     0.038 A 
HETATM    3  C3  UNL     1      -3.793   5.715  13.747  1.00  0.00     0.065 A 
HETATM    4  C4  UNL     1      -4.959   5.242  14.338  1.00  0.00     0.038 A 
HETATM    5  C5  UNL     1      -4.901   4.114  15.162  1.00  0.00     0.026 A 
HETATM    6  C6  UNL     1      -3.695   3.435  15.365  1.00  0.00     0.005 A 
ENDROOT
BRANCH   6   7
HETATM    7  N1  UNL     1      -3.625   2.382  16.284  1.00  0.00    -0.303 NA
HETATM    8  H5  UNL     1      -3.571   1.465  15.850  1.00  0.00     0.124 HD
HETATM    9  H6  UNL     1      -4.331   2.424  17.011  1.00  0.00     0.124 HD
ENDBRANCH   6   7
BRANCH   3  10
HETATM   10  O1  UNL     1      -3.800   6.812  12.939  1.00  0.00    -0.361 OA
HETATM   11  H7  UNL     1      -3.572   6.534  12.037  1.00  0.00     0.217 HD
ENDBRANCH   3  10
TORSDOF 2
ENDMDL
MODEL 5
REMARK VINA RESULT:      -4.3     13.362     14.134
REMARK  2 active torsions:
REMARK  status: ('A' for Active; 'I' for Inactive)
REMARK    1  A    between atoms: C3_3  and  O1_8 
REMARK    2  A    between atoms: C6_6  and  N1_7 
ROOT
HETATM    1  C1  UNL     1       8.452   4.827 -10.877  1.00  0.00     0.026 A 
HETATM    2  C2  UNL     1       9.318   3.756 -11.109  1.00  0.00     0.038 A 
HETATM    3  C3  UNL     1       8.909   2.464 -10.814  1.00  0.00     0.065 A 
HETATM    4  C4  UNL     1       7.638   2.223 -10.304  1.00  0.00     0.038 A 
HETATM    5  C5  UNL     1       6.777   3.299 -10.073  1.00  0.00     0.026 A 
HETATM    6  C6  UNL     1       7.192   4.614 -10.310  1.00  0.00     0.005 A 
ENDROOT
BRANCH   6   7
HETATM    7  N1  UNL     1       6.284   5.672 -10.189  1.00  0.00    -0.303 NA
HETATM    8  H5  UNL     1       6.537   6.490 -10.735  1.00  0.00     0.124 HD
HETATM    9  H6  UNL     1       6.051   5.905  -9.230  1.00  0.00     0.124 HD
ENDBRANCH   6   7
BRANCH   3  10
HETATM   10  O1  UNL     1       9.782   1.446 -11.057  1.00  0.00    -0.361 OA
HETATM   11  H7  UNL     1      10.571   1.577 -10.507  1.00  0.00     0.217 HD
ENDBRANCH   3  10
TORSDOF 2
ENDMDL
MODEL 6
REMARK VINA RESULT:      -4.3     23.108     23.352
REMARK  2 active torsions:
REMARK  status: ('A' for Active; 'I' for Inactive)
REMARK    1  A    between atoms: C3_3  and  O1_8 
REMARK    2  A    between atoms: C6_6  and  N1_7 
ROOT
HETATM    1  C1  UNL     1       6.458 -10.336   0.569  1.00  0.00     0.026 A 
HETATM    2  C2  UNL     1       5.129 -10.754   0.661  1.00  0.00     0.038 A 
HETATM    3  C3  UNL     1       4.698 -11.846  -0.079  1.00  0.00     0.065 A 
HETATM    4  C4  UNL     1       5.582 -12.538  -0.899  1.00  0.00     0.038 A 
HETATM    5  C5  UNL     1       6.911 -12.114  -0.987  1.00  0.00     0.026 A 
HETATM    6  C6  UNL     1       7.349 -10.980  -0.295  1.00  0.00     0.005 A 
ENDROOT
BRANCH   6   7
HETATM    7  N1  UNL     1       8.705 -10.635  -0.295  1.00  0.00    -0.303 NA
HETATM    8  H5  UNL     1       8.972 -10.032  -1.067  1.00  0.00     0.124 HD
HETATM    9  H6  UNL     1       9.331 -11.426  -0.190  1.00  0.00     0.124 HD
ENDBRANCH   6   7
BRANCH   3  10
HETATM   10  O1  UNL     1       3.394 -12.224   0.041  1.00  0.00    -0.361 OA
HETATM   11  H7  UNL     1       3.311 -12.812   0.808  1.00  0.00     0.217 HD
ENDBRANCH   3  10
TORSDOF 2
ENDMDL
MODEL 7
REMARK VINA RESULT:      -4.3     30.201     30.756
REMARK  2 active torsions:
REMARK  status: ('A' for Active; 'I' for Inactive)
REMARK    1  A    between atoms: C3_3  and  O1_8 
REMARK    2  A    between atoms: C6_6  and  N1_7 
ROOT
HETATM    1  C1  UNL     1      -2.506   5.337  14.631  1.00  0.00     0.026 A 
HETATM    2  C2  UNL     1      -2.391   4.241  15.490  1.00  0.00     0.038 A 
HETATM    3  C3  UNL     1      -3.493   3.431  15.723  1.00  0.00     0.065 A 
HETATM    4  C4  UNL     1      -4.707   3.691  15.097  1.00  0.00     0.038 A 
HETATM    5  C5  UNL     1      -4.816   4.790  14.240  1.00  0.00     0.026 A 
HETATM    6  C6  UNL     1      -3.732   5.651  14.039  1.00  0.00     0.005 A 
ENDROOT
BRANCH   6   7
HETATM    7  N1  UNL     1      -3.815   6.677  13.090  1.00  0.00    -0.303 NA
HETATM    8  H5  UNL     1      -3.069   7.361  13.163  1.00  0.00     0.124 HD
HETATM    9  H6  UNL     1      -4.731   7.109  13.031  1.00  0.00     0.124 HD
ENDBRANCH   6   7
BRANCH   3  10
HETATM   10  O1  UNL     1      -3.339   2.370  16.565  1.00  0.00    -0.361 OA
HETATM   11  H7  UNL     1      -2.475   1.963  16.395  1.00  0.00     0.217 HD
ENDBRANCH   3  10
TORSDOF 2
ENDMDL
MODEL 8
REMARK VINA RESULT:      -4.3     13.488     14.226
REMARK  2 active torsions:
REMARK  status: ('A' for Active; 'I' for Inactive)
REMARK    1  A    between atoms: C3_3  and  O1_8 
REMARK    2  A    between atoms: C6_6  and  N1_7 
ROOT
HETATM    1  C1  UNL     1       7.671   2.335 -10.331  1.00  0.00     0.026 A 
HETATM    2  C2  UNL     1       6.801   3.393 -10.059  1.00  0.00     0.038 A 
HETATM    3  C3  UNL     1       7.180   4.692 -10.367  1.00  0.00     0.065 A 
HETATM    4  C4  UNL     1       8.412   4.948 -10.959  1.00  0.00     0.038 A 
HETATM    5  C5  UNL     1       9.278   3.884 -11.227  1.00  0.00     0.026 A 
HETATM    6  C6  UNL     1       8.938   2.575 -10.870  1.00  0.00     0.005 A 
ENDROOT
BRANCH   6   7
HETATM    7  N1  UNL     1       9.757   1.506 -11.250  1.00  0.00    -0.303 NA
HETATM    8  H5  UNL     1       9.284   0.608 -11.246  1.00  0.00     0.124 HD
HETATM    9  H6  UNL     1      10.646   1.476 -10.762  1.00  0.00     0.124 HD
ENDBRANCH   6   7
BRANCH   3  10
HETATM   10  O1  UNL     1       6.303   5.696 -10.088  1.00  0.00    -0.361 OA
HETATM   11  H7  UNL     1       5.944   5.556  -9.197  1.00  0.00     0.217 HD
ENDBRANCH   3  10
TORSDOF 2
ENDMDL
MODEL 9
REMARK VINA RESULT:      -4.3     31.781     32.649
REMARK  2 active torsions:
REMARK  status: ('A' for Active; 'I' for Inactive)
REMARK    1  A    between atoms: C3_3  and  O1_8 
REMARK    2  A    between atoms: C6_6  and  N1_7 
ROOT
HETATM    1  C1  UNL     1     -19.830  -6.617  12.033  1.00  0.00     0.026 A 
HETATM    2  C2  UNL     1     -19.627  -6.918  13.381  1.00  0.00     0.038 A 
HETATM    3  C3  UNL     1     -18.441  -7.516  13.781  1.00  0.00     0.065 A 
HETATM    4  C4  UNL     1     -17.446  -7.804  12.853  1.00  0.00     0.038 A 
HETATM    5  C5  UNL     1     -17.657  -7.501  11.505  1.00  0.00     0.026 A 
HETATM    6  C6  UNL     1     -18.869  -6.952  11.075  1.00  0.00     0.005 A 
ENDROOT
BRANCH   6   7
HETATM    7  N1  UNL     1     -19.025  -6.543   9.745  1.00  0.00    -0.303 NA
HETATM    8  H5  UNL     1     -19.193  -7.309   9.100  1.00  0.00     0.124 HD
HETATM    9  H6  UNL     1     -18.296  -5.917   9.420  1.00  0.00     0.124 HD
ENDBRANCH   6   7
BRANCH   3  10
HETATM   10  O1  UNL     1     -18.279  -7.792  15.105  1.00  0.00    -0.361 OA
HETATM   11  H7  UNL     1     -17.436  -8.257  15.225  1.00  0.00     0.217 HD
ENDBRANCH   3  10
TORSDOF 2
ENDMDL
