HETATM    1  C1  UNL     1       6.896   4.592  -7.143  1.00  0.00     0.026 A 
HETATM    2  C2  UNL     1       7.767   3.926  -8.008  1.00  0.00     0.038 A 
HETATM    3  C3  UNL     1       9.138   4.060  -7.841  1.00  0.00     0.065 A 
HETATM    4  C4  UNL     1       9.652   4.838  -6.810  1.00  0.00     0.038 A 
HETATM    5  C5  UNL     1       8.774   5.502  -5.949  1.00  0.00     0.026 A 
HETATM    6  C6  UNL     1       7.391   5.427  -6.137  1.00  0.00     0.005 A 
HETATM    7  N1  UNL     1       6.520   5.996  -5.201  1.00  0.00    -0.303 NA
HETATM    8  H5  UNL     1       6.982   6.601  -4.529  1.00  0.00     0.124 HD
HETATM    9  H6  UNL     1       5.900   5.327  -4.757  1.00  0.00     0.124 HD
HETATM   10  O1  UNL     1       9.954   3.393  -8.704  1.00  0.00    -0.361 OA
HETATM   11  H7  UNL     1      10.806   3.237  -8.266  1.00  0.00     0.217 HD
HETATM    1  C1  UNL     1       8.769   5.465  -5.912  1.00  0.00     0.026 A 
HETATM    2  C2  UNL     1       9.638   4.825  -6.799  1.00  0.00     0.038 A 
HETATM    3  C3  UNL     1       9.123   4.061  -7.836  1.00  0.00     0.065 A 
HETATM    4  C4  UNL     1       7.749   3.941  -8.012  1.00  0.00     0.038 A 
HETATM    5  C5  UNL     1       6.885   4.583  -7.120  1.00  0.00     0.026 A 
HETATM    6  C6  UNL     1       7.385   5.308  -6.034  1.00  0.00     0.005 A 
HETATM    7  N1  UNL     1       6.518   6.044  -5.218  1.00  0.00    -0.303 NA
HETATM    8  H5  UNL     1       5.654   6.312  -5.679  1.00  0.00     0.124 HD
HETATM    9  H6  UNL     1       6.962   6.825  -4.746  1.00  0.00     0.124 HD
HETATM   10  O1  UNL     1      10.004   3.455  -8.681  1.00  0.00    -0.361 OA
HETATM   11  H7  UNL     1      10.861   3.378  -8.233  1.00  0.00     0.217 HD
HETATM    1  C1  UNL     1       9.528   4.807  -6.839  1.00  0.00     0.026 A 
HETATM    2  C2  UNL     1       8.677   5.481  -5.960  1.00  0.00     0.038 A 
HETATM    3  C3  UNL     1       7.303   5.388  -6.125  1.00  0.00     0.065 A 
HETATM    4  C4  UNL     1       6.764   4.617  -7.150  1.00  0.00     0.038 A 
HETATM    5  C5  UNL     1       7.621   3.947  -8.027  1.00  0.00     0.026 A 
HETATM    6  C6  UNL     1       9.009   4.076  -7.912  1.00  0.00     0.005 A 
HETATM    7  N1  UNL     1       9.857   3.308  -8.718  1.00  0.00    -0.303 NA
HETATM    8  H5  UNL     1       9.393   2.527  -9.170  1.00  0.00     0.124 HD
HETATM    9  H6  UNL     1      10.720   3.033  -8.261  1.00  0.00     0.124 HD
HETATM   10  O1  UNL     1       6.507   6.058  -5.245  1.00  0.00    -0.361 OA
HETATM   11  H7  UNL     1       5.581   5.830  -5.429  1.00  0.00     0.217 HD
HETATM    1  C1  UNL     1       7.597   3.731  -8.192  1.00  0.00     0.026 A 
HETATM    2  C2  UNL     1       6.819   4.493  -7.317  1.00  0.00     0.038 A 
HETATM    3  C3  UNL     1       7.437   5.292  -6.366  1.00  0.00     0.065 A 
HETATM    4  C4  UNL     1       8.824   5.354  -6.287  1.00  0.00     0.038 A 
HETATM    5  C5  UNL     1       9.596   4.588  -7.165  1.00  0.00     0.026 A 
HETATM    6  C6  UNL     1       8.992   3.732  -8.091  1.00  0.00     0.005 A 
HETATM    7  N1  UNL     1       9.768   3.062  -9.043  1.00  0.00    -0.303 NA
HETATM    8  H5  UNL     1      10.572   2.582  -8.649  1.00  0.00     0.124 HD
HETATM    9  H6  UNL     1      10.013   3.630  -9.847  1.00  0.00     0.124 HD
HETATM   10  O1  UNL     1       6.644   6.022  -5.533  1.00  0.00    -0.361 OA
HETATM   11  H7  UNL     1       6.889   5.820  -4.616  1.00  0.00     0.217 HD
HETATM    1  C1  UNL     1      10.126   4.558  -7.333  1.00  0.00     0.026 A 
HETATM    2  C2  UNL     1       9.182   3.769  -7.995  1.00  0.00     0.038 A 
HETATM    3  C3  UNL     1       7.853   3.808  -7.597  1.00  0.00     0.065 A 
HETATM    4  C4  UNL     1       7.450   4.638  -6.556  1.00  0.00     0.038 A 
HETATM    5  C5  UNL     1       8.400   5.423  -5.898  1.00  0.00     0.026 A 
HETATM    6  C6  UNL     1       9.753   5.353  -6.245  1.00  0.00     0.005 A 
HETATM    7  N1  UNL     1      10.677   6.229  -5.663  1.00  0.00    -0.303 NA
HETATM    8  H5  UNL     1      11.451   6.471  -6.273  1.00  0.00     0.124 HD
HETATM    9  H6  UNL     1      10.988   5.943  -4.740  1.00  0.00     0.124 HD
HETATM   10  O1  UNL     1       6.962   3.027  -8.269  1.00  0.00    -0.361 OA
HETATM   11  H7  UNL     1       7.434   2.552  -8.972  1.00  0.00     0.217 HD
HETATM    1  C1  UNL     1       7.048   4.772  -7.017  1.00  0.00     0.026 A 
HETATM    2  C2  UNL     1       7.014   5.219  -5.694  1.00  0.00     0.038 A 
HETATM    3  C3  UNL     1       8.201   5.392  -4.996  1.00  0.00     0.065 A 
HETATM    4  C4  UNL     1       9.425   5.140  -5.607  1.00  0.00     0.038 A 
HETATM    5  C5  UNL     1       9.450   4.692  -6.931  1.00  0.00     0.026 A 
HETATM    6  C6  UNL     1       8.263   4.455  -7.631  1.00  0.00     0.005 A 
HETATM    7  N1  UNL     1       8.301   4.121  -8.990  1.00  0.00    -0.303 NA
HETATM    8  H5  UNL     1       8.560   4.896  -9.593  1.00  0.00     0.124 HD
HETATM    9  H6  UNL     1       7.471   3.638  -9.317  1.00  0.00     0.124 HD
HETATM   10  O1  UNL     1       8.127   5.833  -3.709  1.00  0.00    -0.361 OA
HETATM   11  H7  UNL     1       7.359   6.421  -3.627  1.00  0.00     0.217 HD
HETATM    1  C1  UNL     1       9.338   3.912  -7.894  1.00  0.00     0.026 A 
HETATM    2  C2  UNL     1      10.250   4.737  -7.232  1.00  0.00     0.038 A 
HETATM    3  C3  UNL     1       9.829   5.499  -6.152  1.00  0.00     0.065 A 
HETATM    4  C4  UNL     1       8.511   5.437  -5.712  1.00  0.00     0.038 A 
HETATM    5  C5  UNL     1       7.604   4.611  -6.381  1.00  0.00     0.026 A 
HETATM    6  C6  UNL     1       7.995   3.880  -7.508  1.00  0.00     0.005 A 
HETATM    7  N1  UNL     1       7.113   2.966  -8.096  1.00  0.00    -0.303 NA
HETATM    8  H5  UNL     1       7.535   2.065  -8.299  1.00  0.00     0.124 HD
HETATM    9  H6  UNL     1       6.602   3.341  -8.888  1.00  0.00     0.124 HD
HETATM   10  O1  UNL     1      10.750   6.289  -5.530  1.00  0.00    -0.361 OA
HETATM   11  H7  UNL     1      11.550   5.764  -5.369  1.00  0.00     0.217 HD
HETATM    1  C1  UNL     1       7.023   5.010  -5.920  1.00  0.00     0.026 A 
HETATM    2  C2  UNL     1       7.127   4.564  -7.240  1.00  0.00     0.038 A 
HETATM    3  C3  UNL     1       8.380   4.409  -7.817  1.00  0.00     0.065 A 
HETATM    4  C4  UNL     1       9.533   4.678  -7.087  1.00  0.00     0.038 A 
HETATM    5  C5  UNL     1       9.421   5.125  -5.767  1.00  0.00     0.026 A 
HETATM    6  C6  UNL     1       8.166   5.343  -5.188  1.00  0.00     0.005 A 
HETATM    7  N1  UNL     1       8.064   5.675  -3.833  1.00  0.00    -0.303 NA
HETATM    8  H5  UNL     1       8.904   6.101  -3.453  1.00  0.00     0.124 HD
HETATM    9  H6  UNL     1       7.716   4.921  -3.251  1.00  0.00     0.124 HD
HETATM   10  O1  UNL     1       8.440   3.969  -9.105  1.00  0.00    -0.361 OA
HETATM   11  H7  UNL     1       7.537   3.920  -9.458  1.00  0.00     0.217 HD
