MODEL 1
REMARK VINA RESULT:      -3.7      0.000      0.000
REMARK  2 active torsions:
REMARK  status: ('A' for Active; 'I' for Inactive)
REMARK    1  A    between atoms: C3_3  and  O1_10 
REMARK    2  A    between atoms: C6_6  and  N1_7 
ROOT
HETATM    1  C1  PAP L   1      11.276   2.559  -6.032  1.00  0.00     0.026 A 
HETATM    2  C2  PAP L   1      11.784   3.715  -5.432  1.00  0.00     0.038 A 
HETATM    3  C3  PAP L   1      11.005   4.416  -4.522  1.00  0.00     0.065 A 
HETATM    4  C4  PAP L   1       9.731   3.971  -4.189  1.00  0.00     0.038 A 
HETATM    5  C5  PAP L   1       9.229   2.815  -4.795  1.00  0.00     0.026 A 
HETATM    6  C6  PAP L   1       9.975   2.128  -5.758  1.00  0.00     0.005 A 
ENDROOT
BRANCH   6   7
HETATM    7  N1  PAP L   1       9.514   0.909  -6.268  1.00  0.00    -0.303 NA
HETATM    8  H5  PAP L   1       9.487   0.163  -5.581  1.00  0.00     0.124 HD
HETATM    9  H6  PAP L   1       9.973   0.624  -7.128  1.00  0.00     0.124 HD
ENDBRANCH   6   7
BRANCH   3  10
HETATM   10  O1  PAP L   1      11.537   5.536  -3.956  1.00  0.00    -0.361 OA
HETATM   11  H7  PAP L   1      11.372   6.289  -4.546  1.00  0.00     0.217 HD
ENDBRANCH   3  10
TORSDOF 2
ENDMDL
MODEL 2
REMARK VINA RESULT:      -3.7      2.780      3.265
REMARK  2 active torsions:
REMARK  status: ('A' for Active; 'I' for Inactive)
REMARK    1  A    between atoms: C3_3  and  O1_10 
REMARK    2  A    between atoms: C6_6  and  N1_7 
ROOT
HETATM    1  C1  PAP L   1      11.826   3.550  -5.460  1.00  0.00     0.026 A 
HETATM    2  C2  PAP L   1      11.311   2.380  -6.024  1.00  0.00     0.038 A 
HETATM    3  C3  PAP L   1      10.020   1.978  -5.712  1.00  0.00     0.065 A 
HETATM    4  C4  PAP L   1       9.228   2.736  -4.857  1.00  0.00     0.038 A 
HETATM    5  C5  PAP L   1       9.751   3.906  -4.296  1.00  0.00     0.026 A 
HETATM    6  C6  PAP L   1      11.070   4.296  -4.552  1.00  0.00     0.005 A 
ENDROOT
BRANCH   6   7
HETATM    7  N1  PAP L   1      11.543   5.527  -4.083  1.00  0.00    -0.303 NA
HETATM    8  H5  PAP L   1      10.809   6.203  -3.900  1.00  0.00     0.124 HD
HETATM    9  H6  PAP L   1      12.296   5.917  -4.642  1.00  0.00     0.124 HD
ENDBRANCH   6   7
BRANCH   3  10
HETATM   10  O1  PAP L   1       9.553   0.832  -6.283  1.00  0.00    -0.361 OA
HETATM   11  H7  PAP L   1       8.817   1.058  -6.874  1.00  0.00     0.217 HD
ENDBRANCH   3  10
TORSDOF 2
ENDMDL
MODEL 3
REMARK VINA RESULT:      -3.7      0.095      1.706
REMARK  2 active torsions:
REMARK  status: ('A' for Active; 'I' for Inactive)
REMARK    1  A    between atoms: C3_3  and  O1_10 
REMARK    2  A    between atoms: C6_6  and  N1_7 
ROOT
HETATM    1  C1  PAP L   1       9.254   2.815  -4.788  1.00  0.00     0.026 A 
HETATM    2  C2  PAP L   1       9.761   3.996  -4.240  1.00  0.00     0.038 A 
HETATM    3  C3  PAP L   1      11.019   4.445  -4.618  1.00  0.00     0.065 A 
HETATM    4  C4  PAP L   1      11.772   3.739  -5.550  1.00  0.00     0.038 A 
HETATM    5  C5  PAP L   1      11.259   2.558  -6.093  1.00  0.00     0.026 A 
HETATM    6  C6  PAP L   1      10.019   2.058  -5.681  1.00  0.00     0.005 A 
ENDROOT
BRANCH   6   7
HETATM    7  N1  PAP L   1       9.462   0.943  -6.316  1.00  0.00    -0.303 NA
HETATM    8  H5  PAP L   1       9.495   0.096  -5.758  1.00  0.00     0.124 HD
HETATM    9  H6  PAP L   1       9.803   0.796  -7.261  1.00  0.00     0.124 HD
ENDBRANCH   6   7
BRANCH   3  10
HETATM   10  O1  PAP L   1      11.477   5.602  -4.064  1.00  0.00    -0.361 OA
HETATM   11  H7  PAP L   1      11.455   5.513  -3.097  1.00  0.00     0.217 HD
ENDBRANCH   3  10
TORSDOF 2
ENDMDL
MODEL 4
REMARK VINA RESULT:      -3.6      2.777      3.678
REMARK  2 active torsions:
REMARK  status: ('A' for Active; 'I' for Inactive)
REMARK    1  A    between atoms: C3_3  and  O1_10 
REMARK    2  A    between atoms: C6_6  and  N1_7 
ROOT
HETATM    1  C1  PAP L   1       9.776   4.031  -4.174  1.00  0.00     0.026 A 
HETATM    2  C2  PAP L   1       9.169   2.886  -4.697  1.00  0.00     0.038 A 
HETATM    3  C3  PAP L   1       9.835   2.129  -5.650  1.00  0.00     0.065 A 
HETATM    4  C4  PAP L   1      11.108   2.489  -6.079  1.00  0.00     0.038 A 
HETATM    5  C5  PAP L   1      11.709   3.636  -5.552  1.00  0.00     0.026 A 
HETATM    6  C6  PAP L   1      11.030   4.445  -4.634  1.00  0.00     0.005 A 
ENDROOT
BRANCH   6   7
HETATM    7  N1  PAP L   1      11.684   5.522  -4.025  1.00  0.00    -0.303 NA
HETATM    8  H5  PAP L   1      11.159   6.389  -4.057  1.00  0.00     0.124 HD
HETATM    9  H6  PAP L   1      12.646   5.641  -4.326  1.00  0.00     0.124 HD
ENDBRANCH   6   7
BRANCH   3  10
HETATM   10  O1  PAP L   1       9.211   1.019  -6.134  1.00  0.00    -0.361 OA
HETATM   11  H7  PAP L   1       8.965   0.451  -5.386  1.00  0.00     0.217 HD
ENDBRANCH   3  10
TORSDOF 2
ENDMDL
MODEL 5
REMARK VINA RESULT:      -3.3      1.177      1.976
REMARK  2 active torsions:
REMARK  status: ('A' for Active; 'I' for Inactive)
REMARK    1  A    between atoms: C3_3  and  O1_10 
REMARK    2  A    between atoms: C6_6  and  N1_7 
ROOT
HETATM    1  C1  PAP L   1       9.408   2.277  -5.276  1.00  0.00     0.026 A 
HETATM    2  C2  PAP L   1      10.059   3.436  -4.845  1.00  0.00     0.038 A 
HETATM    3  C3  PAP L   1      10.896   4.119  -5.716  1.00  0.00     0.065 A 
HETATM    4  C4  PAP L   1      11.081   3.670  -7.019  1.00  0.00     0.038 A 
HETATM    5  C5  PAP L   1      10.427   2.509  -7.443  1.00  0.00     0.026 A 
HETATM    6  C6  PAP L   1       9.626   1.774  -6.563  1.00  0.00     0.005 A 
ENDROOT
BRANCH   6   7
HETATM    7  N1  PAP L   1       8.883   0.684  -7.029  1.00  0.00    -0.303 NA
HETATM    8  H5  PAP L   1       9.453  -0.069  -7.400  1.00  0.00     0.124 HD
HETATM    9  H6  PAP L   1       8.128   0.941  -7.656  1.00  0.00     0.124 HD
ENDBRANCH   6   7
BRANCH   3  10
HETATM   10  O1  PAP L   1      11.511   5.245  -5.259  1.00  0.00    -0.361 OA
HETATM   11  H7  PAP L   1      10.908   5.997  -5.375  1.00  0.00     0.217 HD
ENDBRANCH   3  10
TORSDOF 2
ENDMDL
MODEL 6
REMARK VINA RESULT:      -3.2      2.896      3.309
REMARK  2 active torsions:
REMARK  status: ('A' for Active; 'I' for Inactive)
REMARK    1  A    between atoms: C3_3  and  O1_10 
REMARK    2  A    between atoms: C6_6  and  N1_7 
ROOT
HETATM    1  C1  PAP L   1      12.428   3.450  -3.990  1.00  0.00     0.026 A 
HETATM    2  C2  PAP L   1      11.793   3.021  -5.159  1.00  0.00     0.038 A 
HETATM    3  C3  PAP L   1      10.429   3.224  -5.314  1.00  0.00     0.065 A 
HETATM    4  C4  PAP L   1       9.691   3.865  -4.325  1.00  0.00     0.038 A 
HETATM    5  C5  PAP L   1      10.333   4.291  -3.158  1.00  0.00     0.026 A 
HETATM    6  C6  PAP L   1      11.695   4.043  -2.958  1.00  0.00     0.005 A 
ENDROOT
BRANCH   6   7
HETATM    7  N1  PAP L   1      12.352   4.578  -1.844  1.00  0.00    -0.303 NA
HETATM    8  H5  PAP L   1      12.499   5.580  -1.899  1.00  0.00     0.124 HD
HETATM    9  H6  PAP L   1      13.196   4.077  -1.586  1.00  0.00     0.124 HD
ENDBRANCH   6   7
BRANCH   3  10
HETATM   10  O1  PAP L   1       9.847   2.793  -6.468  1.00  0.00    -0.361 OA
HETATM   11  H7  PAP L   1      10.521   2.353  -7.010  1.00  0.00     0.217 HD
ENDBRANCH   3  10
TORSDOF 2
ENDMDL
MODEL 7
REMARK VINA RESULT:      -3.0      2.868      3.465
REMARK  2 active torsions:
REMARK  status: ('A' for Active; 'I' for Inactive)
REMARK    1  A    between atoms: C3_3  and  O1_10 
REMARK    2  A    between atoms: C6_6  and  N1_7 
ROOT
HETATM    1  C1  PAP L   1      10.586   3.485  -5.959  1.00  0.00     0.026 A 
HETATM    2  C2  PAP L   1      10.911   2.921  -7.195  1.00  0.00     0.038 A 
HETATM    3  C3  PAP L   1      10.267   1.765  -7.614  1.00  0.00     0.065 A 
HETATM    4  C4  PAP L   1       9.289   1.172  -6.823  1.00  0.00     0.038 A 
HETATM    5  C5  PAP L   1       8.970   1.742  -5.586  1.00  0.00     0.026 A 
HETATM    6  C6  PAP L   1       9.650   2.873  -5.120  1.00  0.00     0.005 A 
ENDROOT
BRANCH   6   7
HETATM    7  N1  PAP L   1       9.242   3.503  -3.940  1.00  0.00    -0.303 NA
HETATM    8  H5  PAP L   1      10.011   3.830  -3.365  1.00  0.00     0.124 HD
HETATM    9  H6  PAP L   1       8.559   2.974  -3.406  1.00  0.00     0.124 HD
ENDBRANCH   6   7
BRANCH   3  10
HETATM   10  O1  PAP L   1      10.610   1.247  -8.827  1.00  0.00    -0.361 OA
HETATM   11  H7  PAP L   1      10.391   1.896  -9.514  1.00  0.00     0.217 HD
ENDBRANCH   3  10
TORSDOF 2
ENDMDL
MODEL 8
REMARK VINA RESULT:      -3.0      1.937      2.431
REMARK  2 active torsions:
REMARK  status: ('A' for Active; 'I' for Inactive)
REMARK    1  A    between atoms: C3_3  and  O1_10 
REMARK    2  A    between atoms: C6_6  and  N1_7 
ROOT
HETATM    1  C1  PAP L   1      10.945   2.910  -7.093  1.00  0.00     0.026 A 
HETATM    2  C2  PAP L   1      10.523   3.417  -5.860  1.00  0.00     0.038 A 
HETATM    3  C3  PAP L   1       9.507   2.776  -5.165  1.00  0.00     0.065 A 
HETATM    4  C4  PAP L   1       8.914   1.627  -5.676  1.00  0.00     0.038 A 
HETATM    5  C5  PAP L   1       9.340   1.126  -6.910  1.00  0.00     0.026 A 
HETATM    6  C6  PAP L   1      10.322   1.791  -7.653  1.00  0.00     0.005 A 
ENDROOT
BRANCH   6   7
HETATM    7  N1  PAP L   1      10.825   1.218  -8.827  1.00  0.00    -0.303 NA
HETATM    8  H5  PAP L   1      10.991   1.889  -9.569  1.00  0.00     0.124 HD
HETATM    9  H6  PAP L   1      10.301   0.410  -9.147  1.00  0.00     0.124 HD
ENDBRANCH   6   7
BRANCH   3  10
HETATM   10  O1  PAP L   1       9.126   3.299  -3.967  1.00  0.00    -0.361 OA
HETATM   11  H7  PAP L   1       9.878   3.778  -3.583  1.00  0.00     0.217 HD
ENDBRANCH   3  10
TORSDOF 2
ENDMDL
MODEL 9
REMARK VINA RESULT:      -2.8      2.975      3.467
REMARK  2 active torsions:
REMARK  status: ('A' for Active; 'I' for Inactive)
REMARK    1  A    between atoms: C3_3  and  O1_10 
REMARK    2  A    between atoms: C6_6  and  N1_7 
ROOT
HETATM    1  C1  PAP L   1      12.288   5.056  -5.721  1.00  0.00     0.026 A 
HETATM    2  C2  PAP L   1      11.539   4.328  -6.650  1.00  0.00     0.038 A 
HETATM    3  C3  PAP L   1      10.543   3.470  -6.208  1.00  0.00     0.065 A 
HETATM    4  C4  PAP L   1      10.271   3.338  -4.850  1.00  0.00     0.038 A 
HETATM    5  C5  PAP L   1      11.025   4.069  -3.927  1.00  0.00     0.026 A 
HETATM    6  C6  PAP L   1      12.072   4.895  -4.349  1.00  0.00     0.005 A 
ENDROOT
BRANCH   6   7
HETATM    7  N1  PAP L   1      12.741   5.711  -3.430  1.00  0.00    -0.303 NA
HETATM    8  H5  PAP L   1      12.331   6.634  -3.330  1.00  0.00     0.124 HD
HETATM    9  H6  PAP L   1      13.745   5.748  -3.568  1.00  0.00     0.124 HD
ENDBRANCH   6   7
BRANCH   3  10
HETATM   10  O1  PAP L   1       9.833   2.779  -7.144  1.00  0.00    -0.361 OA
HETATM   11  H7  PAP L   1       9.061   3.308  -7.400  1.00  0.00     0.217 HD
ENDBRANCH   3  10
TORSDOF 2
ENDMDL
MODEL 10
REMARK VINA RESULT:      -2.8      2.137      2.503
REMARK  2 active torsions:
REMARK  status: ('A' for Active; 'I' for Inactive)
REMARK    1  A    between atoms: C3_3  and  O1_10 
REMARK    2  A    between atoms: C6_6  and  N1_7 
ROOT
HETATM    1  C1  PAP L   1      13.392   2.658  -4.338  1.00  0.00     0.026 A 
HETATM    2  C2  PAP L   1      13.279   3.282  -3.093  1.00  0.00     0.038 A 
HETATM    3  C3  PAP L   1      12.155   4.044  -2.806  1.00  0.00     0.065 A 
HETATM    4  C4  PAP L   1      11.133   4.180  -3.740  1.00  0.00     0.038 A 
HETATM    5  C5  PAP L   1      11.254   3.553  -4.984  1.00  0.00     0.026 A 
HETATM    6  C6  PAP L   1      12.405   2.830  -5.313  1.00  0.00     0.005 A 
ENDROOT
BRANCH   6   7
HETATM    7  N1  PAP L   1      12.465   2.109  -6.512  1.00  0.00    -0.303 NA
HETATM    8  H5  PAP L   1      11.776   2.399  -7.197  1.00  0.00     0.124 HD
HETATM    9  H6  PAP L   1      12.483   1.103  -6.384  1.00  0.00     0.124 HD
ENDBRANCH   6   7
BRANCH   3  10
HETATM   10  O1  PAP L   1      12.080   4.635  -1.581  1.00  0.00    -0.361 OA
HETATM   11  H7  PAP L   1      11.386   4.193  -1.065  1.00  0.00     0.217 HD
ENDBRANCH   3  10
TORSDOF 2
ENDMDL
MODEL 11
REMARK VINA RESULT:      -2.7      2.927      3.409
REMARK  2 active torsions:
REMARK  status: ('A' for Active; 'I' for Inactive)
REMARK    1  A    between atoms: C3_3  and  O1_10 
REMARK    2  A    between atoms: C6_6  and  N1_7 
ROOT
HETATM    1  C1  PAP L   1      11.730   3.361  -6.689  1.00  0.00     0.026 A 
HETATM    2  C2  PAP L   1      10.897   2.501  -7.410  1.00  0.00     0.038 A 
HETATM    3  C3  PAP L   1       9.763   1.976  -6.806  1.00  0.00     0.065 A 
HETATM    4  C4  PAP L   1       9.439   2.310  -5.496  1.00  0.00     0.038 A 
HETATM    5  C5  PAP L   1      10.278   3.170  -4.780  1.00  0.00     0.026 A 
HETATM    6  C6  PAP L   1      11.456   3.662  -5.352  1.00  0.00     0.005 A 
ENDROOT
BRANCH   6   7
HETATM    7  N1  PAP L   1      12.225   4.614  -4.672  1.00  0.00    -0.303 NA
HETATM    8  H5  PAP L   1      12.810   4.220  -3.942  1.00  0.00     0.124 HD
HETATM    9  H6  PAP L   1      11.693   5.416  -4.349  1.00  0.00     0.124 HD
ENDBRANCH   6   7
BRANCH   3  10
HETATM   10  O1  PAP L   1       8.975   1.144  -7.543  1.00  0.00    -0.361 OA
HETATM   11  H7  PAP L   1       8.076   1.165  -7.178  1.00  0.00     0.217 HD
ENDBRANCH   3  10
TORSDOF 2
ENDMDL
MODEL 12
REMARK VINA RESULT:      -2.7      1.961      2.350
REMARK  2 active torsions:
REMARK  status: ('A' for Active; 'I' for Inactive)
REMARK    1  A    between atoms: C3_3  and  O1_10 
REMARK    2  A    between atoms: C6_6  and  N1_7 
ROOT
HETATM    1  C1  PAP L   1      10.901   5.469  -6.390  1.00  0.00     0.026 A 
HETATM    2  C2  PAP L   1      10.981   5.593  -5.000  1.00  0.00     0.038 A 
HETATM    3  C3  PAP L   1      10.913   4.458  -4.203  1.00  0.00     0.065 A 
HETATM    4  C4  PAP L   1      10.782   3.198  -4.775  1.00  0.00     0.038 A 
HETATM    5  C5  PAP L   1      10.701   3.081  -6.167  1.00  0.00     0.026 A 
HETATM    6  C6  PAP L   1      10.709   4.217  -6.983  1.00  0.00     0.005 A 
ENDROOT
BRANCH   6   7
HETATM    7  N1  PAP L   1      10.748   4.084  -8.375  1.00  0.00    -0.303 NA
HETATM    8  H5  PAP L   1      11.658   3.815  -8.734  1.00  0.00     0.124 HD
HETATM    9  H6  PAP L   1      10.355   4.875  -8.875  1.00  0.00     0.124 HD
ENDBRANCH   6   7
BRANCH   3  10
HETATM   10  O1  PAP L   1      10.997   4.621  -2.853  1.00  0.00    -0.361 OA
HETATM   11  H7  PAP L   1      10.502   5.418  -2.605  1.00  0.00     0.217 HD
ENDBRANCH   3  10
TORSDOF 2
ENDMDL
MODEL 13
REMARK VINA RESULT:      -2.6      9.797     10.855
REMARK  2 active torsions:
REMARK  status: ('A' for Active; 'I' for Inactive)
REMARK    1  A    between atoms: C3_3  and  O1_10 
REMARK    2  A    between atoms: C6_6  and  N1_7 
ROOT
HETATM    1  C1  PAP L   1      15.119  12.013  -0.447  1.00  0.00     0.026 A 
HETATM    2  C2  PAP L   1      14.470  10.928  -1.044  1.00  0.00     0.038 A 
HETATM    3  C3  PAP L   1      13.838   9.983  -0.249  1.00  0.00     0.065 A 
HETATM    4  C4  PAP L   1      13.830  10.112   1.135  1.00  0.00     0.038 A 
HETATM    5  C5  PAP L   1      14.482  11.199   1.726  1.00  0.00     0.026 A 
HETATM    6  C6  PAP L   1      15.174  12.130   0.945  1.00  0.00     0.005 A 
ENDROOT
BRANCH   6   7
HETATM    7  N1  PAP L   1      15.720  13.277   1.534  1.00  0.00    -0.303 NA
HETATM    8  H5  PAP L   1      15.690  14.096   0.937  1.00  0.00     0.124 HD
HETATM    9  H6  PAP L   1      16.638  13.131   1.942  1.00  0.00     0.124 HD
ENDBRANCH   6   7
BRANCH   3  10
HETATM   10  O1  PAP L   1      13.214   8.942  -0.869  1.00  0.00    -0.361 OA
HETATM   11  H7  PAP L   1      12.969   8.284  -0.199  1.00  0.00     0.217 HD
ENDBRANCH   3  10
TORSDOF 2
ENDMDL
MODEL 14
REMARK VINA RESULT:      -2.5      9.544     10.590
REMARK  2 active torsions:
REMARK  status: ('A' for Active; 'I' for Inactive)
REMARK    1  A    between atoms: C3_3  and  O1_10 
REMARK    2  A    between atoms: C6_6  and  N1_7 
ROOT
HETATM    1  C1  PAP L   1      14.184  10.383   1.043  1.00  0.00     0.026 A 
HETATM    2  C2  PAP L   1      14.831  11.533   1.504  1.00  0.00     0.038 A 
HETATM    3  C3  PAP L   1      15.329  12.453   0.592  1.00  0.00     0.065 A 
HETATM    4  C4  PAP L   1      15.177  12.250  -0.775  1.00  0.00     0.038 A 
HETATM    5  C5  PAP L   1      14.530  11.096  -1.228  1.00  0.00     0.026 A 
HETATM    6  C6  PAP L   1      14.073  10.129  -0.327  1.00  0.00     0.005 A 
ENDROOT
BRANCH   6   7
HETATM    7  N1  PAP L   1      13.323   9.039  -0.783  1.00  0.00    -0.303 NA
HETATM    8  H5  PAP L   1      13.841   8.167  -0.805  1.00  0.00     0.124 HD
HETATM    9  H6  PAP L   1      12.829   9.216  -1.652  1.00  0.00     0.124 HD
ENDBRANCH   6   7
BRANCH   3  10
HETATM   10  O1  PAP L   1      15.951  13.562   1.081  1.00  0.00    -0.361 OA
HETATM   11  H7  PAP L   1      16.675  13.802   0.480  1.00  0.00     0.217 HD
ENDBRANCH   3  10
TORSDOF 2
ENDMDL
MODEL 15
REMARK VINA RESULT:      -2.5      3.247      3.834
REMARK  2 active torsions:
REMARK  status: ('A' for Active; 'I' for Inactive)
REMARK    1  A    between atoms: C3_3  and  O1_10 
REMARK    2  A    between atoms: C6_6  and  N1_7 
ROOT
HETATM    1  C1  PAP L   1      11.267   3.827  -5.334  1.00  0.00     0.026 A 
HETATM    2  C2  PAP L   1      10.799   3.446  -6.595  1.00  0.00     0.038 A 
HETATM    3  C3  PAP L   1      10.536   4.416  -7.552  1.00  0.00     0.065 A 
HETATM    4  C4  PAP L   1      10.750   5.762  -7.276  1.00  0.00     0.038 A 
HETATM    5  C5  PAP L   1      11.218   6.135  -6.012  1.00  0.00     0.026 A 
HETATM    6  C6  PAP L   1      11.432   5.178  -5.015  1.00  0.00     0.005 A 
ENDROOT
BRANCH   6   7
HETATM    7  N1  PAP L   1      12.013   5.549  -3.796  1.00  0.00    -0.303 NA
HETATM    8  H5  PAP L   1      11.962   6.544  -3.606  1.00  0.00     0.124 HD
HETATM    9  H6  PAP L   1      12.946   5.176  -3.656  1.00  0.00     0.124 HD
ENDBRANCH   6   7
BRANCH   3  10
HETATM   10  O1  PAP L   1      10.083   4.004  -8.769  1.00  0.00    -0.361 OA
HETATM   11  H7  PAP L   1      10.396   4.628  -9.444  1.00  0.00     0.217 HD
ENDBRANCH   3  10
TORSDOF 2
ENDMDL
MODEL 16
REMARK VINA RESULT:      -2.5      3.016      3.638
REMARK  2 active torsions:
REMARK  status: ('A' for Active; 'I' for Inactive)
REMARK    1  A    between atoms: C3_3  and  O1_10 
REMARK    2  A    between atoms: C6_6  and  N1_7 
ROOT
HETATM    1  C1  PAP L   1      12.822   3.460  -4.982  1.00  0.00     0.026 A 
HETATM    2  C2  PAP L   1      12.183   4.135  -3.939  1.00  0.00     0.038 A 
HETATM    3  C3  PAP L   1      12.510   3.837  -2.624  1.00  0.00     0.065 A 
HETATM    4  C4  PAP L   1      13.481   2.884  -2.334  1.00  0.00     0.038 A 
HETATM    5  C5  PAP L   1      14.116   2.212  -3.383  1.00  0.00     0.026 A 
HETATM    6  C6  PAP L   1      13.758   2.456  -4.713  1.00  0.00     0.005 A 
ENDROOT
BRANCH   6   7
HETATM    7  N1  PAP L   1      14.481   1.868  -5.757  1.00  0.00    -0.303 NA
HETATM    8  H5  PAP L   1      13.914   1.296  -6.374  1.00  0.00     0.124 HD
HETATM    9  H6  PAP L   1      15.324   1.390  -5.454  1.00  0.00     0.124 HD
ENDBRANCH   6   7
BRANCH   3  10
HETATM   10  O1  PAP L   1      11.866   4.518  -1.636  1.00  0.00    -0.361 OA
HETATM   11  H7  PAP L   1      11.423   5.288  -2.027  1.00  0.00     0.217 HD
ENDBRANCH   3  10
TORSDOF 2
ENDMDL
MODEL 17
REMARK VINA RESULT:      -2.5      8.471      9.190
REMARK  2 active torsions:
REMARK  status: ('A' for Active; 'I' for Inactive)
REMARK    1  A    between atoms: C3_3  and  O1_10 
REMARK    2  A    between atoms: C6_6  and  N1_7 
ROOT
HETATM    1  C1  PAP L   1      15.525  11.073  -1.940  1.00  0.00     0.026 A 
HETATM    2  C2  PAP L   1      14.400  11.245  -1.128  1.00  0.00     0.038 A 
HETATM    3  C3  PAP L   1      13.754  10.134  -0.604  1.00  0.00     0.065 A 
HETATM    4  C4  PAP L   1      14.225   8.852  -0.866  1.00  0.00     0.038 A 
HETATM    5  C5  PAP L   1      15.350   8.688  -1.680  1.00  0.00     0.026 A 
HETATM    6  C6  PAP L   1      15.979   9.792  -2.265  1.00  0.00     0.005 A 
ENDROOT
BRANCH   6   7
HETATM    7  N1  PAP L   1      17.172   9.626  -2.978  1.00  0.00    -0.303 NA
HETATM    8  H5  PAP L   1      17.945  10.172  -2.612  1.00  0.00     0.124 HD
HETATM    9  H6  PAP L   1      17.068   9.731  -3.982  1.00  0.00     0.124 HD
ENDBRANCH   6   7
BRANCH   3  10
HETATM   10  O1  PAP L   1      12.663  10.343   0.184  1.00  0.00    -0.361 OA
HETATM   11  H7  PAP L   1      12.926  10.895   0.938  1.00  0.00     0.217 HD
ENDBRANCH   3  10
TORSDOF 2
ENDMDL
MODEL 18
REMARK VINA RESULT:      -2.4      2.218      3.076
REMARK  2 active torsions:
REMARK  status: ('A' for Active; 'I' for Inactive)
REMARK    1  A    between atoms: C3_3  and  O1_10 
REMARK    2  A    between atoms: C6_6  and  N1_7 
ROOT
HETATM    1  C1  PAP L   1      11.495   3.358  -4.667  1.00  0.00     0.026 A 
HETATM    2  C2  PAP L   1      10.766   4.544  -4.795  1.00  0.00     0.038 A 
HETATM    3  C3  PAP L   1      11.370   5.666  -5.346  1.00  0.00     0.065 A 
HETATM    4  C4  PAP L   1      12.688   5.617  -5.786  1.00  0.00     0.038 A 
HETATM    5  C5  PAP L   1      13.411   4.428  -5.654  1.00  0.00     0.026 A 
HETATM    6  C6  PAP L   1      12.839   3.304  -5.048  1.00  0.00     0.005 A 
ENDROOT
BRANCH   6   7
HETATM    7  N1  PAP L   1      13.529   2.087  -5.029  1.00  0.00    -0.303 NA
HETATM    8  H5  PAP L   1      12.922   1.274  -5.056  1.00  0.00     0.124 HD
HETATM    9  H6  PAP L   1      14.227   2.022  -4.295  1.00  0.00     0.124 HD
ENDBRANCH   6   7
BRANCH   3  10
HETATM   10  O1  PAP L   1      10.625   6.802  -5.455  1.00  0.00    -0.361 OA
HETATM   11  H7  PAP L   1      11.057   7.395  -6.090  1.00  0.00     0.217 HD
ENDBRANCH   3  10
TORSDOF 2
ENDMDL
MODEL 19
REMARK VINA RESULT:      -2.4      4.012      4.565
REMARK  2 active torsions:
REMARK  status: ('A' for Active; 'I' for Inactive)
REMARK    1  A    between atoms: C3_3  and  O1_10 
REMARK    2  A    between atoms: C6_6  and  N1_7 
ROOT
HETATM    1  C1  PAP L   1      13.223   3.502  -4.138  1.00  0.00     0.026 A 
HETATM    2  C2  PAP L   1      13.881   2.378  -3.632  1.00  0.00     0.038 A 
HETATM    3  C3  PAP L   1      13.954   2.184  -2.259  1.00  0.00     0.065 A 
HETATM    4  C4  PAP L   1      13.364   3.088  -1.383  1.00  0.00     0.038 A 
HETATM    5  C5  PAP L   1      12.708   4.211  -1.897  1.00  0.00     0.026 A 
HETATM    6  C6  PAP L   1      12.675   4.455  -3.274  1.00  0.00     0.005 A 
ENDROOT
BRANCH   6   7
HETATM    7  N1  PAP L   1      11.915   5.514  -3.784  1.00  0.00    -0.303 NA
HETATM    8  H5  PAP L   1      12.431   6.383  -3.866  1.00  0.00     0.124 HD
HETATM    9  H6  PAP L   1      11.021   5.638  -3.320  1.00  0.00     0.124 HD
ENDBRANCH   6   7
BRANCH   3  10
HETATM   10  O1  PAP L   1      14.602   1.075  -1.805  1.00  0.00    -0.361 OA
HETATM   11  H7  PAP L   1      14.647   0.425  -2.524  1.00  0.00     0.217 HD
ENDBRANCH   3  10
TORSDOF 2
ENDMDL
MODEL 20
REMARK VINA RESULT:      -2.3      2.903      3.357
REMARK  2 active torsions:
REMARK  status: ('A' for Active; 'I' for Inactive)
REMARK    1  A    between atoms: C3_3  and  O1_10 
REMARK    2  A    between atoms: C6_6  and  N1_7 
ROOT
HETATM    1  C1  PAP L   1      10.748   4.507  -7.524  1.00  0.00     0.026 A 
HETATM    2  C2  PAP L   1      11.187   3.590  -6.565  1.00  0.00     0.038 A 
HETATM    3  C3  PAP L   1      11.459   4.023  -5.274  1.00  0.00     0.065 A 
HETATM    4  C4  PAP L   1      11.285   5.357  -4.923  1.00  0.00     0.038 A 
HETATM    5  C5  PAP L   1      10.847   6.269  -5.889  1.00  0.00     0.026 A 
HETATM    6  C6  PAP L   1      10.623   5.863  -7.209  1.00  0.00     0.005 A 
ENDROOT
BRANCH   6   7
HETATM    7  N1  PAP L   1      10.072   6.755  -8.136  1.00  0.00    -0.303 NA
HETATM    8  H5  PAP L   1       9.513   6.304  -8.853  1.00  0.00     0.124 HD
HETATM    9  H6  PAP L   1      10.743   7.410  -8.524  1.00  0.00     0.124 HD
ENDBRANCH   6   7
BRANCH   3  10
HETATM   10  O1  PAP L   1      11.882   3.099  -4.367  1.00  0.00    -0.361 OA
HETATM   11  H7  PAP L   1      12.833   2.953  -4.494  1.00  0.00     0.217 HD
ENDBRANCH   3  10
TORSDOF 2
ENDMDL
