HETATM    1  C1  PAP L   1      15.176  13.021  -1.474  1.00  0.00     0.026 A 
HETATM    2  C2  PAP L   1      15.684  14.177  -0.874  1.00  0.00     0.038 A 
HETATM    3  C3  PAP L   1      14.905  14.878   0.036  1.00  0.00     0.065 A 
HETATM    4  C4  PAP L   1      13.631  14.433   0.369  1.00  0.00     0.038 A 
HETATM    5  C5  PAP L   1      13.129  13.277  -0.237  1.00  0.00     0.026 A 
HETATM    6  C6  PAP L   1      13.875  12.590  -1.200  1.00  0.00     0.005 A 
HETATM    7  N1  PAP L   1      13.414  11.371  -1.710  1.00  0.00    -0.303 NA
HETATM    8  H5  PAP L   1      13.387  10.625  -1.023  1.00  0.00     0.124 HD
HETATM    9  H6  PAP L   1      13.873  11.086  -2.570  1.00  0.00     0.124 HD
HETATM   10  O1  PAP L   1      15.437  15.998   0.602  1.00  0.00    -0.361 OA
HETATM   11  H7  PAP L   1      15.272  16.751   0.012  1.00  0.00     0.217 HD
HETATM    1  C1  PAP L   1      15.726  14.012  -0.902  1.00  0.00     0.026 A 
HETATM    2  C2  PAP L   1      15.211  12.842  -1.466  1.00  0.00     0.038 A 
HETATM    3  C3  PAP L   1      13.920  12.440  -1.154  1.00  0.00     0.065 A 
HETATM    4  C4  PAP L   1      13.128  13.198  -0.299  1.00  0.00     0.038 A 
HETATM    5  C5  PAP L   1      13.651  14.368   0.262  1.00  0.00     0.026 A 
HETATM    6  C6  PAP L   1      14.970  14.758   0.006  1.00  0.00     0.005 A 
HETATM    7  N1  PAP L   1      15.443  15.989   0.475  1.00  0.00    -0.303 NA
HETATM    8  H5  PAP L   1      14.709  16.665   0.658  1.00  0.00     0.124 HD
HETATM    9  H6  PAP L   1      16.196  16.379  -0.084  1.00  0.00     0.124 HD
HETATM   10  O1  PAP L   1      13.453  11.294  -1.725  1.00  0.00    -0.361 OA
HETATM   11  H7  PAP L   1      12.717  11.520  -2.316  1.00  0.00     0.217 HD
HETATM    1  C1  PAP L   1      13.154  13.277  -0.230  1.00  0.00     0.026 A 
HETATM    2  C2  PAP L   1      13.661  14.458   0.318  1.00  0.00     0.038 A 
HETATM    3  C3  PAP L   1      14.919  14.907  -0.060  1.00  0.00     0.065 A 
HETATM    4  C4  PAP L   1      15.672  14.201  -0.992  1.00  0.00     0.038 A 
HETATM    5  C5  PAP L   1      15.159  13.020  -1.535  1.00  0.00     0.026 A 
HETATM    6  C6  PAP L   1      13.919  12.520  -1.123  1.00  0.00     0.005 A 
HETATM    7  N1  PAP L   1      13.362  11.405  -1.758  1.00  0.00    -0.303 NA
HETATM    8  H5  PAP L   1      13.395  10.558  -1.200  1.00  0.00     0.124 HD
HETATM    9  H6  PAP L   1      13.703  11.258  -2.703  1.00  0.00     0.124 HD
HETATM   10  O1  PAP L   1      15.377  16.064   0.494  1.00  0.00    -0.361 OA
HETATM   11  H7  PAP L   1      15.355  15.975   1.461  1.00  0.00     0.217 HD
HETATM    1  C1  PAP L   1      13.676  14.493   0.384  1.00  0.00     0.026 A 
HETATM    2  C2  PAP L   1      13.069  13.348  -0.139  1.00  0.00     0.038 A 
HETATM    3  C3  PAP L   1      13.735  12.591  -1.092  1.00  0.00     0.065 A 
HETATM    4  C4  PAP L   1      15.008  12.951  -1.521  1.00  0.00     0.038 A 
HETATM    5  C5  PAP L   1      15.609  14.098  -0.994  1.00  0.00     0.026 A 
HETATM    6  C6  PAP L   1      14.930  14.907  -0.076  1.00  0.00     0.005 A 
HETATM    7  N1  PAP L   1      15.584  15.984   0.533  1.00  0.00    -0.303 NA
HETATM    8  H5  PAP L   1      15.059  16.851   0.501  1.00  0.00     0.124 HD
HETATM    9  H6  PAP L   1      16.546  16.103   0.232  1.00  0.00     0.124 HD
HETATM   10  O1  PAP L   1      13.111  11.481  -1.576  1.00  0.00    -0.361 OA
HETATM   11  H7  PAP L   1      12.865  10.913  -0.828  1.00  0.00     0.217 HD
HETATM    1  C1  PAP L   1      13.308  12.739  -0.718  1.00  0.00     0.026 A 
HETATM    2  C2  PAP L   1      13.959  13.898  -0.287  1.00  0.00     0.038 A 
HETATM    3  C3  PAP L   1      14.796  14.581  -1.158  1.00  0.00     0.065 A 
HETATM    4  C4  PAP L   1      14.981  14.132  -2.461  1.00  0.00     0.038 A 
HETATM    5  C5  PAP L   1      14.327  12.971  -2.885  1.00  0.00     0.026 A 
HETATM    6  C6  PAP L   1      13.526  12.236  -2.005  1.00  0.00     0.005 A 
HETATM    7  N1  PAP L   1      12.783  11.146  -2.471  1.00  0.00    -0.303 NA
HETATM    8  H5  PAP L   1      13.353  10.393  -2.842  1.00  0.00     0.124 HD
HETATM    9  H6  PAP L   1      12.028  11.403  -3.098  1.00  0.00     0.124 HD
HETATM   10  O1  PAP L   1      15.411  15.707  -0.701  1.00  0.00    -0.361 OA
HETATM   11  H7  PAP L   1      14.808  16.459  -0.817  1.00  0.00     0.217 HD
HETATM    1  C1  PAP L   1      16.328  13.912   0.568  1.00  0.00     0.026 A 
HETATM    2  C2  PAP L   1      15.693  13.483  -0.601  1.00  0.00     0.038 A 
HETATM    3  C3  PAP L   1      14.329  13.686  -0.756  1.00  0.00     0.065 A 
HETATM    4  C4  PAP L   1      13.591  14.327   0.233  1.00  0.00     0.038 A 
HETATM    5  C5  PAP L   1      14.233  14.753   1.400  1.00  0.00     0.026 A 
HETATM    6  C6  PAP L   1      15.595  14.505   1.600  1.00  0.00     0.005 A 
HETATM    7  N1  PAP L   1      16.252  15.040   2.714  1.00  0.00    -0.303 NA
HETATM    8  H5  PAP L   1      16.399  16.042   2.659  1.00  0.00     0.124 HD
HETATM    9  H6  PAP L   1      17.096  14.539   2.972  1.00  0.00     0.124 HD
HETATM   10  O1  PAP L   1      13.747  13.255  -1.910  1.00  0.00    -0.361 OA
HETATM   11  H7  PAP L   1      14.421  12.815  -2.452  1.00  0.00     0.217 HD
HETATM    1  C1  PAP L   1      14.486  13.947  -1.401  1.00  0.00     0.026 A 
HETATM    2  C2  PAP L   1      14.811  13.383  -2.637  1.00  0.00     0.038 A 
HETATM    3  C3  PAP L   1      14.167  12.227  -3.056  1.00  0.00     0.065 A 
HETATM    4  C4  PAP L   1      13.189  11.634  -2.265  1.00  0.00     0.038 A 
HETATM    5  C5  PAP L   1      12.870  12.204  -1.028  1.00  0.00     0.026 A 
HETATM    6  C6  PAP L   1      13.550  13.335  -0.562  1.00  0.00     0.005 A 
HETATM    7  N1  PAP L   1      13.142  13.965   0.618  1.00  0.00    -0.303 NA
HETATM    8  H5  PAP L   1      13.911  14.292   1.193  1.00  0.00     0.124 HD
HETATM    9  H6  PAP L   1      12.459  13.436   1.152  1.00  0.00     0.124 HD
HETATM   10  O1  PAP L   1      14.510  11.709  -4.269  1.00  0.00    -0.361 OA
HETATM   11  H7  PAP L   1      14.291  12.358  -4.956  1.00  0.00     0.217 HD
HETATM    1  C1  PAP L   1      14.845  13.372  -2.535  1.00  0.00     0.026 A 
HETATM    2  C2  PAP L   1      14.423  13.879  -1.302  1.00  0.00     0.038 A 
HETATM    3  C3  PAP L   1      13.407  13.238  -0.607  1.00  0.00     0.065 A 
HETATM    4  C4  PAP L   1      12.814  12.089  -1.118  1.00  0.00     0.038 A 
HETATM    5  C5  PAP L   1      13.240  11.588  -2.352  1.00  0.00     0.026 A 
HETATM    6  C6  PAP L   1      14.222  12.253  -3.095  1.00  0.00     0.005 A 
HETATM    7  N1  PAP L   1      14.725  11.680  -4.269  1.00  0.00    -0.303 NA
HETATM    8  H5  PAP L   1      14.891  12.351  -5.011  1.00  0.00     0.124 HD
HETATM    9  H6  PAP L   1      14.201  10.872  -4.589  1.00  0.00     0.124 HD
HETATM   10  O1  PAP L   1      13.026  13.761   0.591  1.00  0.00    -0.361 OA
HETATM   11  H7  PAP L   1      13.778  14.240   0.975  1.00  0.00     0.217 HD
HETATM    1  C1  PAP L   1      16.188  15.518  -1.163  1.00  0.00     0.026 A 
HETATM    2  C2  PAP L   1      15.439  14.790  -2.092  1.00  0.00     0.038 A 
HETATM    3  C3  PAP L   1      14.443  13.932  -1.650  1.00  0.00     0.065 A 
HETATM    4  C4  PAP L   1      14.171  13.800  -0.292  1.00  0.00     0.038 A 
HETATM    5  C5  PAP L   1      14.925  14.531   0.631  1.00  0.00     0.026 A 
HETATM    6  C6  PAP L   1      15.972  15.357   0.209  1.00  0.00     0.005 A 
HETATM    7  N1  PAP L   1      16.641  16.173   1.128  1.00  0.00    -0.303 NA
HETATM    8  H5  PAP L   1      16.231  17.096   1.228  1.00  0.00     0.124 HD
HETATM    9  H6  PAP L   1      17.645  16.210   0.990  1.00  0.00     0.124 HD
HETATM   10  O1  PAP L   1      13.733  13.241  -2.586  1.00  0.00    -0.361 OA
HETATM   11  H7  PAP L   1      12.961  13.770  -2.842  1.00  0.00     0.217 HD
HETATM    1  C1  PAP L   1      17.292  13.120   0.220  1.00  0.00     0.026 A 
HETATM    2  C2  PAP L   1      17.179  13.744   1.465  1.00  0.00     0.038 A 
HETATM    3  C3  PAP L   1      16.055  14.506   1.752  1.00  0.00     0.065 A 
HETATM    4  C4  PAP L   1      15.033  14.642   0.818  1.00  0.00     0.038 A 
HETATM    5  C5  PAP L   1      15.154  14.015  -0.426  1.00  0.00     0.026 A 
HETATM    6  C6  PAP L   1      16.305  13.292  -0.755  1.00  0.00     0.005 A 
HETATM    7  N1  PAP L   1      16.365  12.571  -1.954  1.00  0.00    -0.303 NA
HETATM    8  H5  PAP L   1      15.676  12.861  -2.639  1.00  0.00     0.124 HD
HETATM    9  H6  PAP L   1      16.383  11.565  -1.826  1.00  0.00     0.124 HD
HETATM   10  O1  PAP L   1      15.980  15.097   2.977  1.00  0.00    -0.361 OA
HETATM   11  H7  PAP L   1      15.286  14.655   3.493  1.00  0.00     0.217 HD
HETATM    1  C1  PAP L   1      15.630  13.823  -2.131  1.00  0.00     0.026 A 
HETATM    2  C2  PAP L   1      14.797  12.963  -2.852  1.00  0.00     0.038 A 
HETATM    3  C3  PAP L   1      13.663  12.438  -2.248  1.00  0.00     0.065 A 
HETATM    4  C4  PAP L   1      13.339  12.772  -0.938  1.00  0.00     0.038 A 
HETATM    5  C5  PAP L   1      14.178  13.632  -0.222  1.00  0.00     0.026 A 
HETATM    6  C6  PAP L   1      15.356  14.124  -0.794  1.00  0.00     0.005 A 
HETATM    7  N1  PAP L   1      16.125  15.076  -0.114  1.00  0.00    -0.303 NA
HETATM    8  H5  PAP L   1      16.710  14.682   0.616  1.00  0.00     0.124 HD
HETATM    9  H6  PAP L   1      15.593  15.878   0.209  1.00  0.00     0.124 HD
HETATM   10  O1  PAP L   1      12.875  11.606  -2.985  1.00  0.00    -0.361 OA
HETATM   11  H7  PAP L   1      11.976  11.627  -2.620  1.00  0.00     0.217 HD
HETATM    1  C1  PAP L   1      14.801  15.931  -1.832  1.00  0.00     0.026 A 
HETATM    2  C2  PAP L   1      14.881  16.055  -0.442  1.00  0.00     0.038 A 
HETATM    3  C3  PAP L   1      14.813  14.920   0.355  1.00  0.00     0.065 A 
HETATM    4  C4  PAP L   1      14.682  13.660  -0.217  1.00  0.00     0.038 A 
HETATM    5  C5  PAP L   1      14.601  13.543  -1.609  1.00  0.00     0.026 A 
HETATM    6  C6  PAP L   1      14.609  14.679  -2.425  1.00  0.00     0.005 A 
HETATM    7  N1  PAP L   1      14.648  14.546  -3.817  1.00  0.00    -0.303 NA
HETATM    8  H5  PAP L   1      15.558  14.277  -4.176  1.00  0.00     0.124 HD
HETATM    9  H6  PAP L   1      14.255  15.337  -4.317  1.00  0.00     0.124 HD
HETATM   10  O1  PAP L   1      14.897  15.083   1.705  1.00  0.00    -0.361 OA
HETATM   11  H7  PAP L   1      14.402  15.880   1.953  1.00  0.00     0.217 HD
HETATM    1  C1  PAP L   1      19.019  22.475   4.111  1.00  0.00     0.026 A 
HETATM    2  C2  PAP L   1      18.370  21.390   3.514  1.00  0.00     0.038 A 
HETATM    3  C3  PAP L   1      17.738  20.445   4.309  1.00  0.00     0.065 A 
HETATM    4  C4  PAP L   1      17.730  20.574   5.693  1.00  0.00     0.038 A 
HETATM    5  C5  PAP L   1      18.382  21.661   6.284  1.00  0.00     0.026 A 
HETATM    6  C6  PAP L   1      19.074  22.592   5.503  1.00  0.00     0.005 A 
HETATM    7  N1  PAP L   1      19.620  23.739   6.092  1.00  0.00    -0.303 NA
HETATM    8  H5  PAP L   1      19.590  24.558   5.495  1.00  0.00     0.124 HD
HETATM    9  H6  PAP L   1      20.538  23.593   6.500  1.00  0.00     0.124 HD
HETATM   10  O1  PAP L   1      17.114  19.404   3.689  1.00  0.00    -0.361 OA
HETATM   11  H7  PAP L   1      16.869  18.746   4.359  1.00  0.00     0.217 HD
HETATM    1  C1  PAP L   1      18.084  20.845   5.601  1.00  0.00     0.026 A 
HETATM    2  C2  PAP L   1      18.731  21.995   6.062  1.00  0.00     0.038 A 
HETATM    3  C3  PAP L   1      19.229  22.915   5.150  1.00  0.00     0.065 A 
HETATM    4  C4  PAP L   1      19.077  22.712   3.783  1.00  0.00     0.038 A 
HETATM    5  C5  PAP L   1      18.430  21.558   3.330  1.00  0.00     0.026 A 
HETATM    6  C6  PAP L   1      17.973  20.591   4.231  1.00  0.00     0.005 A 
HETATM    7  N1  PAP L   1      17.223  19.501   3.775  1.00  0.00    -0.303 NA
HETATM    8  H5  PAP L   1      17.741  18.629   3.753  1.00  0.00     0.124 HD
HETATM    9  H6  PAP L   1      16.729  19.678   2.906  1.00  0.00     0.124 HD
HETATM   10  O1  PAP L   1      19.851  24.024   5.639  1.00  0.00    -0.361 OA
HETATM   11  H7  PAP L   1      20.575  24.264   5.038  1.00  0.00     0.217 HD
HETATM    1  C1  PAP L   1      15.167  14.289  -0.776  1.00  0.00     0.026 A 
HETATM    2  C2  PAP L   1      14.699  13.908  -2.037  1.00  0.00     0.038 A 
HETATM    3  C3  PAP L   1      14.436  14.878  -2.994  1.00  0.00     0.065 A 
HETATM    4  C4  PAP L   1      14.650  16.224  -2.718  1.00  0.00     0.038 A 
HETATM    5  C5  PAP L   1      15.118  16.597  -1.454  1.00  0.00     0.026 A 
HETATM    6  C6  PAP L   1      15.332  15.640  -0.457  1.00  0.00     0.005 A 
HETATM    7  N1  PAP L   1      15.913  16.011   0.762  1.00  0.00    -0.303 NA
HETATM    8  H5  PAP L   1      15.862  17.006   0.952  1.00  0.00     0.124 HD
HETATM    9  H6  PAP L   1      16.846  15.638   0.902  1.00  0.00     0.124 HD
HETATM   10  O1  PAP L   1      13.983  14.466  -4.211  1.00  0.00    -0.361 OA
HETATM   11  H7  PAP L   1      14.296  15.090  -4.886  1.00  0.00     0.217 HD
HETATM    1  C1  PAP L   1      16.722  13.922  -0.424  1.00  0.00     0.026 A 
HETATM    2  C2  PAP L   1      16.083  14.597   0.619  1.00  0.00     0.038 A 
HETATM    3  C3  PAP L   1      16.410  14.299   1.934  1.00  0.00     0.065 A 
HETATM    4  C4  PAP L   1      17.381  13.346   2.224  1.00  0.00     0.038 A 
HETATM    5  C5  PAP L   1      18.016  12.674   1.175  1.00  0.00     0.026 A 
HETATM    6  C6  PAP L   1      17.658  12.918  -0.155  1.00  0.00     0.005 A 
HETATM    7  N1  PAP L   1      18.381  12.330  -1.199  1.00  0.00    -0.303 NA
HETATM    8  H5  PAP L   1      17.814  11.758  -1.816  1.00  0.00     0.124 HD
HETATM    9  H6  PAP L   1      19.224  11.852  -0.896  1.00  0.00     0.124 HD
HETATM   10  O1  PAP L   1      15.766  14.980   2.922  1.00  0.00    -0.361 OA
HETATM   11  H7  PAP L   1      15.323  15.750   2.531  1.00  0.00     0.217 HD
HETATM    1  C1  PAP L   1      19.425  21.535   2.618  1.00  0.00     0.026 A 
HETATM    2  C2  PAP L   1      18.300  21.707   3.430  1.00  0.00     0.038 A 
HETATM    3  C3  PAP L   1      17.654  20.596   3.954  1.00  0.00     0.065 A 
HETATM    4  C4  PAP L   1      18.125  19.314   3.692  1.00  0.00     0.038 A 
HETATM    5  C5  PAP L   1      19.250  19.150   2.878  1.00  0.00     0.026 A 
HETATM    6  C6  PAP L   1      19.879  20.254   2.293  1.00  0.00     0.005 A 
HETATM    7  N1  PAP L   1      21.072  20.088   1.580  1.00  0.00    -0.303 NA
HETATM    8  H5  PAP L   1      21.845  20.634   1.946  1.00  0.00     0.124 HD
HETATM    9  H6  PAP L   1      20.968  20.193   0.576  1.00  0.00     0.124 HD
HETATM   10  O1  PAP L   1      16.563  20.805   4.742  1.00  0.00    -0.361 OA
HETATM   11  H7  PAP L   1      16.826  21.357   5.496  1.00  0.00     0.217 HD
HETATM    1  C1  PAP L   1      15.395  13.820  -0.109  1.00  0.00     0.026 A 
HETATM    2  C2  PAP L   1      14.666  15.006  -0.237  1.00  0.00     0.038 A 
HETATM    3  C3  PAP L   1      15.270  16.128  -0.788  1.00  0.00     0.065 A 
HETATM    4  C4  PAP L   1      16.588  16.079  -1.228  1.00  0.00     0.038 A 
HETATM    5  C5  PAP L   1      17.311  14.890  -1.096  1.00  0.00     0.026 A 
HETATM    6  C6  PAP L   1      16.739  13.766  -0.490  1.00  0.00     0.005 A 
HETATM    7  N1  PAP L   1      17.429  12.549  -0.471  1.00  0.00    -0.303 NA
HETATM    8  H5  PAP L   1      16.822  11.736  -0.498  1.00  0.00     0.124 HD
HETATM    9  H6  PAP L   1      18.127  12.484   0.263  1.00  0.00     0.124 HD
HETATM   10  O1  PAP L   1      14.525  17.264  -0.897  1.00  0.00    -0.361 OA
HETATM   11  H7  PAP L   1      14.957  17.857  -1.532  1.00  0.00     0.217 HD
HETATM    1  C1  PAP L   1      17.123  13.964   0.420  1.00  0.00     0.026 A 
HETATM    2  C2  PAP L   1      17.781  12.840   0.926  1.00  0.00     0.038 A 
HETATM    3  C3  PAP L   1      17.854  12.646   2.299  1.00  0.00     0.065 A 
HETATM    4  C4  PAP L   1      17.264  13.550   3.175  1.00  0.00     0.038 A 
HETATM    5  C5  PAP L   1      16.608  14.673   2.661  1.00  0.00     0.026 A 
HETATM    6  C6  PAP L   1      16.575  14.917   1.284  1.00  0.00     0.005 A 
HETATM    7  N1  PAP L   1      15.815  15.976   0.774  1.00  0.00    -0.303 NA
HETATM    8  H5  PAP L   1      16.331  16.845   0.692  1.00  0.00     0.124 HD
HETATM    9  H6  PAP L   1      14.921  16.100   1.238  1.00  0.00     0.124 HD
HETATM   10  O1  PAP L   1      18.502  11.537   2.753  1.00  0.00    -0.361 OA
HETATM   11  H7  PAP L   1      18.547  10.887   2.034  1.00  0.00     0.217 HD
HETATM    1  C1  PAP L   1      14.648  14.969  -2.966  1.00  0.00     0.026 A 
HETATM    2  C2  PAP L   1      15.087  14.052  -2.007  1.00  0.00     0.038 A 
HETATM    3  C3  PAP L   1      15.359  14.485  -0.716  1.00  0.00     0.065 A 
HETATM    4  C4  PAP L   1      15.185  15.819  -0.365  1.00  0.00     0.038 A 
HETATM    5  C5  PAP L   1      14.747  16.731  -1.331  1.00  0.00     0.026 A 
HETATM    6  C6  PAP L   1      14.523  16.325  -2.651  1.00  0.00     0.005 A 
HETATM    7  N1  PAP L   1      13.972  17.217  -3.578  1.00  0.00    -0.303 NA
HETATM    8  H5  PAP L   1      13.413  16.766  -4.295  1.00  0.00     0.124 HD
HETATM    9  H6  PAP L   1      14.643  17.872  -3.966  1.00  0.00     0.124 HD
HETATM   10  O1  PAP L   1      15.782  13.561   0.191  1.00  0.00    -0.361 OA
HETATM   11  H7  PAP L   1      16.733  13.415   0.064  1.00  0.00     0.217 HD
