MODEL 1
REMARK VINA RESULT:      -3.3      0.000      0.000
REMARK  2 active torsions:
REMARK  status: ('A' for Active; 'I' for Inactive)
REMARK    1  A    between atoms: C3_3  and  O1_8 
REMARK    2  A    between atoms: C6_6  and  N1_7 
ROOT
HETATM    1  C1  UNL     1       8.622  11.294  -0.773  1.00  0.00     0.026 A 
HETATM    2  C2  UNL     1       7.679  10.872  -1.713  1.00  0.00     0.038 A 
HETATM    3  C3  UNL     1       6.568  10.152  -1.297  1.00  0.00     0.065 A 
HETATM    4  C4  UNL     1       6.377   9.860   0.049  1.00  0.00     0.038 A 
HETATM    5  C5  UNL     1       7.326  10.284   0.984  1.00  0.00     0.026 A 
HETATM    6  C6  UNL     1       8.481  10.960   0.577  1.00  0.00     0.005 A 
ENDROOT
BRANCH   6   7
HETATM    7  N1  UNL     1       9.364  11.483   1.529  1.00  0.00    -0.303 NA
HETATM    8  H5  UNL     1       9.938  12.243   1.178  1.00  0.00     0.124 HD
HETATM    9  H6  UNL     1       9.909  10.779   2.014  1.00  0.00     0.124 HD
ENDBRANCH   6   7
BRANCH   3  10
HETATM   10  O1  UNL     1       5.669   9.761  -2.243  1.00  0.00    -0.361 OA
HETATM   11  H7  UNL     1       5.967   8.919  -2.624  1.00  0.00     0.217 HD
ENDBRANCH   3  10
TORSDOF 2
ENDMDL
MODEL 2
REMARK VINA RESULT:      -3.2      2.780      3.265
REMARK  2 active torsions:
REMARK  status: ('A' for Active; 'I' for Inactive)
REMARK    1  A    between atoms: C3_3  and  O1_8 
REMARK    2  A    between atoms: C6_6  and  N1_7 
ROOT
HETATM    1  C1  UNL     1       7.759  10.939  -1.674  1.00  0.00     0.026 A 
HETATM    2  C2  UNL     1       8.742  11.335  -0.765  1.00  0.00     0.038 A 
HETATM    3  C3  UNL     1       8.616  10.997   0.575  1.00  0.00     0.065 A 
HETATM    4  C4  UNL     1       7.529  10.252   1.018  1.00  0.00     0.038 A 
HETATM    5  C5  UNL     1       6.548   9.859   0.102  1.00  0.00     0.026 A 
HETATM    6  C6  UNL     1       6.627  10.241  -1.241  1.00  0.00     0.005 A 
ENDROOT
BRANCH   6   7
HETATM    7  N1  UNL     1       5.706   9.744  -2.170  1.00  0.00    -0.303 NA
HETATM    8  H5  UNL     1       4.855  10.294  -2.235  1.00  0.00     0.124 HD
HETATM    9  H6  UNL     1       5.518   8.752  -2.072  1.00  0.00     0.124 HD
ENDBRANCH   6   7
BRANCH   3  10
HETATM   10  O1  UNL     1       9.597  11.400   1.430  1.00  0.00    -0.361 OA
HETATM   11  H7  UNL     1      10.386  11.627   0.912  1.00  0.00     0.217 HD
ENDBRANCH   3  10
TORSDOF 2
ENDMDL
MODEL 3
REMARK VINA RESULT:      -3.0      1.624      1.983
REMARK  2 active torsions:
REMARK  status: ('A' for Active; 'I' for Inactive)
REMARK    1  A    between atoms: C3_3  and  O1_8 
REMARK    2  A    between atoms: C6_6  and  N1_7 
ROOT
HETATM    1  C1  UNL     1       8.912   9.208  -1.874  1.00  0.00     0.026 A 
HETATM    2  C2  UNL     1       7.804   8.521  -2.373  1.00  0.00     0.038 A 
HETATM    3  C3  UNL     1       6.529   9.028  -2.166  1.00  0.00     0.065 A 
HETATM    4  C4  UNL     1       6.346  10.224  -1.479  1.00  0.00     0.038 A 
HETATM    5  C5  UNL     1       7.460  10.905  -0.981  1.00  0.00     0.026 A 
HETATM    6  C6  UNL     1       8.748  10.380  -1.129  1.00  0.00     0.005 A 
ENDROOT
BRANCH   6   7
HETATM    7  N1  UNL     1       9.863  11.126  -0.733  1.00  0.00    -0.303 NA
HETATM    8  H5  UNL     1      10.244  11.713  -1.469  1.00  0.00     0.124 HD
HETATM    9  H6  UNL     1      10.579  10.579  -0.266  1.00  0.00     0.124 HD
ENDBRANCH   6   7
BRANCH   3  10
HETATM   10  O1  UNL     1       5.474   8.330  -2.671  1.00  0.00    -0.361 OA
HETATM   11  H7  UNL     1       5.693   8.047  -3.573  1.00  0.00     0.217 HD
ENDBRANCH   3  10
TORSDOF 2
ENDMDL
MODEL 4
REMARK VINA RESULT:      -3.0      3.684      4.242
REMARK  2 active torsions:
REMARK  status: ('A' for Active; 'I' for Inactive)
REMARK    1  A    between atoms: C3_3  and  O1_8 
REMARK    2  A    between atoms: C6_6  and  N1_7 
ROOT
HETATM    1  C1  UNL     1       6.411   8.706   3.085  1.00  0.00     0.026 A 
HETATM    2  C2  UNL     1       5.071   8.341   2.929  1.00  0.00     0.038 A 
HETATM    3  C3  UNL     1       4.687   7.591   1.827  1.00  0.00     0.065 A 
HETATM    4  C4  UNL     1       5.625   7.185   0.885  1.00  0.00     0.038 A 
HETATM    5  C5  UNL     1       6.963   7.555   1.046  1.00  0.00     0.026 A 
HETATM    6  C6  UNL     1       7.360   8.361   2.119  1.00  0.00     0.005 A 
ENDROOT
BRANCH   6   7
HETATM    7  N1  UNL     1       8.717   8.626   2.336  1.00  0.00    -0.303 NA
HETATM    8  H5  UNL     1       8.893   9.533   2.756  1.00  0.00     0.124 HD
HETATM    9  H6  UNL     1       9.304   8.453   1.527  1.00  0.00     0.124 HD
ENDBRANCH   6   7
BRANCH   3  10
HETATM   10  O1  UNL     1       3.372   7.253   1.713  1.00  0.00    -0.361 OA
HETATM   11  H7  UNL     1       3.209   6.943   0.808  1.00  0.00     0.217 HD
ENDBRANCH   3  10
TORSDOF 2
ENDMDL
MODEL 5
REMARK VINA RESULT:      -3.0      2.352      2.905
REMARK  2 active torsions:
REMARK  status: ('A' for Active; 'I' for Inactive)
REMARK    1  A    between atoms: C3_3  and  O1_8 
REMARK    2  A    between atoms: C6_6  and  N1_7 
ROOT
HETATM    1  C1  UNL     1       6.494  10.184  -0.820  1.00  0.00     0.026 A 
HETATM    2  C2  UNL     1       7.518  10.965  -1.360  1.00  0.00     0.038 A 
HETATM    3  C3  UNL     1       8.612  11.303  -0.576  1.00  0.00     0.065 A 
HETATM    4  C4  UNL     1       8.706  10.857   0.738  1.00  0.00     0.038 A 
HETATM    5  C5  UNL     1       7.677  10.077   1.272  1.00  0.00     0.026 A 
HETATM    6  C6  UNL     1       6.539   9.775   0.516  1.00  0.00     0.005 A 
ENDROOT
BRANCH   6   7
HETATM    7  N1  UNL     1       5.572   8.896   1.018  1.00  0.00    -0.303 NA
HETATM    8  H5  UNL     1       5.687   7.939   0.700  1.00  0.00     0.124 HD
HETATM    9  H6  UNL     1       4.620   9.228   0.909  1.00  0.00     0.124 HD
ENDBRANCH   6   7
BRANCH   3  10
HETATM   10  O1  UNL     1       9.591  12.065  -1.140  1.00  0.00    -0.361 OA
HETATM   11  H7  UNL     1       9.175  12.730  -1.712  1.00  0.00     0.217 HD
ENDBRANCH   3  10
TORSDOF 2
ENDMDL
MODEL 6
REMARK VINA RESULT:      -3.0      1.573      2.059
REMARK  2 active torsions:
REMARK  status: ('A' for Active; 'I' for Inactive)
REMARK    1  A    between atoms: C3_3  and  O1_8 
REMARK    2  A    between atoms: C6_6  and  N1_7 
ROOT
HETATM    1  C1  UNL     1       7.424  10.901  -1.421  1.00  0.00     0.026 A 
HETATM    2  C2  UNL     1       6.404  10.133  -0.855  1.00  0.00     0.038 A 
HETATM    3  C3  UNL     1       6.502   9.727   0.469  1.00  0.00     0.065 A 
HETATM    4  C4  UNL     1       7.599  10.092   1.241  1.00  0.00     0.038 A 
HETATM    5  C5  UNL     1       8.617  10.859   0.667  1.00  0.00     0.026 A 
HETATM    6  C6  UNL     1       8.564  11.228  -0.681  1.00  0.00     0.005 A 
ENDROOT
BRANCH   6   7
HETATM    7  N1  UNL     1       9.526  12.094  -1.213  1.00  0.00    -0.303 NA
HETATM    8  H5  UNL     1       9.427  13.055  -0.900  1.00  0.00     0.124 HD
HETATM    9  H6  UNL     1       9.629  12.024  -2.220  1.00  0.00     0.124 HD
ENDBRANCH   6   7
BRANCH   3  10
HETATM   10  O1  UNL     1       5.485   8.982   0.985  1.00  0.00    -0.361 OA
HETATM   11  H7  UNL     1       5.612   8.906   1.944  1.00  0.00     0.217 HD
ENDBRANCH   3  10
TORSDOF 2
ENDMDL
MODEL 7
REMARK VINA RESULT:      -3.0      2.889      3.357
REMARK  2 active torsions:
REMARK  status: ('A' for Active; 'I' for Inactive)
REMARK    1  A    between atoms: C3_3  and  O1_8 
REMARK    2  A    between atoms: C6_6  and  N1_7 
ROOT
HETATM    1  C1  UNL     1       6.976   9.816  -2.022  1.00  0.00     0.026 A 
HETATM    2  C2  UNL     1       6.608  10.552  -0.893  1.00  0.00     0.038 A 
HETATM    3  C3  UNL     1       6.363   9.897   0.305  1.00  0.00     0.065 A 
HETATM    4  C4  UNL     1       6.496   8.516   0.398  1.00  0.00     0.038 A 
HETATM    5  C5  UNL     1       6.863   7.786  -0.736  1.00  0.00     0.026 A 
HETATM    6  C6  UNL     1       7.057   8.421  -1.967  1.00  0.00     0.005 A 
ENDROOT
BRANCH   6   7
HETATM    7  N1  UNL     1       7.540   7.699  -3.064  1.00  0.00    -0.303 NA
HETATM    8  H5  UNL     1       7.136   6.771  -3.151  1.00  0.00     0.124 HD
HETATM    9  H6  UNL     1       8.552   7.688  -3.136  1.00  0.00     0.124 HD
ENDBRANCH   6   7
BRANCH   3  10
HETATM   10  O1  UNL     1       6.009  10.651   1.384  1.00  0.00    -0.361 OA
HETATM   11  H7  UNL     1       6.812  11.036   1.770  1.00  0.00     0.217 HD
ENDBRANCH   3  10
TORSDOF 2
ENDMDL
MODEL 8
REMARK VINA RESULT:      -3.0      1.574      2.310
REMARK  2 active torsions:
REMARK  status: ('A' for Active; 'I' for Inactive)
REMARK    1  A    between atoms: C3_3  and  O1_8 
REMARK    2  A    between atoms: C6_6  and  N1_7 
ROOT
HETATM    1  C1  UNL     1       8.633  10.915   0.582  1.00  0.00     0.026 A 
HETATM    2  C2  UNL     1       7.606  10.156   1.146  1.00  0.00     0.038 A 
HETATM    3  C3  UNL     1       6.516   9.788   0.369  1.00  0.00     0.065 A 
HETATM    4  C4  UNL     1       6.446  10.155  -0.970  1.00  0.00     0.038 A 
HETATM    5  C5  UNL     1       7.477  10.916  -1.528  1.00  0.00     0.026 A 
HETATM    6  C6  UNL     1       8.555  11.346  -0.746  1.00  0.00     0.005 A 
ENDROOT
BRANCH   6   7
HETATM    7  N1  UNL     1       9.638  12.004  -1.340  1.00  0.00    -0.303 NA
HETATM    8  H5  UNL     1       9.862  11.663  -2.269  1.00  0.00     0.124 HD
HETATM    9  H6  UNL     1      10.456  12.068  -0.744  1.00  0.00     0.124 HD
ENDBRANCH   6   7
BRANCH   3  10
HETATM   10  O1  UNL     1       5.536   9.045   0.955  1.00  0.00    -0.361 OA
HETATM   11  H7  UNL     1       5.737   8.957   1.901  1.00  0.00     0.217 HD
ENDBRANCH   3  10
TORSDOF 2
ENDMDL
MODEL 9
REMARK VINA RESULT:      -3.0      2.259      2.898
REMARK  2 active torsions:
REMARK  status: ('A' for Active; 'I' for Inactive)
REMARK    1  A    between atoms: C3_3  and  O1_8 
REMARK    2  A    between atoms: C6_6  and  N1_7 
ROOT
HETATM    1  C1  UNL     1       7.894   8.692  -2.238  1.00  0.00     0.026 A 
HETATM    2  C2  UNL     1       6.687   9.143  -1.700  1.00  0.00     0.038 A 
HETATM    3  C3  UNL     1       6.621  10.399  -1.114  1.00  0.00     0.065 A 
HETATM    4  C4  UNL     1       7.743  11.220  -1.072  1.00  0.00     0.038 A 
HETATM    5  C5  UNL     1       8.948  10.761  -1.612  1.00  0.00     0.026 A 
HETATM    6  C6  UNL     1       9.049   9.476  -2.154  1.00  0.00     0.005 A 
ENDROOT
BRANCH   6   7
HETATM    7  N1  UNL     1      10.224   9.072  -2.797  1.00  0.00    -0.303 NA
HETATM    8  H5  UNL     1      10.231   9.266  -3.793  1.00  0.00     0.124 HD
HETATM    9  H6  UNL     1      10.500   8.118  -2.587  1.00  0.00     0.124 HD
ENDBRANCH   6   7
BRANCH   3  10
HETATM   10  O1  UNL     1       5.425  10.804  -0.603  1.00  0.00    -0.361 OA
HETATM   11  H7  UNL     1       4.800  10.062  -0.652  1.00  0.00     0.217 HD
ENDBRANCH   3  10
TORSDOF 2
ENDMDL
