MODEL 1
REMARK VINA RESULT:      -2.9      0.000      0.000
REMARK  2 active torsions:
REMARK  status: ('A' for Active; 'I' for Inactive)
REMARK    1  A    between atoms: C3_3  and  O1_8 
REMARK    2  A    between atoms: C6_6  and  N1_7 
ROOT
HETATM    1  C1  UNL     1      11.395  -3.226 -20.734  1.00  0.00     0.026 A 
HETATM    2  C2  UNL     1      12.116  -2.238 -20.059  1.00  0.00     0.038 A 
HETATM    3  C3  UNL     1      12.290  -0.992 -20.645  1.00  0.00     0.065 A 
HETATM    4  C4  UNL     1      11.740  -0.713 -21.891  1.00  0.00     0.038 A 
HETATM    5  C5  UNL     1      11.021  -1.708 -22.562  1.00  0.00     0.026 A 
HETATM    6  C6  UNL     1      10.885  -2.987 -22.013  1.00  0.00     0.005 A 
ENDROOT
BRANCH   6   7
HETATM    7  N1  UNL     1      10.066  -3.936 -22.635  1.00  0.00    -0.303 NA
HETATM    8  H5  UNL     1      10.297  -4.895 -22.393  1.00  0.00     0.124 HD
HETATM    9  H6  UNL     1       9.969  -3.803 -23.635  1.00  0.00     0.124 HD
ENDBRANCH   6   7
BRANCH   3  10
HETATM   10  O1  UNL     1      12.996  -0.054 -19.953  1.00  0.00    -0.361 OA
HETATM   11  H7  UNL     1      13.077  -0.345 -19.031  1.00  0.00     0.217 HD
ENDBRANCH   3  10
TORSDOF 2
ENDMDL
MODEL 2
REMARK VINA RESULT:      -2.9      2.778      3.680
REMARK  2 active torsions:
REMARK  status: ('A' for Active; 'I' for Inactive)
REMARK    1  A    between atoms: C3_3  and  O1_8 
REMARK    2  A    between atoms: C6_6  and  N1_7 
ROOT
HETATM    1  C1  UNL     1      11.690  -0.782 -21.927  1.00  0.00     0.026 A 
HETATM    2  C2  UNL     1      10.950  -1.796 -22.539  1.00  0.00     0.038 A 
HETATM    3  C3  UNL     1      10.836  -3.033 -21.920  1.00  0.00     0.065 A 
HETATM    4  C4  UNL     1      11.439  -3.267 -20.689  1.00  0.00     0.038 A 
HETATM    5  C5  UNL     1      12.180  -2.248 -20.084  1.00  0.00     0.026 A 
HETATM    6  C6  UNL     1      12.354  -1.014 -20.719  1.00  0.00     0.005 A 
ENDROOT
BRANCH   6   7
HETATM    7  N1  UNL     1      12.995   0.037 -20.053  1.00  0.00    -0.303 NA
HETATM    8  H5  UNL     1      12.553   0.940 -20.196  1.00  0.00     0.124 HD
HETATM    9  H6  UNL     1      13.997   0.069 -20.205  1.00  0.00     0.124 HD
ENDBRANCH   6   7
BRANCH   3  10
HETATM   10  O1  UNL     1      10.104  -3.996 -22.548  1.00  0.00    -0.361 OA
HETATM   11  H7  UNL     1      10.346  -4.860 -22.178  1.00  0.00     0.217 HD
ENDBRANCH   3  10
TORSDOF 2
ENDMDL
MODEL 3
REMARK VINA RESULT:      -2.8     15.691     15.959
REMARK  2 active torsions:
REMARK  status: ('A' for Active; 'I' for Inactive)
REMARK    1  A    between atoms: C3_3  and  O1_8 
REMARK    2  A    between atoms: C6_6  and  N1_7 
ROOT
HETATM    1  C1  UNL     1      16.171   3.748  -7.744  1.00  0.00     0.026 A 
HETATM    2  C2  UNL     1      16.742   2.499  -7.487  1.00  0.00     0.038 A 
HETATM    3  C3  UNL     1      18.109   2.322  -7.645  1.00  0.00     0.065 A 
HETATM    4  C4  UNL     1      18.919   3.382  -8.041  1.00  0.00     0.038 A 
HETATM    5  C5  UNL     1      18.340   4.628  -8.298  1.00  0.00     0.026 A 
HETATM    6  C6  UNL     1      16.957   4.810  -8.200  1.00  0.00     0.005 A 
ENDROOT
BRANCH   6   7
HETATM    7  N1  UNL     1      16.402   6.087  -8.343  1.00  0.00    -0.303 NA
HETATM    8  H5  UNL     1      16.381   6.418  -9.302  1.00  0.00     0.124 HD
HETATM    9  H6  UNL     1      16.789   6.776  -7.705  1.00  0.00     0.124 HD
ENDBRANCH   6   7
BRANCH   3  10
HETATM   10  O1  UNL     1      18.629   1.090  -7.382  1.00  0.00    -0.361 OA
HETATM   11  H7  UNL     1      19.547   1.068  -7.695  1.00  0.00     0.217 HD
ENDBRANCH   3  10
TORSDOF 2
ENDMDL
MODEL 4
REMARK VINA RESULT:      -2.7     15.230     15.709
REMARK  2 active torsions:
REMARK  status: ('A' for Active; 'I' for Inactive)
REMARK    1  A    between atoms: C3_3  and  O1_8 
REMARK    2  A    between atoms: C6_6  and  N1_7 
ROOT
HETATM    1  C1  UNL     1      21.243   0.897  -9.517  1.00  0.00     0.026 A 
HETATM    2  C2  UNL     1      21.461  -0.301 -10.202  1.00  0.00     0.038 A 
HETATM    3  C3  UNL     1      20.860  -1.468  -9.754  1.00  0.00     0.065 A 
HETATM    4  C4  UNL     1      20.029  -1.454  -8.639  1.00  0.00     0.038 A 
HETATM    5  C5  UNL     1      19.816  -0.252  -7.958  1.00  0.00     0.026 A 
HETATM    6  C6  UNL     1      20.460   0.923  -8.359  1.00  0.00     0.005 A 
ENDROOT
BRANCH   6   7
HETATM    7  N1  UNL     1      20.149   2.142  -7.745  1.00  0.00    -0.303 NA
HETATM    8  H5  UNL     1      20.509   2.227  -6.800  1.00  0.00     0.124 HD
HETATM    9  H6  UNL     1      19.168   2.395  -7.809  1.00  0.00     0.124 HD
ENDBRANCH   6   7
BRANCH   3  10
HETATM   10  O1  UNL     1      21.095  -2.616 -10.451  1.00  0.00    -0.361 OA
HETATM   11  H7  UNL     1      20.503  -3.308 -10.116  1.00  0.00     0.217 HD
ENDBRANCH   3  10
TORSDOF 2
ENDMDL
MODEL 5
REMARK VINA RESULT:      -2.7      5.156      6.053
REMARK  2 active torsions:
REMARK  status: ('A' for Active; 'I' for Inactive)
REMARK    1  A    between atoms: C3_3  and  O1_8 
REMARK    2  A    between atoms: C6_6  and  N1_7 
ROOT
HETATM    1  C1  UNL     1      14.786   2.300 -18.161  1.00  0.00     0.026 A 
HETATM    2  C2  UNL     1      13.694   2.266 -19.031  1.00  0.00     0.038 A 
HETATM    3  C3  UNL     1      13.647   1.312 -20.038  1.00  0.00     0.065 A 
HETATM    4  C4  UNL     1      14.669   0.379 -20.178  1.00  0.00     0.038 A 
HETATM    5  C5  UNL     1      15.759   0.421 -19.304  1.00  0.00     0.026 A 
HETATM    6  C6  UNL     1      15.853   1.411 -18.321  1.00  0.00     0.005 A 
ENDROOT
BRANCH   6   7
HETATM    7  N1  UNL     1      16.886   1.371 -17.377  1.00  0.00    -0.303 NA
HETATM    8  H5  UNL     1      17.807   1.530 -17.774  1.00  0.00     0.124 HD
HETATM    9  H6  UNL     1      16.860   0.556 -16.774  1.00  0.00     0.124 HD
ENDBRANCH   6   7
BRANCH   3  10
HETATM   10  O1  UNL     1      12.564   1.310 -20.865  1.00  0.00    -0.361 OA
HETATM   11  H7  UNL     1      11.765   1.186 -20.328  1.00  0.00     0.217 HD
ENDBRANCH   3  10
TORSDOF 2
ENDMDL
MODEL 6
REMARK VINA RESULT:      -2.7      4.612      5.397
REMARK  2 active torsions:
REMARK  status: ('A' for Active; 'I' for Inactive)
REMARK    1  A    between atoms: C3_3  and  O1_8 
REMARK    2  A    between atoms: C6_6  and  N1_7 
ROOT
HETATM    1  C1  UNL     1      13.660   2.342 -19.066  1.00  0.00     0.026 A 
HETATM    2  C2  UNL     1      14.718   2.372 -18.155  1.00  0.00     0.038 A 
HETATM    3  C3  UNL     1      15.745   1.445 -18.263  1.00  0.00     0.065 A 
HETATM    4  C4  UNL     1      15.737   0.495 -19.279  1.00  0.00     0.038 A 
HETATM    5  C5  UNL     1      14.674   0.470 -20.185  1.00  0.00     0.026 A 
HETATM    6  C6  UNL     1      13.601   1.359 -20.058  1.00  0.00     0.005 A 
ENDROOT
BRANCH   6   7
HETATM    7  N1  UNL     1      12.603   1.404 -21.038  1.00  0.00    -0.303 NA
HETATM    8  H5  UNL     1      12.849   0.914 -21.893  1.00  0.00     0.124 HD
HETATM    9  H6  UNL     1      12.245   2.336 -21.216  1.00  0.00     0.124 HD
ENDBRANCH   6   7
BRANCH   3  10
HETATM   10  O1  UNL     1      16.761   1.509 -17.357  1.00  0.00    -0.361 OA
HETATM   11  H7  UNL     1      17.060   0.606 -17.162  1.00  0.00     0.217 HD
ENDBRANCH   3  10
TORSDOF 2
ENDMDL
MODEL 7
REMARK VINA RESULT:      -2.7      4.517      5.253
REMARK  2 active torsions:
REMARK  status: ('A' for Active; 'I' for Inactive)
REMARK    1  A    between atoms: C3_3  and  O1_8 
REMARK    2  A    between atoms: C6_6  and  N1_7 
ROOT
HETATM    1  C1  UNL     1      14.711   0.314 -20.148  1.00  0.00     0.026 A 
HETATM    2  C2  UNL     1      15.759   0.412 -19.230  1.00  0.00     0.038 A 
HETATM    3  C3  UNL     1      15.755   1.429 -18.286  1.00  0.00     0.065 A 
HETATM    4  C4  UNL     1      14.709   2.343 -18.235  1.00  0.00     0.038 A 
HETATM    5  C5  UNL     1      13.663   2.240 -19.157  1.00  0.00     0.026 A 
HETATM    6  C6  UNL     1      13.679   1.258 -20.153  1.00  0.00     0.005 A 
ENDROOT
BRANCH   6   7
HETATM    7  N1  UNL     1      12.573   1.089 -20.994  1.00  0.00    -0.303 NA
HETATM    8  H5  UNL     1      11.713   1.477 -20.619  1.00  0.00     0.124 HD
HETATM    9  H6  UNL     1      12.454   0.139 -21.330  1.00  0.00     0.124 HD
ENDBRANCH   6   7
BRANCH   3  10
HETATM   10  O1  UNL     1      16.795   1.488 -17.407  1.00  0.00    -0.361 OA
HETATM   11  H7  UNL     1      16.531   2.039 -16.653  1.00  0.00     0.217 HD
ENDBRANCH   3  10
TORSDOF 2
ENDMDL
MODEL 8
REMARK VINA RESULT:      -2.7      5.429      6.115
REMARK  2 active torsions:
REMARK  status: ('A' for Active; 'I' for Inactive)
REMARK    1  A    between atoms: C3_3  and  O1_8 
REMARK    2  A    between atoms: C6_6  and  N1_7 
ROOT
HETATM    1  C1  UNL     1      15.447   0.899 -19.943  1.00  0.00     0.026 A 
HETATM    2  C2  UNL     1      14.374   1.568 -20.537  1.00  0.00     0.038 A 
HETATM    3  C3  UNL     1      13.631   2.472 -19.792  1.00  0.00     0.065 A 
HETATM    4  C4  UNL     1      13.955   2.731 -18.464  1.00  0.00     0.038 A 
HETATM    5  C5  UNL     1      15.029   2.057 -17.877  1.00  0.00     0.026 A 
HETATM    6  C6  UNL     1      15.753   1.098 -18.594  1.00  0.00     0.005 A 
ENDROOT
BRANCH   6   7
HETATM    7  N1  UNL     1      16.898   0.518 -18.036  1.00  0.00    -0.303 NA
HETATM    8  H5  UNL     1      16.968  -0.482 -18.199  1.00  0.00     0.124 HD
HETATM    9  H6  UNL     1      17.050   0.762 -17.064  1.00  0.00     0.124 HD
ENDBRANCH   6   7
BRANCH   3  10
HETATM   10  O1  UNL     1      12.594   3.107 -20.408  1.00  0.00    -0.361 OA
HETATM   11  H7  UNL     1      12.863   4.017 -20.608  1.00  0.00     0.217 HD
ENDBRANCH   3  10
TORSDOF 2
ENDMDL
MODEL 9
REMARK VINA RESULT:      -2.6      6.489      7.306
REMARK  2 active torsions:
REMARK  status: ('A' for Active; 'I' for Inactive)
REMARK    1  A    between atoms: C3_3  and  O1_8 
REMARK    2  A    between atoms: C6_6  and  N1_7 
ROOT
HETATM    1  C1  UNL     1      17.088  -0.742 -18.700  1.00  0.00     0.026 A 
HETATM    2  C2  UNL     1      18.414  -0.447 -18.375  1.00  0.00     0.038 A 
HETATM    3  C3  UNL     1      19.286  -1.475 -18.045  1.00  0.00     0.065 A 
HETATM    4  C4  UNL     1      18.856  -2.797 -18.050  1.00  0.00     0.038 A 
HETATM    5  C5  UNL     1      17.527  -3.085 -18.375  1.00  0.00     0.026 A 
HETATM    6  C6  UNL     1      16.618  -2.058 -18.654  1.00  0.00     0.005 A 
ENDROOT
BRANCH   6   7
HETATM    7  N1  UNL     1      15.325  -2.362 -19.093  1.00  0.00    -0.303 NA
HETATM    8  H5  UNL     1      14.969  -3.243 -18.735  1.00  0.00     0.124 HD
HETATM    9  H6  UNL     1      15.201  -2.274 -20.096  1.00  0.00     0.124 HD
ENDBRANCH   6   7
BRANCH   3  10
HETATM   10  O1  UNL     1      20.572  -1.147 -17.737  1.00  0.00    -0.361 OA
HETATM   11  H7  UNL     1      21.109  -1.209 -18.542  1.00  0.00     0.217 HD
ENDBRANCH   3  10
TORSDOF 2
ENDMDL
MODEL 10
REMARK VINA RESULT:      -2.5     12.985     13.820
REMARK  2 active torsions:
REMARK  status: ('A' for Active; 'I' for Inactive)
REMARK    1  A    between atoms: C3_3  and  O1_8 
REMARK    2  A    between atoms: C6_6  and  N1_7 
ROOT
HETATM    1  C1  UNL     1      21.597   1.199 -11.290  1.00  0.00     0.026 A 
HETATM    2  C2  UNL     1      21.610  -0.123 -10.841  1.00  0.00     0.038 A 
HETATM    3  C3  UNL     1      21.249  -1.147 -11.705  1.00  0.00     0.065 A 
HETATM    4  C4  UNL     1      20.891  -0.871 -13.020  1.00  0.00     0.038 A 
HETATM    5  C5  UNL     1      20.879   0.455 -13.462  1.00  0.00     0.026 A 
HETATM    6  C6  UNL     1      21.182   1.506 -12.590  1.00  0.00     0.005 A 
ENDROOT
BRANCH   6   7
HETATM    7  N1  UNL     1      21.283   2.815 -13.072  1.00  0.00    -0.303 NA
HETATM    8  H5  UNL     1      20.676   3.007 -13.863  1.00  0.00     0.124 HD
HETATM    9  H6  UNL     1      22.237   3.120 -13.235  1.00  0.00     0.124 HD
ENDBRANCH   6   7
BRANCH   3  10
HETATM   10  O1  UNL     1      21.277  -2.424 -11.229  1.00  0.00    -0.361 OA
HETATM   11  H7  UNL     1      21.489  -2.397 -10.282  1.00  0.00     0.217 HD
ENDBRANCH   3  10
TORSDOF 2
ENDMDL
MODEL 11
REMARK VINA RESULT:      -2.5      6.994      7.859
REMARK  2 active torsions:
REMARK  status: ('A' for Active; 'I' for Inactive)
REMARK    1  A    between atoms: C3_3  and  O1_8 
REMARK    2  A    between atoms: C6_6  and  N1_7 
ROOT
HETATM    1  C1  UNL     1      16.667  -0.551 -18.583  1.00  0.00     0.026 A 
HETATM    2  C2  UNL     1      17.518  -1.629 -18.835  1.00  0.00     0.038 A 
HETATM    3  C3  UNL     1      18.862  -1.536 -18.503  1.00  0.00     0.065 A 
HETATM    4  C4  UNL     1      19.366  -0.385 -17.908  1.00  0.00     0.038 A 
HETATM    5  C5  UNL     1      18.509   0.691 -17.660  1.00  0.00     0.026 A 
HETATM    6  C6  UNL     1      17.164   0.638 -18.041  1.00  0.00     0.005 A 
ENDROOT
BRANCH   6   7
HETATM    7  N1  UNL     1      16.289   1.670 -17.682  1.00  0.00    -0.303 NA
HETATM    8  H5  UNL     1      15.904   1.572 -16.748  1.00  0.00     0.124 HD
HETATM    9  H6  UNL     1      15.575   1.862 -18.376  1.00  0.00     0.124 HD
ENDBRANCH   6   7
BRANCH   3  10
HETATM   10  O1  UNL     1      19.659  -2.611 -18.762  1.00  0.00    -0.361 OA
HETATM   11  H7  UNL     1      19.661  -2.772 -19.719  1.00  0.00     0.217 HD
ENDBRANCH   3  10
TORSDOF 2
ENDMDL
MODEL 12
REMARK VINA RESULT:      -2.5      6.775      7.618
REMARK  2 active torsions:
REMARK  status: ('A' for Active; 'I' for Inactive)
REMARK    1  A    between atoms: C3_3  and  O1_8 
REMARK    2  A    between atoms: C6_6  and  N1_7 
ROOT
HETATM    1  C1  UNL     1      18.081  -1.637 -18.608  1.00  0.00     0.026 A 
HETATM    2  C2  UNL     1      16.786  -1.179 -18.858  1.00  0.00     0.038 A 
HETATM    3  C3  UNL     1      16.464   0.147 -18.602  1.00  0.00     0.065 A 
HETATM    4  C4  UNL     1      17.425   1.027 -18.116  1.00  0.00     0.038 A 
HETATM    5  C5  UNL     1      18.719   0.560 -17.867  1.00  0.00     0.026 A 
HETATM    6  C6  UNL     1      19.046  -0.785 -18.063  1.00  0.00     0.005 A 
ENDROOT
BRANCH   6   7
HETATM    7  N1  UNL     1      20.371  -1.216 -17.925  1.00  0.00    -0.303 NA
HETATM    8  H5  UNL     1      20.630  -1.440 -16.969  1.00  0.00     0.124 HD
HETATM    9  H6  UNL     1      21.048  -0.610 -18.376  1.00  0.00     0.124 HD
ENDBRANCH   6   7
BRANCH   3  10
HETATM   10  O1  UNL     1      15.191   0.556 -18.862  1.00  0.00    -0.361 OA
HETATM   11  H7  UNL     1      14.884   0.120 -19.673  1.00  0.00     0.217 HD
ENDBRANCH   3  10
TORSDOF 2
ENDMDL
MODEL 13
REMARK VINA RESULT:      -2.4     13.831     14.478
REMARK  2 active torsions:
REMARK  status: ('A' for Active; 'I' for Inactive)
REMARK    1  A    between atoms: C3_3  and  O1_8 
REMARK    2  A    between atoms: C6_6  and  N1_7 
ROOT
HETATM    1  C1  UNL     1      23.675  -2.300 -12.182  1.00  0.00     0.026 A 
HETATM    2  C2  UNL     1      22.779  -2.644 -11.168  1.00  0.00     0.038 A 
HETATM    3  C3  UNL     1      21.548  -2.007 -11.092  1.00  0.00     0.065 A 
HETATM    4  C4  UNL     1      21.193  -1.041 -12.026  1.00  0.00     0.038 A 
HETATM    5  C5  UNL     1      22.096  -0.701 -13.038  1.00  0.00     0.026 A 
HETATM    6  C6  UNL     1      23.363  -1.289 -13.096  1.00  0.00     0.005 A 
ENDROOT
BRANCH   6   7
HETATM    7  N1  UNL     1      24.211  -1.030 -14.179  1.00  0.00    -0.303 NA
HETATM    8  H5  UNL     1      23.719  -0.845 -15.047  1.00  0.00     0.124 HD
HETATM    9  H6  UNL     1      24.951  -1.715 -14.293  1.00  0.00     0.124 HD
ENDBRANCH   6   7
BRANCH   3  10
HETATM   10  O1  UNL     1      20.701  -2.373 -10.090  1.00  0.00    -0.361 OA
HETATM   11  H7  UNL     1      19.847  -1.933 -10.230  1.00  0.00     0.217 HD
ENDBRANCH   3  10
TORSDOF 2
ENDMDL
MODEL 14
REMARK VINA RESULT:      -2.4      5.387      6.283
REMARK  2 active torsions:
REMARK  status: ('A' for Active; 'I' for Inactive)
REMARK    1  A    between atoms: C3_3  and  O1_8 
REMARK    2  A    between atoms: C6_6  and  N1_7 
ROOT
HETATM    1  C1  UNL     1      16.887  -0.573 -18.594  1.00  0.00     0.026 A 
HETATM    2  C2  UNL     1      16.098  -0.968 -19.677  1.00  0.00     0.038 A 
HETATM    3  C3  UNL     1      15.104  -0.122 -20.148  1.00  0.00     0.065 A 
HETATM    4  C4  UNL     1      14.897   1.122 -19.563  1.00  0.00     0.038 A 
HETATM    5  C5  UNL     1      15.689   1.510 -18.479  1.00  0.00     0.026 A 
HETATM    6  C6  UNL     1      16.656   0.647 -17.952  1.00  0.00     0.005 A 
ENDROOT
BRANCH   6   7
HETATM    7  N1  UNL     1      17.523   1.090 -16.947  1.00  0.00    -0.303 NA
HETATM    8  H5  UNL     1      18.404   0.587 -16.917  1.00  0.00     0.124 HD
HETATM    9  H6  UNL     1      17.088   1.162 -16.033  1.00  0.00     0.124 HD
ENDBRANCH   6   7
BRANCH   3  10
HETATM   10  O1  UNL     1      14.357  -0.542 -21.208  1.00  0.00    -0.361 OA
HETATM   11  H7  UNL     1      14.240  -1.504 -21.142  1.00  0.00     0.217 HD
ENDBRANCH   3  10
TORSDOF 2
ENDMDL
MODEL 15
REMARK VINA RESULT:      -2.4     14.945     15.897
REMARK  2 active torsions:
REMARK  status: ('A' for Active; 'I' for Inactive)
REMARK    1  A    between atoms: C3_3  and  O1_8 
REMARK    2  A    between atoms: C6_6  and  N1_7 
ROOT
HETATM    1  C1  UNL     1      22.160  -1.978  -8.317  1.00  0.00     0.026 A 
HETATM    2  C2  UNL     1      23.194  -2.662  -8.958  1.00  0.00     0.038 A 
HETATM    3  C3  UNL     1      23.107  -2.922 -10.318  1.00  0.00     0.065 A 
HETATM    4  C4  UNL     1      22.006  -2.495 -11.052  1.00  0.00     0.038 A 
HETATM    5  C5  UNL     1      20.973  -1.812 -10.402  1.00  0.00     0.026 A 
HETATM    6  C6  UNL     1      21.016  -1.592  -9.022  1.00  0.00     0.005 A 
ENDROOT
BRANCH   6   7
HETATM    7  N1  UNL     1      20.037  -0.805  -8.403  1.00  0.00    -0.303 NA
HETATM    8  H5  UNL     1      19.705  -0.039  -8.980  1.00  0.00     0.124 HD
HETATM    9  H6  UNL     1      20.284  -0.505  -7.466  1.00  0.00     0.124 HD
ENDBRANCH   6   7
BRANCH   3  10
HETATM   10  O1  UNL     1      24.138  -3.590 -10.908  1.00  0.00    -0.361 OA
HETATM   11  H7  UNL     1      24.070  -3.478 -11.870  1.00  0.00     0.217 HD
ENDBRANCH   3  10
TORSDOF 2
ENDMDL
MODEL 16
REMARK VINA RESULT:      -2.4      5.588      6.575
REMARK  2 active torsions:
REMARK  status: ('A' for Active; 'I' for Inactive)
REMARK    1  A    between atoms: C3_3  and  O1_8 
REMARK    2  A    between atoms: C6_6  and  N1_7 
ROOT
HETATM    1  C1  UNL     1      15.019   0.847 -19.465  1.00  0.00     0.026 A 
HETATM    2  C2  UNL     1      15.603  -0.348 -19.892  1.00  0.00     0.038 A 
HETATM    3  C3  UNL     1      16.753  -0.813 -19.269  1.00  0.00     0.065 A 
HETATM    4  C4  UNL     1      17.320  -0.109 -18.212  1.00  0.00     0.038 A 
HETATM    5  C5  UNL     1      16.731   1.087 -17.791  1.00  0.00     0.026 A 
HETATM    6  C6  UNL     1      15.606   1.602 -18.444  1.00  0.00     0.005 A 
ENDROOT
BRANCH   6   7
HETATM    7  N1  UNL     1      14.955   2.734 -17.941  1.00  0.00    -0.303 NA
HETATM    8  H5  UNL     1      14.174   2.517 -17.330  1.00  0.00     0.124 HD
HETATM    9  H6  UNL     1      14.713   3.417 -18.651  1.00  0.00     0.124 HD
ENDBRANCH   6   7
BRANCH   3  10
HETATM   10  O1  UNL     1      17.290  -1.984 -19.713  1.00  0.00    -0.361 OA
HETATM   11  H7  UNL     1      16.804  -2.268 -20.503  1.00  0.00     0.217 HD
ENDBRANCH   3  10
TORSDOF 2
ENDMDL
MODEL 17
REMARK VINA RESULT:      -2.4     16.471     16.916
REMARK  2 active torsions:
REMARK  status: ('A' for Active; 'I' for Inactive)
REMARK    1  A    between atoms: C3_3  and  O1_8 
REMARK    2  A    between atoms: C6_6  and  N1_7 
ROOT
HETATM    1  C1  UNL     1      18.768   8.103 -10.657  1.00  0.00     0.026 A 
HETATM    2  C2  UNL     1      18.107   7.230  -9.790  1.00  0.00     0.038 A 
HETATM    3  C3  UNL     1      17.021   7.684  -9.055  1.00  0.00     0.065 A 
HETATM    4  C4  UNL     1      16.575   8.994  -9.184  1.00  0.00     0.038 A 
HETATM    5  C5  UNL     1      17.244   9.863 -10.053  1.00  0.00     0.026 A 
HETATM    6  C6  UNL     1      18.375   9.441 -10.758  1.00  0.00     0.005 A 
ENDROOT
BRANCH   6   7
HETATM    7  N1  UNL     1      18.964  10.279 -11.712  1.00  0.00    -0.303 NA
HETATM    8  H5  UNL     1      18.321  10.591 -12.433  1.00  0.00     0.124 HD
HETATM    9  H6  UNL     1      19.830   9.918 -12.097  1.00  0.00     0.124 HD
ENDBRANCH   6   7
BRANCH   3  10
HETATM   10  O1  UNL     1      16.400   6.801  -8.222  1.00  0.00    -0.361 OA
HETATM   11  H7  UNL     1      15.541   6.564  -8.607  1.00  0.00     0.217 HD
ENDBRANCH   3  10
TORSDOF 2
ENDMDL
MODEL 18
REMARK VINA RESULT:      -2.4      5.253      6.174
REMARK  2 active torsions:
REMARK  status: ('A' for Active; 'I' for Inactive)
REMARK    1  A    between atoms: C3_3  and  O1_8 
REMARK    2  A    between atoms: C6_6  and  N1_7 
ROOT
HETATM    1  C1  UNL     1      15.604  -0.195 -19.916  1.00  0.00     0.026 A 
HETATM    2  C2  UNL     1      15.082   0.983 -19.377  1.00  0.00     0.038 A 
HETATM    3  C3  UNL     1      15.700   1.572 -18.283  1.00  0.00     0.065 A 
HETATM    4  C4  UNL     1      16.845   1.009 -17.729  1.00  0.00     0.038 A 
HETATM    5  C5  UNL     1      17.361  -0.171 -18.273  1.00  0.00     0.026 A 
HETATM    6  C6  UNL     1      16.719  -0.811 -19.338  1.00  0.00     0.005 A 
ENDROOT
BRANCH   6   7
HETATM    7  N1  UNL     1      17.308  -1.922 -19.951  1.00  0.00    -0.303 NA
HETATM    8  H5  UNL     1      17.014  -2.061 -20.913  1.00  0.00     0.124 HD
HETATM    9  H6  UNL     1      17.248  -2.773 -19.402  1.00  0.00     0.124 HD
ENDBRANCH   6   7
BRANCH   3  10
HETATM   10  O1  UNL     1      15.162   2.721 -17.788  1.00  0.00    -0.361 OA
HETATM   11  H7  UNL     1      14.687   2.513 -16.968  1.00  0.00     0.217 HD
ENDBRANCH   3  10
TORSDOF 2
ENDMDL
MODEL 19
REMARK VINA RESULT:      -2.3     13.960     14.652
REMARK  2 active torsions:
REMARK  status: ('A' for Active; 'I' for Inactive)
REMARK    1  A    between atoms: C3_3  and  O1_8 
REMARK    2  A    between atoms: C6_6  and  N1_7 
ROOT
HETATM    1  C1  UNL     1      21.267  -0.983 -11.832  1.00  0.00     0.026 A 
HETATM    2  C2  UNL     1      22.179  -0.778 -12.870  1.00  0.00     0.038 A 
HETATM    3  C3  UNL     1      23.352  -1.517 -12.912  1.00  0.00     0.065 A 
HETATM    4  C4  UNL     1      23.622  -2.472 -11.938  1.00  0.00     0.038 A 
HETATM    5  C5  UNL     1      22.706  -2.671 -10.900  1.00  0.00     0.026 A 
HETATM    6  C6  UNL     1      21.546  -1.895 -10.809  1.00  0.00     0.005 A 
ENDROOT
BRANCH   6   7
HETATM    7  N1  UNL     1      20.581  -2.183  -9.838  1.00  0.00    -0.303 NA
HETATM    8  H5  UNL     1      20.965  -2.575  -8.984  1.00  0.00     0.124 HD
HETATM    9  H6  UNL     1      19.793  -2.717 -10.188  1.00  0.00     0.124 HD
ENDBRANCH   6   7
BRANCH   3  10
HETATM   10  O1  UNL     1      24.214  -1.289 -13.942  1.00  0.00    -0.361 OA
HETATM   11  H7  UNL     1      25.064  -0.995 -13.576  1.00  0.00     0.217 HD
ENDBRANCH   3  10
TORSDOF 2
ENDMDL
MODEL 20
REMARK VINA RESULT:      -2.3     13.538     14.339
REMARK  2 active torsions:
REMARK  status: ('A' for Active; 'I' for Inactive)
REMARK    1  A    between atoms: C3_3  and  O1_8 
REMARK    2  A    between atoms: C6_6  and  N1_7 
ROOT
HETATM    1  C1  UNL     1      21.494   0.282 -10.075  1.00  0.00     0.026 A 
HETATM    2  C2  UNL     1      21.569   1.076 -11.221  1.00  0.00     0.038 A 
HETATM    3  C3  UNL     1      21.461   0.488 -12.474  1.00  0.00     0.065 A 
HETATM    4  C4  UNL     1      21.262  -0.883 -12.597  1.00  0.00     0.038 A 
HETATM    5  C5  UNL     1      21.189  -1.671 -11.445  1.00  0.00     0.026 A 
HETATM    6  C6  UNL     1      21.355  -1.105 -10.177  1.00  0.00     0.005 A 
ENDROOT
BRANCH   6   7
HETATM    7  N1  UNL     1      21.162  -1.881  -9.028  1.00  0.00    -0.303 NA
HETATM    8  H5  UNL     1      21.913  -1.800  -8.350  1.00  0.00     0.124 HD
HETATM    9  H6  UNL     1      20.919  -2.847  -9.221  1.00  0.00     0.124 HD
ENDBRANCH   6   7
BRANCH   3  10
HETATM   10  O1  UNL     1      21.537   1.297 -13.568  1.00  0.00    -0.361 OA
HETATM   11  H7  UNL     1      21.606   2.218 -13.268  1.00  0.00     0.217 HD
ENDBRANCH   3  10
TORSDOF 2
ENDMDL
