HETATM    1  C1  UNL     1      18.388   5.142 -11.405  1.00  0.00     0.026 A 
HETATM    2  C2  UNL     1      19.109   6.130 -10.730  1.00  0.00     0.038 A 
HETATM    3  C3  UNL     1      19.283   7.376 -11.316  1.00  0.00     0.065 A 
HETATM    4  C4  UNL     1      18.733   7.655 -12.562  1.00  0.00     0.038 A 
HETATM    5  C5  UNL     1      18.014   6.660 -13.233  1.00  0.00     0.026 A 
HETATM    6  C6  UNL     1      17.878   5.381 -12.684  1.00  0.00     0.005 A 
HETATM    7  N1  UNL     1      17.059   4.432 -13.306  1.00  0.00    -0.303 NA
HETATM    8  H5  UNL     1      17.290   3.473 -13.064  1.00  0.00     0.124 HD
HETATM    9  H6  UNL     1      16.962   4.565 -14.306  1.00  0.00     0.124 HD
HETATM   10  O1  UNL     1      19.989   8.314 -10.624  1.00  0.00    -0.361 OA
HETATM   11  H7  UNL     1      20.070   8.023  -9.702  1.00  0.00     0.217 HD
HETATM    1  C1  UNL     1      18.683   7.586 -12.598  1.00  0.00     0.026 A 
HETATM    2  C2  UNL     1      17.943   6.572 -13.210  1.00  0.00     0.038 A 
HETATM    3  C3  UNL     1      17.829   5.335 -12.591  1.00  0.00     0.065 A 
HETATM    4  C4  UNL     1      18.432   5.101 -11.360  1.00  0.00     0.038 A 
HETATM    5  C5  UNL     1      19.173   6.120 -10.755  1.00  0.00     0.026 A 
HETATM    6  C6  UNL     1      19.347   7.354 -11.390  1.00  0.00     0.005 A 
HETATM    7  N1  UNL     1      19.988   8.405 -10.724  1.00  0.00    -0.303 NA
HETATM    8  H5  UNL     1      19.546   9.308 -10.867  1.00  0.00     0.124 HD
HETATM    9  H6  UNL     1      20.990   8.437 -10.876  1.00  0.00     0.124 HD
HETATM   10  O1  UNL     1      17.097   4.372 -13.219  1.00  0.00    -0.361 OA
HETATM   11  H7  UNL     1      17.339   3.508 -12.849  1.00  0.00     0.217 HD
HETATM    1  C1  UNL     1      23.164  12.116   1.585  1.00  0.00     0.026 A 
HETATM    2  C2  UNL     1      23.735  10.867   1.842  1.00  0.00     0.038 A 
HETATM    3  C3  UNL     1      25.102  10.690   1.684  1.00  0.00     0.065 A 
HETATM    4  C4  UNL     1      25.912  11.750   1.288  1.00  0.00     0.038 A 
HETATM    5  C5  UNL     1      25.333  12.996   1.031  1.00  0.00     0.026 A 
HETATM    6  C6  UNL     1      23.950  13.178   1.129  1.00  0.00     0.005 A 
HETATM    7  N1  UNL     1      23.395  14.455   0.986  1.00  0.00    -0.303 NA
HETATM    8  H5  UNL     1      23.374  14.786   0.027  1.00  0.00     0.124 HD
HETATM    9  H6  UNL     1      23.782  15.144   1.624  1.00  0.00     0.124 HD
HETATM   10  O1  UNL     1      25.622   9.458   1.947  1.00  0.00    -0.361 OA
HETATM   11  H7  UNL     1      26.540   9.436   1.634  1.00  0.00     0.217 HD
HETATM    1  C1  UNL     1      28.236   9.265  -0.188  1.00  0.00     0.026 A 
HETATM    2  C2  UNL     1      28.454   8.067  -0.873  1.00  0.00     0.038 A 
HETATM    3  C3  UNL     1      27.853   6.900  -0.425  1.00  0.00     0.065 A 
HETATM    4  C4  UNL     1      27.022   6.914   0.690  1.00  0.00     0.038 A 
HETATM    5  C5  UNL     1      26.809   8.116   1.371  1.00  0.00     0.026 A 
HETATM    6  C6  UNL     1      27.453   9.291   0.970  1.00  0.00     0.005 A 
HETATM    7  N1  UNL     1      27.142  10.510   1.584  1.00  0.00    -0.303 NA
HETATM    8  H5  UNL     1      27.502  10.595   2.529  1.00  0.00     0.124 HD
HETATM    9  H6  UNL     1      26.161  10.763   1.520  1.00  0.00     0.124 HD
HETATM   10  O1  UNL     1      28.088   5.752  -1.122  1.00  0.00    -0.361 OA
HETATM   11  H7  UNL     1      27.496   5.060  -0.787  1.00  0.00     0.217 HD
HETATM    1  C1  UNL     1      21.779  10.668  -8.832  1.00  0.00     0.026 A 
HETATM    2  C2  UNL     1      20.687  10.634  -9.702  1.00  0.00     0.038 A 
HETATM    3  C3  UNL     1      20.640   9.680 -10.709  1.00  0.00     0.065 A 
HETATM    4  C4  UNL     1      21.662   8.747 -10.849  1.00  0.00     0.038 A 
HETATM    5  C5  UNL     1      22.752   8.789  -9.975  1.00  0.00     0.026 A 
HETATM    6  C6  UNL     1      22.846   9.779  -8.992  1.00  0.00     0.005 A 
HETATM    7  N1  UNL     1      23.879   9.739  -8.048  1.00  0.00    -0.303 NA
HETATM    8  H5  UNL     1      24.800   9.898  -8.445  1.00  0.00     0.124 HD
HETATM    9  H6  UNL     1      23.853   8.924  -7.445  1.00  0.00     0.124 HD
HETATM   10  O1  UNL     1      19.557   9.678 -11.536  1.00  0.00    -0.361 OA
HETATM   11  H7  UNL     1      18.758   9.554 -10.999  1.00  0.00     0.217 HD
HETATM    1  C1  UNL     1      20.653  10.710  -9.737  1.00  0.00     0.026 A 
HETATM    2  C2  UNL     1      21.711  10.740  -8.826  1.00  0.00     0.038 A 
HETATM    3  C3  UNL     1      22.738   9.813  -8.934  1.00  0.00     0.065 A 
HETATM    4  C4  UNL     1      22.730   8.863  -9.950  1.00  0.00     0.038 A 
HETATM    5  C5  UNL     1      21.667   8.838 -10.856  1.00  0.00     0.026 A 
HETATM    6  C6  UNL     1      20.594   9.727 -10.729  1.00  0.00     0.005 A 
HETATM    7  N1  UNL     1      19.596   9.772 -11.709  1.00  0.00    -0.303 NA
HETATM    8  H5  UNL     1      19.842   9.282 -12.564  1.00  0.00     0.124 HD
HETATM    9  H6  UNL     1      19.238  10.704 -11.887  1.00  0.00     0.124 HD
HETATM   10  O1  UNL     1      23.754   9.877  -8.028  1.00  0.00    -0.361 OA
HETATM   11  H7  UNL     1      24.053   8.974  -7.833  1.00  0.00     0.217 HD
HETATM    1  C1  UNL     1      21.704   8.682 -10.819  1.00  0.00     0.026 A 
HETATM    2  C2  UNL     1      22.752   8.780  -9.901  1.00  0.00     0.038 A 
HETATM    3  C3  UNL     1      22.748   9.797  -8.957  1.00  0.00     0.065 A 
HETATM    4  C4  UNL     1      21.702  10.711  -8.906  1.00  0.00     0.038 A 
HETATM    5  C5  UNL     1      20.656  10.608  -9.828  1.00  0.00     0.026 A 
HETATM    6  C6  UNL     1      20.672   9.626 -10.824  1.00  0.00     0.005 A 
HETATM    7  N1  UNL     1      19.566   9.457 -11.665  1.00  0.00    -0.303 NA
HETATM    8  H5  UNL     1      18.706   9.845 -11.290  1.00  0.00     0.124 HD
HETATM    9  H6  UNL     1      19.447   8.507 -12.001  1.00  0.00     0.124 HD
HETATM   10  O1  UNL     1      23.788   9.856  -8.078  1.00  0.00    -0.361 OA
HETATM   11  H7  UNL     1      23.524  10.407  -7.324  1.00  0.00     0.217 HD
HETATM    1  C1  UNL     1      22.440   9.267 -10.614  1.00  0.00     0.026 A 
HETATM    2  C2  UNL     1      21.367   9.936 -11.208  1.00  0.00     0.038 A 
HETATM    3  C3  UNL     1      20.624  10.840 -10.463  1.00  0.00     0.065 A 
HETATM    4  C4  UNL     1      20.948  11.099  -9.135  1.00  0.00     0.038 A 
HETATM    5  C5  UNL     1      22.022  10.425  -8.548  1.00  0.00     0.026 A 
HETATM    6  C6  UNL     1      22.746   9.466  -9.265  1.00  0.00     0.005 A 
HETATM    7  N1  UNL     1      23.891   8.886  -8.707  1.00  0.00    -0.303 NA
HETATM    8  H5  UNL     1      23.961   7.886  -8.870  1.00  0.00     0.124 HD
HETATM    9  H6  UNL     1      24.043   9.130  -7.735  1.00  0.00     0.124 HD
HETATM   10  O1  UNL     1      19.587  11.475 -11.079  1.00  0.00    -0.361 OA
HETATM   11  H7  UNL     1      19.856  12.385 -11.279  1.00  0.00     0.217 HD
HETATM    1  C1  UNL     1      24.081   7.626  -9.371  1.00  0.00     0.026 A 
HETATM    2  C2  UNL     1      25.407   7.921  -9.046  1.00  0.00     0.038 A 
HETATM    3  C3  UNL     1      26.279   6.893  -8.716  1.00  0.00     0.065 A 
HETATM    4  C4  UNL     1      25.849   5.571  -8.721  1.00  0.00     0.038 A 
HETATM    5  C5  UNL     1      24.520   5.283  -9.046  1.00  0.00     0.026 A 
HETATM    6  C6  UNL     1      23.611   6.310  -9.325  1.00  0.00     0.005 A 
HETATM    7  N1  UNL     1      22.318   6.006  -9.764  1.00  0.00    -0.303 NA
HETATM    8  H5  UNL     1      21.962   5.125  -9.406  1.00  0.00     0.124 HD
HETATM    9  H6  UNL     1      22.194   6.094 -10.767  1.00  0.00     0.124 HD
HETATM   10  O1  UNL     1      27.565   7.221  -8.408  1.00  0.00    -0.361 OA
HETATM   11  H7  UNL     1      28.102   7.159  -9.213  1.00  0.00     0.217 HD
HETATM    1  C1  UNL     1      28.590   9.567  -1.961  1.00  0.00     0.026 A 
HETATM    2  C2  UNL     1      28.603   8.245  -1.512  1.00  0.00     0.038 A 
HETATM    3  C3  UNL     1      28.242   7.221  -2.376  1.00  0.00     0.065 A 
HETATM    4  C4  UNL     1      27.884   7.497  -3.691  1.00  0.00     0.038 A 
HETATM    5  C5  UNL     1      27.872   8.823  -4.133  1.00  0.00     0.026 A 
HETATM    6  C6  UNL     1      28.175   9.874  -3.261  1.00  0.00     0.005 A 
HETATM    7  N1  UNL     1      28.276  11.183  -3.743  1.00  0.00    -0.303 NA
HETATM    8  H5  UNL     1      27.669  11.375  -4.534  1.00  0.00     0.124 HD
HETATM    9  H6  UNL     1      29.230  11.488  -3.906  1.00  0.00     0.124 HD
HETATM   10  O1  UNL     1      28.270   5.944  -1.900  1.00  0.00    -0.361 OA
HETATM   11  H7  UNL     1      28.482   5.971  -0.953  1.00  0.00     0.217 HD
HETATM    1  C1  UNL     1      23.660   7.817  -9.254  1.00  0.00     0.026 A 
HETATM    2  C2  UNL     1      24.511   6.739  -9.506  1.00  0.00     0.038 A 
HETATM    3  C3  UNL     1      25.855   6.832  -9.174  1.00  0.00     0.065 A 
HETATM    4  C4  UNL     1      26.359   7.983  -8.579  1.00  0.00     0.038 A 
HETATM    5  C5  UNL     1      25.502   9.059  -8.331  1.00  0.00     0.026 A 
HETATM    6  C6  UNL     1      24.157   9.006  -8.712  1.00  0.00     0.005 A 
HETATM    7  N1  UNL     1      23.282  10.038  -8.353  1.00  0.00    -0.303 NA
HETATM    8  H5  UNL     1      22.897   9.940  -7.419  1.00  0.00     0.124 HD
HETATM    9  H6  UNL     1      22.568  10.230  -9.047  1.00  0.00     0.124 HD
HETATM   10  O1  UNL     1      26.652   5.757  -9.433  1.00  0.00    -0.361 OA
HETATM   11  H7  UNL     1      26.654   5.596 -10.390  1.00  0.00     0.217 HD
HETATM    1  C1  UNL     1      25.074   6.731  -9.279  1.00  0.00     0.026 A 
HETATM    2  C2  UNL     1      23.779   7.189  -9.529  1.00  0.00     0.038 A 
HETATM    3  C3  UNL     1      23.457   8.515  -9.273  1.00  0.00     0.065 A 
HETATM    4  C4  UNL     1      24.418   9.395  -8.787  1.00  0.00     0.038 A 
HETATM    5  C5  UNL     1      25.712   8.928  -8.538  1.00  0.00     0.026 A 
HETATM    6  C6  UNL     1      26.039   7.583  -8.734  1.00  0.00     0.005 A 
HETATM    7  N1  UNL     1      27.364   7.152  -8.596  1.00  0.00    -0.303 NA
HETATM    8  H5  UNL     1      27.623   6.928  -7.640  1.00  0.00     0.124 HD
HETATM    9  H6  UNL     1      28.041   7.758  -9.047  1.00  0.00     0.124 HD
HETATM   10  O1  UNL     1      22.184   8.924  -9.533  1.00  0.00    -0.361 OA
HETATM   11  H7  UNL     1      21.877   8.488 -10.344  1.00  0.00     0.217 HD
HETATM    1  C1  UNL     1      30.668   6.068  -2.853  1.00  0.00     0.026 A 
HETATM    2  C2  UNL     1      29.772   5.724  -1.839  1.00  0.00     0.038 A 
HETATM    3  C3  UNL     1      28.541   6.361  -1.763  1.00  0.00     0.065 A 
HETATM    4  C4  UNL     1      28.186   7.327  -2.697  1.00  0.00     0.038 A 
HETATM    5  C5  UNL     1      29.089   7.667  -3.709  1.00  0.00     0.026 A 
HETATM    6  C6  UNL     1      30.356   7.079  -3.767  1.00  0.00     0.005 A 
HETATM    7  N1  UNL     1      31.204   7.338  -4.850  1.00  0.00    -0.303 NA
HETATM    8  H5  UNL     1      30.712   7.523  -5.718  1.00  0.00     0.124 HD
HETATM    9  H6  UNL     1      31.944   6.653  -4.964  1.00  0.00     0.124 HD
HETATM   10  O1  UNL     1      27.694   5.995  -0.761  1.00  0.00    -0.361 OA
HETATM   11  H7  UNL     1      26.840   6.435  -0.901  1.00  0.00     0.217 HD
HETATM    1  C1  UNL     1      23.880   7.795  -9.265  1.00  0.00     0.026 A 
HETATM    2  C2  UNL     1      23.091   7.400 -10.348  1.00  0.00     0.038 A 
HETATM    3  C3  UNL     1      22.097   8.246 -10.819  1.00  0.00     0.065 A 
HETATM    4  C4  UNL     1      21.890   9.490 -10.234  1.00  0.00     0.038 A 
HETATM    5  C5  UNL     1      22.682   9.878  -9.150  1.00  0.00     0.026 A 
HETATM    6  C6  UNL     1      23.649   9.015  -8.623  1.00  0.00     0.005 A 
HETATM    7  N1  UNL     1      24.516   9.458  -7.618  1.00  0.00    -0.303 NA
HETATM    8  H5  UNL     1      25.397   8.955  -7.588  1.00  0.00     0.124 HD
HETATM    9  H6  UNL     1      24.081   9.530  -6.704  1.00  0.00     0.124 HD
HETATM   10  O1  UNL     1      21.350   7.826 -11.879  1.00  0.00    -0.361 OA
HETATM   11  H7  UNL     1      21.233   6.864 -11.813  1.00  0.00     0.217 HD
HETATM    1  C1  UNL     1      29.153   6.390   1.012  1.00  0.00     0.026 A 
HETATM    2  C2  UNL     1      30.187   5.706   0.371  1.00  0.00     0.038 A 
HETATM    3  C3  UNL     1      30.100   5.446  -0.989  1.00  0.00     0.065 A 
HETATM    4  C4  UNL     1      28.999   5.873  -1.723  1.00  0.00     0.038 A 
HETATM    5  C5  UNL     1      27.966   6.556  -1.073  1.00  0.00     0.026 A 
HETATM    6  C6  UNL     1      28.009   6.776   0.307  1.00  0.00     0.005 A 
HETATM    7  N1  UNL     1      27.030   7.563   0.926  1.00  0.00    -0.303 NA
HETATM    8  H5  UNL     1      26.698   8.329   0.349  1.00  0.00     0.124 HD
HETATM    9  H6  UNL     1      27.277   7.863   1.863  1.00  0.00     0.124 HD
HETATM   10  O1  UNL     1      31.131   4.778  -1.579  1.00  0.00    -0.361 OA
HETATM   11  H7  UNL     1      31.063   4.890  -2.541  1.00  0.00     0.217 HD
HETATM    1  C1  UNL     1      22.012   9.215 -10.136  1.00  0.00     0.026 A 
HETATM    2  C2  UNL     1      22.596   8.020 -10.563  1.00  0.00     0.038 A 
HETATM    3  C3  UNL     1      23.746   7.555  -9.940  1.00  0.00     0.065 A 
HETATM    4  C4  UNL     1      24.313   8.259  -8.883  1.00  0.00     0.038 A 
HETATM    5  C5  UNL     1      23.724   9.455  -8.462  1.00  0.00     0.026 A 
HETATM    6  C6  UNL     1      22.599   9.970  -9.115  1.00  0.00     0.005 A 
HETATM    7  N1  UNL     1      21.948  11.102  -8.612  1.00  0.00    -0.303 NA
HETATM    8  H5  UNL     1      21.167  10.885  -8.001  1.00  0.00     0.124 HD
HETATM    9  H6  UNL     1      21.706  11.785  -9.322  1.00  0.00     0.124 HD
HETATM   10  O1  UNL     1      24.283   6.384 -10.384  1.00  0.00    -0.361 OA
HETATM   11  H7  UNL     1      23.797   6.100 -11.174  1.00  0.00     0.217 HD
HETATM    1  C1  UNL     1      25.761  16.471  -1.328  1.00  0.00     0.026 A 
HETATM    2  C2  UNL     1      25.100  15.598  -0.461  1.00  0.00     0.038 A 
HETATM    3  C3  UNL     1      24.014  16.052   0.274  1.00  0.00     0.065 A 
HETATM    4  C4  UNL     1      23.568  17.362   0.145  1.00  0.00     0.038 A 
HETATM    5  C5  UNL     1      24.237  18.231  -0.724  1.00  0.00     0.026 A 
HETATM    6  C6  UNL     1      25.368  17.809  -1.429  1.00  0.00     0.005 A 
HETATM    7  N1  UNL     1      25.957  18.647  -2.383  1.00  0.00    -0.303 NA
HETATM    8  H5  UNL     1      25.314  18.959  -3.104  1.00  0.00     0.124 HD
HETATM    9  H6  UNL     1      26.823  18.286  -2.768  1.00  0.00     0.124 HD
HETATM   10  O1  UNL     1      23.393  15.169   1.107  1.00  0.00    -0.361 OA
HETATM   11  H7  UNL     1      22.534  14.932   0.722  1.00  0.00     0.217 HD
HETATM    1  C1  UNL     1      22.597   8.173 -10.587  1.00  0.00     0.026 A 
HETATM    2  C2  UNL     1      22.075   9.351 -10.048  1.00  0.00     0.038 A 
HETATM    3  C3  UNL     1      22.693   9.940  -8.954  1.00  0.00     0.065 A 
HETATM    4  C4  UNL     1      23.838   9.377  -8.400  1.00  0.00     0.038 A 
HETATM    5  C5  UNL     1      24.354   8.197  -8.944  1.00  0.00     0.026 A 
HETATM    6  C6  UNL     1      23.712   7.557 -10.009  1.00  0.00     0.005 A 
HETATM    7  N1  UNL     1      24.301   6.446 -10.622  1.00  0.00    -0.303 NA
HETATM    8  H5  UNL     1      24.007   6.307 -11.584  1.00  0.00     0.124 HD
HETATM    9  H6  UNL     1      24.241   5.595 -10.073  1.00  0.00     0.124 HD
HETATM   10  O1  UNL     1      22.155  11.089  -8.459  1.00  0.00    -0.361 OA
HETATM   11  H7  UNL     1      21.680  10.881  -7.639  1.00  0.00     0.217 HD
HETATM    1  C1  UNL     1      28.260   7.385  -2.503  1.00  0.00     0.026 A 
HETATM    2  C2  UNL     1      29.172   7.590  -3.541  1.00  0.00     0.038 A 
HETATM    3  C3  UNL     1      30.345   6.851  -3.583  1.00  0.00     0.065 A 
HETATM    4  C4  UNL     1      30.615   5.896  -2.609  1.00  0.00     0.038 A 
HETATM    5  C5  UNL     1      29.699   5.697  -1.571  1.00  0.00     0.026 A 
HETATM    6  C6  UNL     1      28.539   6.473  -1.480  1.00  0.00     0.005 A 
HETATM    7  N1  UNL     1      27.574   6.185  -0.509  1.00  0.00    -0.303 NA
HETATM    8  H5  UNL     1      27.958   5.793   0.345  1.00  0.00     0.124 HD
HETATM    9  H6  UNL     1      26.786   5.651  -0.859  1.00  0.00     0.124 HD
HETATM   10  O1  UNL     1      31.207   7.079  -4.613  1.00  0.00    -0.361 OA
HETATM   11  H7  UNL     1      32.057   7.373  -4.247  1.00  0.00     0.217 HD
HETATM    1  C1  UNL     1      28.487   8.650  -0.746  1.00  0.00     0.026 A 
HETATM    2  C2  UNL     1      28.562   9.444  -1.892  1.00  0.00     0.038 A 
HETATM    3  C3  UNL     1      28.454   8.856  -3.145  1.00  0.00     0.065 A 
HETATM    4  C4  UNL     1      28.255   7.485  -3.268  1.00  0.00     0.038 A 
HETATM    5  C5  UNL     1      28.182   6.697  -2.116  1.00  0.00     0.026 A 
HETATM    6  C6  UNL     1      28.348   7.263  -0.848  1.00  0.00     0.005 A 
HETATM    7  N1  UNL     1      28.155   6.487   0.301  1.00  0.00    -0.303 NA
HETATM    8  H5  UNL     1      28.906   6.568   0.979  1.00  0.00     0.124 HD
HETATM    9  H6  UNL     1      27.912   5.521   0.108  1.00  0.00     0.124 HD
HETATM   10  O1  UNL     1      28.530   9.665  -4.239  1.00  0.00    -0.361 OA
HETATM   11  H7  UNL     1      28.599  10.586  -3.939  1.00  0.00     0.217 HD
