MODEL 1
REMARK VINA RESULT:      -4.5      0.000      0.000
REMARK  2 active torsions:
REMARK  status: ('A' for Active; 'I' for Inactive)
REMARK    1  A    between atoms: C3_3  and  O1_8 
REMARK    2  A    between atoms: C6_6  and  N1_7 
ROOT
HETATM    1  C1  UNL     1      -0.256   4.765 -10.760  1.00  0.00     0.026 A 
HETATM    2  C2  UNL     1       0.548   5.833 -11.166  1.00  0.00     0.038 A 
HETATM    3  C3  UNL     1       1.865   5.601 -11.536  1.00  0.00     0.065 A 
HETATM    4  C4  UNL     1       2.388   4.313 -11.522  1.00  0.00     0.038 A 
HETATM    5  C5  UNL     1       1.578   3.249 -11.113  1.00  0.00     0.026 A 
HETATM    6  C6  UNL     1       0.266   3.471 -10.681  1.00  0.00     0.005 A 
ENDROOT
BRANCH   6   7
HETATM    7  N1  UNL     1      -0.571   2.389 -10.388  1.00  0.00    -0.303 NA
HETATM    8  H5  UNL     1      -0.849   2.340  -9.413  1.00  0.00     0.124 HD
HETATM    9  H6  UNL     1      -0.231   1.499 -10.738  1.00  0.00     0.124 HD
ENDBRANCH   6   7
BRANCH   3  10
HETATM   10  O1  UNL     1       2.615   6.669 -11.929  1.00  0.00    -0.361 OA
HETATM   11  H7  UNL     1       3.552   6.458 -11.787  1.00  0.00     0.217 HD
ENDBRANCH   3  10
TORSDOF 2
ENDMDL
MODEL 2
REMARK VINA RESULT:      -4.5      2.781      3.266
REMARK  2 active torsions:
REMARK  status: ('A' for Active; 'I' for Inactive)
REMARK    1  A    between atoms: C3_3  and  O1_8 
REMARK    2  A    between atoms: C6_6  and  N1_7 
ROOT
HETATM    1  C1  UNL     1       0.481   5.684 -11.085  1.00  0.00     0.026 A 
HETATM    2  C2  UNL     1      -0.323   4.605 -10.712  1.00  0.00     0.038 A 
HETATM    3  C3  UNL     1       0.195   3.318 -10.740  1.00  0.00     0.065 A 
HETATM    4  C4  UNL     1       1.514   3.094 -11.121  1.00  0.00     0.038 A 
HETATM    5  C5  UNL     1       2.312   4.179 -11.495  1.00  0.00     0.026 A 
HETATM    6  C6  UNL     1       1.790   5.476 -11.530  1.00  0.00     0.005 A 
ENDROOT
BRANCH   6   7
HETATM    7  N1  UNL     1       2.628   6.567 -11.789  1.00  0.00    -0.303 NA
HETATM    8  H5  UNL     1       2.879   7.095 -10.960  1.00  0.00     0.124 HD
HETATM    9  H6  UNL     1       2.304   7.163 -12.544  1.00  0.00     0.124 HD
ENDBRANCH   6   7
BRANCH   3  10
HETATM   10  O1  UNL     1      -0.620   2.292 -10.366  1.00  0.00    -0.361 OA
HETATM   11  H7  UNL     1      -0.433   1.526 -10.931  1.00  0.00     0.217 HD
ENDBRANCH   3  10
TORSDOF 2
ENDMDL
MODEL 3
REMARK VINA RESULT:      -4.4      6.821      7.392
REMARK  2 active torsions:
REMARK  status: ('A' for Active; 'I' for Inactive)
REMARK    1  A    between atoms: C3_3  and  O1_8 
REMARK    2  A    between atoms: C6_6  and  N1_7 
ROOT
HETATM    1  C1  UNL     1       5.825   4.528  -8.135  1.00  0.00     0.026 A 
HETATM    2  C2  UNL     1       5.064   4.813  -6.998  1.00  0.00     0.038 A 
HETATM    3  C3  UNL     1       5.684   5.320  -5.865  1.00  0.00     0.065 A 
HETATM    4  C4  UNL     1       7.054   5.562  -5.856  1.00  0.00     0.038 A 
HETATM    5  C5  UNL     1       7.809   5.272  -6.997  1.00  0.00     0.026 A 
HETATM    6  C6  UNL     1       7.211   4.706  -8.127  1.00  0.00     0.005 A 
ENDROOT
BRANCH   6   7
HETATM    7  N1  UNL     1       7.951   4.532  -9.302  1.00  0.00    -0.303 NA
HETATM    8  H5  UNL     1       7.587   3.804  -9.909  1.00  0.00     0.124 HD
HETATM    9  H6  UNL     1       8.950   4.443  -9.149  1.00  0.00     0.124 HD
ENDBRANCH   6   7
BRANCH   3  10
HETATM   10  O1  UNL     1       4.908   5.589  -4.778  1.00  0.00    -0.361 OA
HETATM   11  H7  UNL     1       4.947   4.830  -4.175  1.00  0.00     0.217 HD
ENDBRANCH   3  10
TORSDOF 2
ENDMDL
MODEL 4
REMARK VINA RESULT:      -4.4      6.753      7.395
REMARK  2 active torsions:
REMARK  status: ('A' for Active; 'I' for Inactive)
REMARK    1  A    between atoms: C3_3  and  O1_8 
REMARK    2  A    between atoms: C6_6  and  N1_7 
ROOT
HETATM    1  C1  UNL     1       7.743   5.488  -7.110  1.00  0.00     0.026 A 
HETATM    2  C2  UNL     1       6.969   5.724  -5.972  1.00  0.00     0.038 A 
HETATM    3  C3  UNL     1       5.625   5.378  -5.969  1.00  0.00     0.065 A 
HETATM    4  C4  UNL     1       5.045   4.784  -7.085  1.00  0.00     0.038 A 
HETATM    5  C5  UNL     1       5.826   4.552  -8.221  1.00  0.00     0.026 A 
HETATM    6  C6  UNL     1       7.166   4.947  -8.264  1.00  0.00     0.005 A 
ENDROOT
BRANCH   6   7
HETATM    7  N1  UNL     1       7.968   4.604  -9.358  1.00  0.00    -0.303 NA
HETATM    8  H5  UNL     1       8.941   4.876  -9.253  1.00  0.00     0.124 HD
HETATM    9  H6  UNL     1       7.583   4.886 -10.253  1.00  0.00     0.124 HD
ENDBRANCH   6   7
BRANCH   3  10
HETATM   10  O1  UNL     1       4.905   5.622  -4.838  1.00  0.00    -0.361 OA
HETATM   11  H7  UNL     1       5.410   5.301  -4.074  1.00  0.00     0.217 HD
ENDBRANCH   3  10
TORSDOF 2
ENDMDL
MODEL 5
REMARK VINA RESULT:      -4.3      6.422      7.350
REMARK  2 active torsions:
REMARK  status: ('A' for Active; 'I' for Inactive)
REMARK    1  A    between atoms: C3_3  and  O1_8 
REMARK    2  A    between atoms: C6_6  and  N1_7 
ROOT
HETATM    1  C1  UNL     1       8.376   5.745  -8.963  1.00  0.00     0.026 A 
HETATM    2  C2  UNL     1       7.917   4.643  -8.237  1.00  0.00     0.038 A 
HETATM    3  C3  UNL     1       6.569   4.315  -8.265  1.00  0.00     0.065 A 
HETATM    4  C4  UNL     1       5.673   5.062  -9.022  1.00  0.00     0.038 A 
HETATM    5  C5  UNL     1       6.140   6.164  -9.744  1.00  0.00     0.026 A 
HETATM    6  C6  UNL     1       7.484   6.546  -9.682  1.00  0.00     0.005 A 
ENDROOT
BRANCH   6   7
HETATM    7  N1  UNL     1       7.962   7.576 -10.501  1.00  0.00    -0.303 NA
HETATM    8  H5  UNL     1       8.654   7.270 -11.178  1.00  0.00     0.124 HD
HETATM    9  H6  UNL     1       8.259   8.401  -9.991  1.00  0.00     0.124 HD
ENDBRANCH   6   7
BRANCH   3  10
HETATM   10  O1  UNL     1       6.161   3.232  -7.546  1.00  0.00    -0.361 OA
HETATM   11  H7  UNL     1       6.827   2.531  -7.636  1.00  0.00     0.217 HD
ENDBRANCH   3  10
TORSDOF 2
ENDMDL
MODEL 6
REMARK VINA RESULT:      -4.3      6.378      7.153
REMARK  2 active torsions:
REMARK  status: ('A' for Active; 'I' for Inactive)
REMARK    1  A    between atoms: C3_3  and  O1_8 
REMARK    2  A    between atoms: C6_6  and  N1_7 
ROOT
HETATM    1  C1  UNL     1       6.070   6.139  -9.722  1.00  0.00     0.026 A 
HETATM    2  C2  UNL     1       5.660   5.046  -8.955  1.00  0.00     0.038 A 
HETATM    3  C3  UNL     1       6.603   4.295  -8.269  1.00  0.00     0.065 A 
HETATM    4  C4  UNL     1       7.952   4.630  -8.325  1.00  0.00     0.038 A 
HETATM    5  C5  UNL     1       8.355   5.725  -9.095  1.00  0.00     0.026 A 
HETATM    6  C6  UNL     1       7.426   6.458  -9.840  1.00  0.00     0.005 A 
ENDROOT
BRANCH   6   7
HETATM    7  N1  UNL     1       7.822   7.621 -10.510  1.00  0.00    -0.303 NA
HETATM    8  H5  UNL     1       8.547   8.143 -10.028  1.00  0.00     0.124 HD
HETATM    9  H6  UNL     1       7.049   8.211 -10.799  1.00  0.00     0.124 HD
ENDBRANCH   6   7
BRANCH   3  10
HETATM   10  O1  UNL     1       6.163   3.237  -7.531  1.00  0.00    -0.361 OA
HETATM   11  H7  UNL     1       6.058   2.472  -8.118  1.00  0.00     0.217 HD
ENDBRANCH   3  10
TORSDOF 2
ENDMDL
MODEL 7
REMARK VINA RESULT:      -4.3      5.766      6.400
REMARK  2 active torsions:
REMARK  status: ('A' for Active; 'I' for Inactive)
REMARK    1  A    between atoms: C3_3  and  O1_8 
REMARK    2  A    between atoms: C6_6  and  N1_7 
ROOT
HETATM    1  C1  UNL     1       5.646   5.165  -9.017  1.00  0.00     0.026 A 
HETATM    2  C2  UNL     1       6.076   6.246  -9.789  1.00  0.00     0.038 A 
HETATM    3  C3  UNL     1       7.429   6.547  -9.858  1.00  0.00     0.065 A 
HETATM    4  C4  UNL     1       8.362   5.771  -9.179  1.00  0.00     0.038 A 
HETATM    5  C5  UNL     1       7.923   4.691  -8.407  1.00  0.00     0.026 A 
HETATM    6  C6  UNL     1       6.560   4.409  -8.278  1.00  0.00     0.005 A 
ENDROOT
BRANCH   6   7
HETATM    7  N1  UNL     1       6.140   3.258  -7.601  1.00  0.00    -0.303 NA
HETATM    8  H5  UNL     1       6.857   2.543  -7.528  1.00  0.00     0.124 HD
HETATM    9  H6  UNL     1       5.257   2.886  -7.934  1.00  0.00     0.124 HD
ENDBRANCH   6   7
BRANCH   3  10
HETATM   10  O1  UNL     1       7.809   7.608 -10.624  1.00  0.00    -0.361 OA
HETATM   11  H7  UNL     1       7.058   7.874 -11.179  1.00  0.00     0.217 HD
ENDBRANCH   3  10
TORSDOF 2
ENDMDL
MODEL 8
REMARK VINA RESULT:      -4.3      2.130      2.734
REMARK  2 active torsions:
REMARK  status: ('A' for Active; 'I' for Inactive)
REMARK    1  A    between atoms: C3_3  and  O1_8 
REMARK    2  A    between atoms: C6_6  and  N1_7 
ROOT
HETATM    1  C1  UNL     1       0.659   5.284 -11.376  1.00  0.00     0.026 A 
HETATM    2  C2  UNL     1       1.614   4.362 -11.814  1.00  0.00     0.038 A 
HETATM    3  C3  UNL     1       1.495   3.027 -11.456  1.00  0.00     0.065 A 
HETATM    4  C4  UNL     1       0.426   2.594 -10.680  1.00  0.00     0.038 A 
HETATM    5  C5  UNL     1      -0.525   3.522 -10.245  1.00  0.00     0.026 A 
HETATM    6  C6  UNL     1      -0.391   4.882 -10.545  1.00  0.00     0.005 A 
ENDROOT
BRANCH   6   7
HETATM    7  N1  UNL     1      -1.407   5.782 -10.208  1.00  0.00    -0.303 NA
HETATM    8  H5  UNL     1      -1.748   6.327 -10.994  1.00  0.00     0.124 HD
HETATM    9  H6  UNL     1      -1.193   6.359  -9.401  1.00  0.00     0.124 HD
ENDBRANCH   6   7
BRANCH   3  10
HETATM   10  O1  UNL     1       2.445   2.159 -11.905  1.00  0.00    -0.361 OA
HETATM   11  H7  UNL     1       2.584   2.315 -12.853  1.00  0.00     0.217 HD
ENDBRANCH   3  10
TORSDOF 2
ENDMDL
MODEL 9
REMARK VINA RESULT:      -4.3      5.789      6.600
REMARK  2 active torsions:
REMARK  status: ('A' for Active; 'I' for Inactive)
REMARK    1  A    between atoms: C3_3  and  O1_8 
REMARK    2  A    between atoms: C6_6  and  N1_7 
ROOT
HETATM    1  C1  UNL     1       7.938   4.732  -8.379  1.00  0.00     0.026 A 
HETATM    2  C2  UNL     1       8.353   5.822  -9.148  1.00  0.00     0.038 A 
HETATM    3  C3  UNL     1       7.415   6.564  -9.851  1.00  0.00     0.065 A 
HETATM    4  C4  UNL     1       6.063   6.243  -9.785  1.00  0.00     0.038 A 
HETATM    5  C5  UNL     1       5.656   5.150  -9.015  1.00  0.00     0.026 A 
HETATM    6  C6  UNL     1       6.592   4.354  -8.346  1.00  0.00     0.005 A 
ENDROOT
BRANCH   6   7
HETATM    7  N1  UNL     1       6.166   3.337  -7.484  1.00  0.00    -0.303 NA
HETATM    8  H5  UNL     1       6.499   2.415  -7.746  1.00  0.00     0.124 HD
HETATM    9  H6  UNL     1       5.169   3.349  -7.297  1.00  0.00     0.124 HD
ENDBRANCH   6   7
BRANCH   3  10
HETATM   10  O1  UNL     1       7.859   7.622 -10.587  1.00  0.00    -0.361 OA
HETATM   11  H7  UNL     1       8.350   7.282 -11.352  1.00  0.00     0.217 HD
ENDBRANCH   3  10
TORSDOF 2
ENDMDL
MODEL 10
REMARK VINA RESULT:      -4.2      6.207      6.916
REMARK  2 active torsions:
REMARK  status: ('A' for Active; 'I' for Inactive)
REMARK    1  A    between atoms: C3_3  and  O1_8 
REMARK    2  A    between atoms: C6_6  and  N1_7 
ROOT
HETATM    1  C1  UNL     1       7.764   5.742  -7.575  1.00  0.00     0.026 A 
HETATM    2  C2  UNL     1       7.480   5.775  -8.942  1.00  0.00     0.038 A 
HETATM    3  C3  UNL     1       6.165   5.895  -9.369  1.00  0.00     0.065 A 
HETATM    4  C4  UNL     1       5.129   6.000  -8.448  1.00  0.00     0.038 A 
HETATM    5  C5  UNL     1       5.421   5.965  -7.081  1.00  0.00     0.026 A 
HETATM    6  C6  UNL     1       6.733   5.786  -6.632  1.00  0.00     0.005 A 
ENDROOT
BRANCH   6   7
HETATM    7  N1  UNL     1       7.029   5.872  -5.267  1.00  0.00    -0.303 NA
HETATM    8  H5  UNL     1       6.232   6.126  -4.692  1.00  0.00     0.124 HD
HETATM    9  H6  UNL     1       7.849   6.432  -5.059  1.00  0.00     0.124 HD
ENDBRANCH   6   7
BRANCH   3  10
HETATM   10  O1  UNL     1       5.930   5.926 -10.711  1.00  0.00    -0.361 OA
HETATM   11  H7  UNL     1       5.276   6.619 -10.894  1.00  0.00     0.217 HD
ENDBRANCH   3  10
TORSDOF 2
ENDMDL
MODEL 11
REMARK VINA RESULT:      -4.2      6.522      7.079
REMARK  2 active torsions:
REMARK  status: ('A' for Active; 'I' for Inactive)
REMARK    1  A    between atoms: C3_3  and  O1_8 
REMARK    2  A    between atoms: C6_6  and  N1_7 
ROOT
HETATM    1  C1  UNL     1       6.683   5.544  -8.088  1.00  0.00     0.026 A 
HETATM    2  C2  UNL     1       7.346   5.832  -6.893  1.00  0.00     0.038 A 
HETATM    3  C3  UNL     1       6.693   5.647  -5.682  1.00  0.00     0.065 A 
HETATM    4  C4  UNL     1       5.390   5.163  -5.648  1.00  0.00     0.038 A 
HETATM    5  C5  UNL     1       4.733   4.878  -6.848  1.00  0.00     0.026 A 
HETATM    6  C6  UNL     1       5.353   5.113  -8.079  1.00  0.00     0.005 A 
ENDROOT
BRANCH   6   7
HETATM    7  N1  UNL     1       4.733   4.713  -9.268  1.00  0.00    -0.303 NA
HETATM    8  H5  UNL     1       5.072   5.204 -10.090  1.00  0.00     0.124 HD
HETATM    9  H6  UNL     1       3.720   4.698  -9.218  1.00  0.00     0.124 HD
ENDBRANCH   6   7
BRANCH   3  10
HETATM   10  O1  UNL     1       7.375   5.937  -4.539  1.00  0.00    -0.361 OA
HETATM   11  H7  UNL     1       7.389   6.901  -4.422  1.00  0.00     0.217 HD
ENDBRANCH   3  10
TORSDOF 2
ENDMDL
MODEL 12
REMARK VINA RESULT:      -4.2      6.244      6.785
REMARK  2 active torsions:
REMARK  status: ('A' for Active; 'I' for Inactive)
REMARK    1  A    between atoms: C3_3  and  O1_8 
REMARK    2  A    between atoms: C6_6  and  N1_7 
ROOT
HETATM    1  C1  UNL     1       5.446   5.913  -7.085  1.00  0.00     0.026 A 
HETATM    2  C2  UNL     1       5.183   5.920  -8.456  1.00  0.00     0.038 A 
HETATM    3  C3  UNL     1       6.237   5.903  -9.359  1.00  0.00     0.065 A 
HETATM    4  C4  UNL     1       7.553   5.864  -8.910  1.00  0.00     0.038 A 
HETATM    5  C5  UNL     1       7.808   5.858  -7.535  1.00  0.00     0.026 A 
HETATM    6  C6  UNL     1       6.761   5.934  -6.611  1.00  0.00     0.005 A 
ENDROOT
BRANCH   6   7
HETATM    7  N1  UNL     1       7.020   5.808  -5.241  1.00  0.00    -0.303 NA
HETATM    8  H5  UNL     1       6.194   5.910  -4.659  1.00  0.00     0.124 HD
HETATM    9  H6  UNL     1       7.795   6.376  -4.916  1.00  0.00     0.124 HD
ENDBRANCH   6   7
BRANCH   3  10
HETATM   10  O1  UNL     1       5.940   5.908 -10.688  1.00  0.00    -0.361 OA
HETATM   11  H7  UNL     1       5.314   5.188 -10.868  1.00  0.00     0.217 HD
ENDBRANCH   3  10
TORSDOF 2
ENDMDL
MODEL 13
REMARK VINA RESULT:      -4.1      6.011      6.816
REMARK  2 active torsions:
REMARK  status: ('A' for Active; 'I' for Inactive)
REMARK    1  A    between atoms: C3_3  and  O1_8 
REMARK    2  A    between atoms: C6_6  and  N1_7 
ROOT
HETATM    1  C1  UNL     1       7.121   6.314 -10.000  1.00  0.00     0.026 A 
HETATM    2  C2  UNL     1       8.222   5.821  -9.295  1.00  0.00     0.038 A 
HETATM    3  C3  UNL     1       8.037   4.846  -8.325  1.00  0.00     0.065 A 
HETATM    4  C4  UNL     1       6.768   4.343  -8.060  1.00  0.00     0.038 A 
HETATM    5  C5  UNL     1       5.671   4.842  -8.769  1.00  0.00     0.026 A 
HETATM    6  C6  UNL     1       5.829   5.866  -9.708  1.00  0.00     0.005 A 
ENDROOT
BRANCH   6   7
HETATM    7  N1  UNL     1       4.746   6.274 -10.495  1.00  0.00    -0.303 NA
HETATM    8  H5  UNL     1       3.907   6.476  -9.960  1.00  0.00     0.124 HD
HETATM    9  H6  UNL     1       4.563   5.667 -11.287  1.00  0.00     0.124 HD
ENDBRANCH   6   7
BRANCH   3  10
HETATM   10  O1  UNL     1       9.136   4.389  -7.662  1.00  0.00    -0.361 OA
HETATM   11  H7  UNL     1       8.967   3.478  -7.373  1.00  0.00     0.217 HD
ENDBRANCH   3  10
TORSDOF 2
ENDMDL
MODEL 14
REMARK VINA RESULT:      -4.0      6.325      6.853
REMARK  2 active torsions:
REMARK  status: ('A' for Active; 'I' for Inactive)
REMARK    1  A    between atoms: C3_3  and  O1_8 
REMARK    2  A    between atoms: C6_6  and  N1_7 
ROOT
HETATM    1  C1  UNL     1       4.942   6.018  -8.070  1.00  0.00     0.026 A 
HETATM    2  C2  UNL     1       5.375   5.984  -6.743  1.00  0.00     0.038 A 
HETATM    3  C3  UNL     1       6.733   5.923  -6.464  1.00  0.00     0.065 A 
HETATM    4  C4  UNL     1       7.667   5.912  -7.494  1.00  0.00     0.038 A 
HETATM    5  C5  UNL     1       7.226   5.944  -8.820  1.00  0.00     0.026 A 
HETATM    6  C6  UNL     1       5.860   5.946  -9.122  1.00  0.00     0.005 A 
ENDROOT
BRANCH   6   7
HETATM    7  N1  UNL     1       5.431   6.099 -10.445  1.00  0.00    -0.303 NA
HETATM    8  H5  UNL     1       4.624   6.706 -10.545  1.00  0.00     0.124 HD
HETATM    9  H6  UNL     1       5.320   5.223 -10.944  1.00  0.00     0.124 HD
ENDBRANCH   6   7
BRANCH   3  10
HETATM   10  O1  UNL     1       7.115   5.895  -5.156  1.00  0.00    -0.361 OA
HETATM   11  H7  UNL     1       6.575   5.237  -4.690  1.00  0.00     0.217 HD
ENDBRANCH   3  10
TORSDOF 2
ENDMDL
MODEL 15
REMARK VINA RESULT:      -4.0      6.078      6.853
REMARK  2 active torsions:
REMARK  status: ('A' for Active; 'I' for Inactive)
REMARK    1  A    between atoms: C3_3  and  O1_8 
REMARK    2  A    between atoms: C6_6  and  N1_7 
ROOT
HETATM    1  C1  UNL     1       6.783   4.372  -8.105  1.00  0.00     0.026 A 
HETATM    2  C2  UNL     1       5.699   4.877  -8.827  1.00  0.00     0.038 A 
HETATM    3  C3  UNL     1       5.903   5.888  -9.757  1.00  0.00     0.065 A 
HETATM    4  C4  UNL     1       7.179   6.391  -9.987  1.00  0.00     0.038 A 
HETATM    5  C5  UNL     1       8.258   5.881  -9.259  1.00  0.00     0.026 A 
HETATM    6  C6  UNL     1       8.064   4.905  -8.277  1.00  0.00     0.005 A 
ENDROOT
BRANCH   6   7
HETATM    7  N1  UNL     1       9.164   4.318  -7.640  1.00  0.00    -0.303 NA
HETATM    8  H5  UNL     1      10.006   4.310  -8.206  1.00  0.00     0.124 HD
HETATM    9  H6  UNL     1       8.965   3.411  -7.231  1.00  0.00     0.124 HD
ENDBRANCH   6   7
BRANCH   3  10
HETATM   10  O1  UNL     1       4.821   6.352 -10.443  1.00  0.00    -0.361 OA
HETATM   11  H7  UNL     1       4.160   5.643 -10.494  1.00  0.00     0.217 HD
ENDBRANCH   3  10
TORSDOF 2
ENDMDL
MODEL 16
REMARK VINA RESULT:      -3.8      9.347     10.215
REMARK  2 active torsions:
REMARK  status: ('A' for Active; 'I' for Inactive)
REMARK    1  A    between atoms: C3_3  and  O1_8 
REMARK    2  A    between atoms: C6_6  and  N1_7 
ROOT
HETATM    1  C1  UNL     1      10.971   9.010  -9.718  1.00  0.00     0.026 A 
HETATM    2  C2  UNL     1      10.877   8.166 -10.826  1.00  0.00     0.038 A 
HETATM    3  C3  UNL     1      10.028   7.069 -10.785  1.00  0.00     0.065 A 
HETATM    4  C4  UNL     1       9.258   6.811  -9.656  1.00  0.00     0.038 A 
HETATM    5  C5  UNL     1       9.359   7.660  -8.550  1.00  0.00     0.026 A 
HETATM    6  C6  UNL     1      10.251   8.736  -8.550  1.00  0.00     0.005 A 
ENDROOT
BRANCH   6   7
HETATM    7  N1  UNL     1      10.258   9.647  -7.488  1.00  0.00    -0.303 NA
HETATM    8  H5  UNL     1       9.396  10.176  -7.399  1.00  0.00     0.124 HD
HETATM    9  H6  UNL     1      11.080  10.240  -7.461  1.00  0.00     0.124 HD
ENDBRANCH   6   7
BRANCH   3  10
HETATM   10  O1  UNL     1       9.962   6.271 -11.888  1.00  0.00    -0.361 OA
HETATM   11  H7  UNL     1      10.728   5.675 -11.886  1.00  0.00     0.217 HD
ENDBRANCH   3  10
TORSDOF 2
ENDMDL
MODEL 17
REMARK VINA RESULT:      -3.7      9.450     10.288
REMARK  2 active torsions:
REMARK  status: ('A' for Active; 'I' for Inactive)
REMARK    1  A    between atoms: C3_3  and  O1_8 
REMARK    2  A    between atoms: C6_6  and  N1_7 
ROOT
HETATM    1  C1  UNL     1      11.081   8.487 -10.628  1.00  0.00     0.026 A 
HETATM    2  C2  UNL     1      11.119   9.243  -9.454  1.00  0.00     0.038 A 
HETATM    3  C3  UNL     1      10.247   8.946  -8.416  1.00  0.00     0.065 A 
HETATM    4  C4  UNL     1       9.346   7.893  -8.528  1.00  0.00     0.038 A 
HETATM    5  C5  UNL     1       9.312   7.142  -9.707  1.00  0.00     0.026 A 
HETATM    6  C6  UNL     1      10.143   7.463 -10.786  1.00  0.00     0.005 A 
ENDROOT
BRANCH   6   7
HETATM    7  N1  UNL     1      10.186   6.634 -11.913  1.00  0.00    -0.303 NA
HETATM    8  H5  UNL     1       9.798   5.709 -11.754  1.00  0.00     0.124 HD
HETATM    9  H6  UNL     1      11.094   6.600 -12.363  1.00  0.00     0.124 HD
ENDBRANCH   6   7
BRANCH   3  10
HETATM   10  O1  UNL     1      10.318   9.704  -7.286  1.00  0.00    -0.361 OA
HETATM   11  H7  UNL     1      10.066  10.615  -7.508  1.00  0.00     0.217 HD
ENDBRANCH   3  10
TORSDOF 2
ENDMDL
MODEL 18
REMARK VINA RESULT:      -3.6      3.135      4.050
REMARK  2 active torsions:
REMARK  status: ('A' for Active; 'I' for Inactive)
REMARK    1  A    between atoms: C3_3  and  O1_8 
REMARK    2  A    between atoms: C6_6  and  N1_7 
ROOT
HETATM    1  C1  UNL     1       3.605   5.581 -10.645  1.00  0.00     0.026 A 
HETATM    2  C2  UNL     1       2.650   4.620 -10.988  1.00  0.00     0.038 A 
HETATM    3  C3  UNL     1       1.355   5.016 -11.289  1.00  0.00     0.065 A 
HETATM    4  C4  UNL     1       1.002   6.361 -11.269  1.00  0.00     0.038 A 
HETATM    5  C5  UNL     1       1.963   7.316 -10.924  1.00  0.00     0.026 A 
HETATM    6  C6  UNL     1       3.257   6.932 -10.560  1.00  0.00     0.005 A 
ENDROOT
BRANCH   6   7
HETATM    7  N1  UNL     1       4.242   7.901 -10.332  1.00  0.00    -0.303 NA
HETATM    8  H5  UNL     1       4.615   7.889  -9.388  1.00  0.00     0.124 HD
HETATM    9  H6  UNL     1       3.977   8.833 -10.631  1.00  0.00     0.124 HD
ENDBRANCH   6   7
BRANCH   3  10
HETATM   10  O1  UNL     1       0.453   4.049 -11.621  1.00  0.00    -0.361 OA
HETATM   11  H7  UNL     1       0.688   3.232 -11.153  1.00  0.00     0.217 HD
ENDBRANCH   3  10
TORSDOF 2
ENDMDL
MODEL 19
REMARK VINA RESULT:      -3.4      8.903      9.661
REMARK  2 active torsions:
REMARK  status: ('A' for Active; 'I' for Inactive)
REMARK    1  A    between atoms: C3_3  and  O1_8 
REMARK    2  A    between atoms: C6_6  and  N1_7 
ROOT
HETATM    1  C1  UNL     1       9.057   7.310  -8.902  1.00  0.00     0.026 A 
HETATM    2  C2  UNL     1       9.879   8.391  -8.576  1.00  0.00     0.038 A 
HETATM    3  C3  UNL     1      10.808   8.852  -9.498  1.00  0.00     0.065 A 
HETATM    4  C4  UNL     1      10.917   8.258 -10.751  1.00  0.00     0.038 A 
HETATM    5  C5  UNL     1      10.092   7.175 -11.070  1.00  0.00     0.026 A 
HETATM    6  C6  UNL     1       9.191   6.659 -10.133  1.00  0.00     0.005 A 
ENDROOT
BRANCH   6   7
HETATM    7  N1  UNL     1       8.289   5.655 -10.501  1.00  0.00    -0.303 NA
HETATM    8  H5  UNL     1       8.339   4.826  -9.917  1.00  0.00     0.124 HD
HETATM    9  H6  UNL     1       8.305   5.431 -11.490  1.00  0.00     0.124 HD
ENDBRANCH   6   7
BRANCH   3  10
HETATM   10  O1  UNL     1      11.589   9.911  -9.143  1.00  0.00    -0.361 OA
HETATM   11  H7  UNL     1      12.301   9.591  -8.567  1.00  0.00     0.217 HD
ENDBRANCH   3  10
TORSDOF 2
ENDMDL
MODEL 20
REMARK VINA RESULT:      -3.2      9.403     10.240
REMARK  2 active torsions:
REMARK  status: ('A' for Active; 'I' for Inactive)
REMARK    1  A    between atoms: C3_3  and  O1_8 
REMARK    2  A    between atoms: C6_6  and  N1_7 
ROOT
HETATM    1  C1  UNL     1      10.846   8.924  -9.707  1.00  0.00     0.026 A 
HETATM    2  C2  UNL     1      10.043   8.440  -8.672  1.00  0.00     0.038 A 
HETATM    3  C3  UNL     1       9.321   7.269  -8.852  1.00  0.00     0.065 A 
HETATM    4  C4  UNL     1       9.402   6.564 -10.047  1.00  0.00     0.038 A 
HETATM    5  C5  UNL     1      10.206   7.055 -11.079  1.00  0.00     0.026 A 
HETATM    6  C6  UNL     1      10.896   8.264 -10.938  1.00  0.00     0.005 A 
ENDROOT
BRANCH   6   7
HETATM    7  N1  UNL     1      11.790   8.685 -11.929  1.00  0.00    -0.303 NA
HETATM    8  H5  UNL     1      12.071   7.946 -12.566  1.00  0.00     0.124 HD
HETATM    9  H6  UNL     1      12.582   9.208 -11.571  1.00  0.00     0.124 HD
ENDBRANCH   6   7
BRANCH   3  10
HETATM   10  O1  UNL     1       8.551   6.828  -7.817  1.00  0.00    -0.361 OA
HETATM   11  H7  UNL     1       7.848   7.478  -7.655  1.00  0.00     0.217 HD
ENDBRANCH   3  10
TORSDOF 2
ENDMDL
