MODEL 1
REMARK VINA RESULT:      -3.8      0.000      0.000
REMARK  2 active torsions:
REMARK  status: ('A' for Active; 'I' for Inactive)
REMARK    1  A    between atoms: C3_3  and  O1_8 
REMARK    2  A    between atoms: C6_6  and  N1_7 
ROOT
HETATM    1  C1  UNL     1       0.125   6.446 -16.035  1.00  0.00     0.026 A 
HETATM    2  C2  UNL     1       1.374   5.858 -15.822  1.00  0.00     0.038 A 
HETATM    3  C3  UNL     1       2.519   6.641 -15.867  1.00  0.00     0.065 A 
HETATM    4  C4  UNL     1       2.433   8.008 -16.105  1.00  0.00     0.038 A 
HETATM    5  C5  UNL     1       1.180   8.589 -16.319  1.00  0.00     0.026 A 
HETATM    6  C6  UNL     1       0.020   7.807 -16.336  1.00  0.00     0.005 A 
ENDROOT
BRANCH   6   7
HETATM    7  N1  UNL     1      -1.238   8.414 -16.432  1.00  0.00    -0.303 NA
HETATM    8  H5  UNL     1      -1.947   7.977 -15.851  1.00  0.00     0.124 HD
HETATM    9  H6  UNL     1      -1.553   8.557 -17.385  1.00  0.00     0.124 HD
ENDBRANCH   6   7
BRANCH   3  10
HETATM   10  O1  UNL     1       3.718   6.030 -15.651  1.00  0.00    -0.361 OA
HETATM   11  H7  UNL     1       4.391   6.714 -15.504  1.00  0.00     0.217 HD
ENDBRANCH   3  10
TORSDOF 2
ENDMDL
MODEL 2
REMARK VINA RESULT:      -3.6      1.999      2.615
REMARK  2 active torsions:
REMARK  status: ('A' for Active; 'I' for Inactive)
REMARK    1  A    between atoms: C3_3  and  O1_8 
REMARK    2  A    between atoms: C6_6  and  N1_7 
ROOT
HETATM    1  C1  UNL     1       0.138   8.009 -15.905  1.00  0.00     0.026 A 
HETATM    2  C2  UNL     1       0.926   9.033 -16.436  1.00  0.00     0.038 A 
HETATM    3  C3  UNL     1       2.162   8.733 -16.991  1.00  0.00     0.065 A 
HETATM    4  C4  UNL     1       2.617   7.420 -17.038  1.00  0.00     0.038 A 
HETATM    5  C5  UNL     1       1.824   6.400 -16.503  1.00  0.00     0.026 A 
HETATM    6  C6  UNL     1       0.602   6.690 -15.887  1.00  0.00     0.005 A 
ENDROOT
BRANCH   6   7
HETATM    7  N1  UNL     1      -0.237   5.653 -15.463  1.00  0.00    -0.303 NA
HETATM    8  H5  UNL     1       0.243   4.769 -15.329  1.00  0.00     0.124 HD
HETATM    9  H6  UNL     1      -1.080   5.554 -16.019  1.00  0.00     0.124 HD
ENDBRANCH   6   7
BRANCH   3  10
HETATM   10  O1  UNL     1       2.899   9.760 -17.501  1.00  0.00    -0.361 OA
HETATM   11  H7  UNL     1       3.146  10.354 -16.775  1.00  0.00     0.217 HD
ENDBRANCH   3  10
TORSDOF 2
ENDMDL
MODEL 3
REMARK VINA RESULT:      -3.6      2.195      2.812
REMARK  2 active torsions:
REMARK  status: ('A' for Active; 'I' for Inactive)
REMARK    1  A    between atoms: C3_3  and  O1_8 
REMARK    2  A    between atoms: C6_6  and  N1_7 
ROOT
HETATM    1  C1  UNL     1       0.750   8.881 -16.508  1.00  0.00     0.026 A 
HETATM    2  C2  UNL     1       0.010   7.825 -15.971  1.00  0.00     0.038 A 
HETATM    3  C3  UNL     1       0.559   6.552 -15.929  1.00  0.00     0.065 A 
HETATM    4  C4  UNL     1       1.846   6.320 -16.402  1.00  0.00     0.038 A 
HETATM    5  C5  UNL     1       2.580   7.381 -16.939  1.00  0.00     0.026 A 
HETATM    6  C6  UNL     1       2.022   8.659 -17.044  1.00  0.00     0.005 A 
ENDROOT
BRANCH   6   7
HETATM    7  N1  UNL     1       2.805   9.738 -17.472  1.00  0.00    -0.303 NA
HETATM    8  H5  UNL     1       2.277  10.592 -17.618  1.00  0.00     0.124 HD
HETATM    9  H6  UNL     1       3.411   9.519 -18.256  1.00  0.00     0.124 HD
ENDBRANCH   6   7
BRANCH   3  10
HETATM   10  O1  UNL     1      -0.193   5.549 -15.395  1.00  0.00    -0.361 OA
HETATM   11  H7  UNL     1      -1.053   5.534 -15.844  1.00  0.00     0.217 HD
ENDBRANCH   3  10
TORSDOF 2
ENDMDL
MODEL 4
REMARK VINA RESULT:      -3.6      2.175      2.707
REMARK  2 active torsions:
REMARK  status: ('A' for Active; 'I' for Inactive)
REMARK    1  A    between atoms: C3_3  and  O1_8 
REMARK    2  A    between atoms: C6_6  and  N1_7 
ROOT
HETATM    1  C1  UNL     1       2.613   7.357 -16.668  1.00  0.00     0.026 A 
HETATM    2  C2  UNL     1       1.836   6.316 -16.155  1.00  0.00     0.038 A 
HETATM    3  C3  UNL     1       0.510   6.550 -15.817  1.00  0.00     0.065 A 
HETATM    4  C4  UNL     1      -0.056   7.806 -16.000  1.00  0.00     0.038 A 
HETATM    5  C5  UNL     1       0.728   8.844 -16.512  1.00  0.00     0.026 A 
HETATM    6  C6  UNL     1       2.081   8.644 -16.803  1.00  0.00     0.005 A 
ENDROOT
BRANCH   6   7
HETATM    7  N1  UNL     1       2.825   9.652 -17.426  1.00  0.00    -0.303 NA
HETATM    8  H5  UNL     1       3.415  10.177 -16.787  1.00  0.00     0.124 HD
HETATM    9  H6  UNL     1       2.275  10.256 -18.027  1.00  0.00     0.124 HD
ENDBRANCH   6   7
BRANCH   3  10
HETATM   10  O1  UNL     1      -0.216   5.508 -15.323  1.00  0.00    -0.361 OA
HETATM   11  H7  UNL     1       0.333   4.707 -15.350  1.00  0.00     0.217 HD
ENDBRANCH   3  10
TORSDOF 2
ENDMDL
MODEL 5
REMARK VINA RESULT:      -3.6      2.776      3.672
REMARK  2 active torsions:
REMARK  status: ('A' for Active; 'I' for Inactive)
REMARK    1  A    between atoms: C3_3  and  O1_8 
REMARK    2  A    between atoms: C6_6  and  N1_7 
ROOT
HETATM    1  C1  UNL     1       2.414   7.977 -16.054  1.00  0.00     0.026 A 
HETATM    2  C2  UNL     1       1.265   8.680 -16.423  1.00  0.00     0.038 A 
HETATM    3  C3  UNL     1       0.062   8.004 -16.570  1.00  0.00     0.065 A 
HETATM    4  C4  UNL     1      -0.014   6.635 -16.337  1.00  0.00     0.038 A 
HETATM    5  C5  UNL     1       1.140   5.938 -15.969  1.00  0.00     0.026 A 
HETATM    6  C6  UNL     1       2.373   6.591 -15.873  1.00  0.00     0.005 A 
ENDROOT
BRANCH   6   7
HETATM    7  N1  UNL     1       3.496   5.909 -15.390  1.00  0.00    -0.303 NA
HETATM    8  H5  UNL     1       4.362   6.171 -15.850  1.00  0.00     0.124 HD
HETATM    9  H6  UNL     1       3.375   4.903 -15.339  1.00  0.00     0.124 HD
ENDBRANCH   6   7
BRANCH   3  10
HETATM   10  O1  UNL     1      -1.036   8.726 -16.928  1.00  0.00    -0.361 OA
HETATM   11  H7  UNL     1      -1.825   8.174 -16.802  1.00  0.00     0.217 HD
ENDBRANCH   3  10
TORSDOF 2
ENDMDL
MODEL 6
REMARK VINA RESULT:      -3.5      8.211      9.178
REMARK  2 active torsions:
REMARK  status: ('A' for Active; 'I' for Inactive)
REMARK    1  A    between atoms: C3_3  and  O1_8 
REMARK    2  A    between atoms: C6_6  and  N1_7 
ROOT
HETATM    1  C1  UNL     1      -4.286   2.241 -16.222  1.00  0.00     0.026 A 
HETATM    2  C2  UNL     1      -5.125   3.354 -16.143  1.00  0.00     0.038 A 
HETATM    3  C3  UNL     1      -6.334   3.258 -15.470  1.00  0.00     0.065 A 
HETATM    4  C4  UNL     1      -6.711   2.068 -14.858  1.00  0.00     0.038 A 
HETATM    5  C5  UNL     1      -5.867   0.957 -14.942  1.00  0.00     0.026 A 
HETATM    6  C6  UNL     1      -4.672   1.017 -15.666  1.00  0.00     0.005 A 
ENDROOT
BRANCH   6   7
HETATM    7  N1  UNL     1      -3.779  -0.061 -15.644  1.00  0.00    -0.303 NA
HETATM    8  H5  UNL     1      -4.234  -0.966 -15.582  1.00  0.00     0.124 HD
HETATM    9  H6  UNL     1      -3.029   0.042 -14.969  1.00  0.00     0.124 HD
ENDBRANCH   6   7
BRANCH   3  10
HETATM   10  O1  UNL     1      -7.124   4.367 -15.413  1.00  0.00    -0.361 OA
HETATM   11  H7  UNL     1      -7.385   4.608 -16.316  1.00  0.00     0.217 HD
ENDBRANCH   3  10
TORSDOF 2
ENDMDL
MODEL 7
REMARK VINA RESULT:      -3.5      2.178      2.559
REMARK  2 active torsions:
REMARK  status: ('A' for Active; 'I' for Inactive)
REMARK    1  A    between atoms: C3_3  and  O1_8 
REMARK    2  A    between atoms: C6_6  and  N1_7 
ROOT
HETATM    1  C1  UNL     1       1.693   6.540 -16.658  1.00  0.00     0.026 A 
HETATM    2  C2  UNL     1       2.325   7.597 -15.999  1.00  0.00     0.038 A 
HETATM    3  C3  UNL     1       1.997   8.905 -16.326  1.00  0.00     0.065 A 
HETATM    4  C4  UNL     1       1.033   9.174 -17.291  1.00  0.00     0.038 A 
HETATM    5  C5  UNL     1       0.405   8.111 -17.947  1.00  0.00     0.026 A 
HETATM    6  C6  UNL     1       0.764   6.787 -17.674  1.00  0.00     0.005 A 
ENDROOT
BRANCH   6   7
HETATM    7  N1  UNL     1       0.048   5.730 -18.247  1.00  0.00    -0.303 NA
HETATM    8  H5  UNL     1       0.297   4.819 -17.874  1.00  0.00     0.124 HD
HETATM    9  H6  UNL     1       0.039   5.743 -19.261  1.00  0.00     0.124 HD
ENDBRANCH   6   7
BRANCH   3  10
HETATM   10  O1  UNL     1       2.634   9.909 -15.659  1.00  0.00    -0.361 OA
HETATM   11  H7  UNL     1       3.166   9.518 -14.947  1.00  0.00     0.217 HD
ENDBRANCH   3  10
TORSDOF 2
ENDMDL
MODEL 8
REMARK VINA RESULT:      -3.1      9.284     10.340
REMARK  2 active torsions:
REMARK  status: ('A' for Active; 'I' for Inactive)
REMARK    1  A    between atoms: C3_3  and  O1_8 
REMARK    2  A    between atoms: C6_6  and  N1_7 
ROOT
HETATM    1  C1  UNL     1      -5.668   1.082 -15.039  1.00  0.00     0.026 A 
HETATM    2  C2  UNL     1      -6.501  -0.016 -14.811  1.00  0.00     0.038 A 
HETATM    3  C3  UNL     1      -6.295  -1.193 -15.516  1.00  0.00     0.065 A 
HETATM    4  C4  UNL     1      -5.258  -1.295 -16.436  1.00  0.00     0.038 A 
HETATM    5  C5  UNL     1      -4.429  -0.192 -16.660  1.00  0.00     0.026 A 
HETATM    6  C6  UNL     1      -4.657   1.021 -16.002  1.00  0.00     0.005 A 
ENDROOT
BRANCH   6   7
HETATM    7  N1  UNL     1      -3.753   2.080 -16.143  1.00  0.00    -0.303 NA
HETATM    8  H5  UNL     1      -4.078   2.814 -16.764  1.00  0.00     0.124 HD
HETATM    9  H6  UNL     1      -2.805   1.785 -16.356  1.00  0.00     0.124 HD
ENDBRANCH   6   7
BRANCH   3  10
HETATM   10  O1  UNL     1      -7.127  -2.242 -15.263  1.00  0.00    -0.361 OA
HETATM   11  H7  UNL     1      -7.553  -2.507 -16.094  1.00  0.00     0.217 HD
ENDBRANCH   3  10
TORSDOF 2
ENDMDL
MODEL 9
REMARK VINA RESULT:      -3.1      2.853      3.253
REMARK  2 active torsions:
REMARK  status: ('A' for Active; 'I' for Inactive)
REMARK    1  A    between atoms: C3_3  and  O1_8 
REMARK    2  A    between atoms: C6_6  and  N1_7 
ROOT
HETATM    1  C1  UNL     1       0.940   6.911 -16.696  1.00  0.00     0.026 A 
HETATM    2  C2  UNL     1       0.202   7.860 -15.983  1.00  0.00     0.038 A 
HETATM    3  C3  UNL     1       0.548   9.201 -16.063  1.00  0.00     0.065 A 
HETATM    4  C4  UNL     1       1.612   9.612 -16.859  1.00  0.00     0.038 A 
HETATM    5  C5  UNL     1       2.346   8.656 -17.568  1.00  0.00     0.026 A 
HETATM    6  C6  UNL     1       2.050   7.294 -17.454  1.00  0.00     0.005 A 
ENDROOT
BRANCH   6   7
HETATM    7  N1  UNL     1       2.712   6.359 -18.258  1.00  0.00    -0.303 NA
HETATM    8  H5  UNL     1       3.723   6.386 -18.166  1.00  0.00     0.124 HD
HETATM    9  H6  UNL     1       2.412   6.366 -19.227  1.00  0.00     0.124 HD
ENDBRANCH   6   7
BRANCH   3  10
HETATM   10  O1  UNL     1      -0.197  10.096 -15.356  1.00  0.00    -0.361 OA
HETATM   11  H7  UNL     1       0.329  10.412 -14.604  1.00  0.00     0.217 HD
ENDBRANCH   3  10
TORSDOF 2
ENDMDL
MODEL 10
REMARK VINA RESULT:      -3.0      9.486     10.369
REMARK  2 active torsions:
REMARK  status: ('A' for Active; 'I' for Inactive)
REMARK    1  A    between atoms: C3_3  and  O1_8 
REMARK    2  A    between atoms: C6_6  and  N1_7 
ROOT
HETATM    1  C1  UNL     1      -7.020  -0.519 -14.912  1.00  0.00     0.026 A 
HETATM    2  C2  UNL     1      -6.325  -1.501 -15.621  1.00  0.00     0.038 A 
HETATM    3  C3  UNL     1      -5.069  -1.217 -16.138  1.00  0.00     0.065 A 
HETATM    4  C4  UNL     1      -4.489   0.032 -15.942  1.00  0.00     0.038 A 
HETATM    5  C5  UNL     1      -5.191   1.010 -15.232  1.00  0.00     0.026 A 
HETATM    6  C6  UNL     1      -6.482   0.762 -14.755  1.00  0.00     0.005 A 
ENDROOT
BRANCH   6   7
HETATM    7  N1  UNL     1      -7.127   1.704 -13.945  1.00  0.00    -0.303 NA
HETATM    8  H5  UNL     1      -7.636   1.293 -13.168  1.00  0.00     0.124 HD
HETATM    9  H6  UNL     1      -7.686   2.375 -14.461  1.00  0.00     0.124 HD
ENDBRANCH   6   7
BRANCH   3  10
HETATM   10  O1  UNL     1      -4.422  -2.202 -16.821  1.00  0.00    -0.361 OA
HETATM   11  H7  UNL     1      -3.692  -2.531 -16.273  1.00  0.00     0.217 HD
ENDBRANCH   3  10
TORSDOF 2
ENDMDL
MODEL 11
REMARK VINA RESULT:      -3.0      8.487      9.328
REMARK  2 active torsions:
REMARK  status: ('A' for Active; 'I' for Inactive)
REMARK    1  A    between atoms: C3_3  and  O1_8 
REMARK    2  A    between atoms: C6_6  and  N1_7 
ROOT
HETATM    1  C1  UNL     1      -6.676   3.073 -15.179  1.00  0.00     0.026 A 
HETATM    2  C2  UNL     1      -7.127   1.929 -14.517  1.00  0.00     0.038 A 
HETATM    3  C3  UNL     1      -6.385   0.758 -14.584  1.00  0.00     0.065 A 
HETATM    4  C4  UNL     1      -5.188   0.718 -15.290  1.00  0.00     0.038 A 
HETATM    5  C5  UNL     1      -4.744   1.867 -15.952  1.00  0.00     0.026 A 
HETATM    6  C6  UNL     1      -5.507   3.039 -15.945  1.00  0.00     0.005 A 
ENDROOT
BRANCH   6   7
HETATM    7  N1  UNL     1      -4.998   4.215 -16.508  1.00  0.00    -0.303 NA
HETATM    8  H5  UNL     1      -5.228   5.052 -15.981  1.00  0.00     0.124 HD
HETATM    9  H6  UNL     1      -5.196   4.315 -17.498  1.00  0.00     0.124 HD
ENDBRANCH   6   7
BRANCH   3  10
HETATM   10  O1  UNL     1      -6.857  -0.336 -13.922  1.00  0.00    -0.361 OA
HETATM   11  H7  UNL     1      -6.250  -1.077 -14.077  1.00  0.00     0.217 HD
ENDBRANCH   3  10
TORSDOF 2
ENDMDL
MODEL 12
REMARK VINA RESULT:      -2.9      2.831      3.671
REMARK  2 active torsions:
REMARK  status: ('A' for Active; 'I' for Inactive)
REMARK    1  A    between atoms: C3_3  and  O1_8 
REMARK    2  A    between atoms: C6_6  and  N1_7 
ROOT
HETATM    1  C1  UNL     1       0.117   9.903 -16.284  1.00  0.00     0.026 A 
HETATM    2  C2  UNL     1      -1.029   9.174 -16.612  1.00  0.00     0.038 A 
HETATM    3  C3  UNL     1      -0.930   7.813 -16.862  1.00  0.00     0.065 A 
HETATM    4  C4  UNL     1       0.297   7.164 -16.773  1.00  0.00     0.038 A 
HETATM    5  C5  UNL     1       1.440   7.900 -16.446  1.00  0.00     0.026 A 
HETATM    6  C6  UNL     1       1.370   9.283 -16.248  1.00  0.00     0.005 A 
ENDROOT
BRANCH   6   7
HETATM    7  N1  UNL     1       2.494   9.990 -15.805  1.00  0.00    -0.303 NA
HETATM    8  H5  UNL     1       2.413  10.328 -14.851  1.00  0.00     0.124 HD
HETATM    9  H6  UNL     1       2.803  10.712 -16.446  1.00  0.00     0.124 HD
ENDBRANCH   6   7
BRANCH   3  10
HETATM   10  O1  UNL     1      -2.070   7.136 -17.176  1.00  0.00    -0.361 OA
HETATM   11  H7  UNL     1      -2.822   7.745 -17.099  1.00  0.00     0.217 HD
ENDBRANCH   3  10
TORSDOF 2
ENDMDL
MODEL 13
REMARK VINA RESULT:      -2.8      7.116      8.127
REMARK  2 active torsions:
REMARK  status: ('A' for Active; 'I' for Inactive)
REMARK    1  A    between atoms: C3_3  and  O1_8 
REMARK    2  A    between atoms: C6_6  and  N1_7 
ROOT
HETATM    1  C1  UNL     1      -6.662   3.085 -15.480  1.00  0.00     0.026 A 
HETATM    2  C2  UNL     1      -6.589   4.476 -15.373  1.00  0.00     0.038 A 
HETATM    3  C3  UNL     1      -5.417   5.132 -15.721  1.00  0.00     0.065 A 
HETATM    4  C4  UNL     1      -4.320   4.419 -16.192  1.00  0.00     0.038 A 
HETATM    5  C5  UNL     1      -4.400   3.027 -16.295  1.00  0.00     0.026 A 
HETATM    6  C6  UNL     1      -5.552   2.343 -15.893  1.00  0.00     0.005 A 
ENDROOT
BRANCH   6   7
HETATM    7  N1  UNL     1      -5.666   0.965 -16.111  1.00  0.00    -0.303 NA
HETATM    8  H5  UNL     1      -6.165   0.476 -15.375  1.00  0.00     0.124 HD
HETATM    9  H6  UNL     1      -4.789   0.514 -16.350  1.00  0.00     0.124 HD
ENDBRANCH   6   7
BRANCH   3  10
HETATM   10  O1  UNL     1      -5.386   6.489 -15.606  1.00  0.00    -0.361 OA
HETATM   11  H7  UNL     1      -4.727   6.728 -14.934  1.00  0.00     0.217 HD
ENDBRANCH   3  10
TORSDOF 2
ENDMDL
MODEL 14
REMARK VINA RESULT:      -2.8      3.067      3.575
REMARK  2 active torsions:
REMARK  status: ('A' for Active; 'I' for Inactive)
REMARK    1  A    between atoms: C3_3  and  O1_8 
REMARK    2  A    between atoms: C6_6  and  N1_7 
ROOT
HETATM    1  C1  UNL     1       0.656   6.298 -17.632  1.00  0.00     0.026 A 
HETATM    2  C2  UNL     1      -0.670   6.733 -17.700  1.00  0.00     0.038 A 
HETATM    3  C3  UNL     1      -1.084   7.801 -16.916  1.00  0.00     0.065 A 
HETATM    4  C4  UNL     1      -0.187   8.453 -16.077  1.00  0.00     0.038 A 
HETATM    5  C5  UNL     1       1.137   8.011 -16.014  1.00  0.00     0.026 A 
HETATM    6  C6  UNL     1       1.559   6.900 -16.751  1.00  0.00     0.005 A 
ENDROOT
BRANCH   6   7
HETATM    7  N1  UNL     1       2.912   6.541 -16.773  1.00  0.00    -0.303 NA
HETATM    8  H5  UNL     1       3.068   5.538 -16.735  1.00  0.00     0.124 HD
HETATM    9  H6  UNL     1       3.481   7.046 -16.103  1.00  0.00     0.124 HD
ENDBRANCH   6   7
BRANCH   3  10
HETATM   10  O1  UNL     1      -2.384   8.196 -17.013  1.00  0.00    -0.361 OA
HETATM   11  H7  UNL     1      -2.915   7.444 -17.320  1.00  0.00     0.217 HD
ENDBRANCH   3  10
TORSDOF 2
ENDMDL
MODEL 15
REMARK VINA RESULT:      -2.5      2.806      3.516
REMARK  2 active torsions:
REMARK  status: ('A' for Active; 'I' for Inactive)
REMARK    1  A    between atoms: C3_3  and  O1_8 
REMARK    2  A    between atoms: C6_6  and  N1_7 
ROOT
HETATM    1  C1  UNL     1      -2.201   8.202 -17.423  1.00  0.00     0.026 A 
HETATM    2  C2  UNL     1      -0.893   7.937 -17.011  1.00  0.00     0.038 A 
HETATM    3  C3  UNL     1      -0.305   8.729 -16.035  1.00  0.00     0.065 A 
HETATM    4  C4  UNL     1      -1.012   9.774 -15.451  1.00  0.00     0.038 A 
HETATM    5  C5  UNL     1      -2.320  10.035 -15.870  1.00  0.00     0.026 A 
HETATM    6  C6  UNL     1      -2.909   9.285 -16.893  1.00  0.00     0.005 A 
ENDROOT
BRANCH   6   7
HETATM    7  N1  UNL     1      -4.256   9.476 -17.221  1.00  0.00    -0.303 NA
HETATM    8  H5  UNL     1      -4.698  10.232 -16.707  1.00  0.00     0.124 HD
HETATM    9  H6  UNL     1      -4.807   8.624 -17.205  1.00  0.00     0.124 HD
ENDBRANCH   6   7
BRANCH   3  10
HETATM   10  O1  UNL     1       0.971   8.436 -15.658  1.00  0.00    -0.361 OA
HETATM   11  H7  UNL     1       1.127   8.807 -14.775  1.00  0.00     0.217 HD
ENDBRANCH   3  10
TORSDOF 2
ENDMDL
MODEL 16
REMARK VINA RESULT:      -2.4      1.879      1.965
REMARK  2 active torsions:
REMARK  status: ('A' for Active; 'I' for Inactive)
REMARK    1  A    between atoms: C3_3  and  O1_8 
REMARK    2  A    between atoms: C6_6  and  N1_7 
ROOT
HETATM    1  C1  UNL     1      -0.422   6.718 -17.006  1.00  0.00     0.026 A 
HETATM    2  C2  UNL     1       0.883   6.345 -17.334  1.00  0.00     0.038 A 
HETATM    3  C3  UNL     1       1.721   7.256 -17.962  1.00  0.00     0.065 A 
HETATM    4  C4  UNL     1       1.278   8.541 -18.253  1.00  0.00     0.038 A 
HETATM    5  C5  UNL     1      -0.030   8.906 -17.923  1.00  0.00     0.026 A 
HETATM    6  C6  UNL     1      -0.908   7.985 -17.343  1.00  0.00     0.005 A 
ENDROOT
BRANCH   6   7
HETATM    7  N1  UNL     1      -2.174   8.394 -16.909  1.00  0.00    -0.303 NA
HETATM    8  H5  UNL     1      -2.505   7.894 -16.089  1.00  0.00     0.124 HD
HETATM    9  H6  UNL     1      -2.869   8.430 -17.646  1.00  0.00     0.124 HD
ENDBRANCH   6   7
BRANCH   3  10
HETATM   10  O1  UNL     1       2.988   6.855 -18.263  1.00  0.00    -0.361 OA
HETATM   11  H7  UNL     1       3.409   7.541 -18.805  1.00  0.00     0.217 HD
ENDBRANCH   3  10
TORSDOF 2
ENDMDL
MODEL 17
REMARK VINA RESULT:      -2.4      2.555      3.189
REMARK  2 active torsions:
REMARK  status: ('A' for Active; 'I' for Inactive)
REMARK    1  A    between atoms: C3_3  and  O1_8 
REMARK    2  A    between atoms: C6_6  and  N1_7 
ROOT
HETATM    1  C1  UNL     1      -0.462  10.304 -16.205  1.00  0.00     0.026 A 
HETATM    2  C2  UNL     1       0.880  10.588 -16.467  1.00  0.00     0.038 A 
HETATM    3  C3  UNL     1       1.651   9.675 -17.174  1.00  0.00     0.065 A 
HETATM    4  C4  UNL     1       1.095   8.488 -17.637  1.00  0.00     0.038 A 
HETATM    5  C5  UNL     1      -0.249   8.210 -17.370  1.00  0.00     0.026 A 
HETATM    6  C6  UNL     1      -1.026   9.090 -16.609  1.00  0.00     0.005 A 
ENDROOT
BRANCH   6   7
HETATM    7  N1  UNL     1      -2.397   8.861 -16.449  1.00  0.00    -0.303 NA
HETATM    8  H5  UNL     1      -2.640   8.451 -15.552  1.00  0.00     0.124 HD
HETATM    9  H6  UNL     1      -2.825   8.369 -17.227  1.00  0.00     0.124 HD
ENDBRANCH   6   7
BRANCH   3  10
HETATM   10  O1  UNL     1       2.955   9.990 -17.412  1.00  0.00    -0.361 OA
HETATM   11  H7  UNL     1       3.093  10.032 -18.372  1.00  0.00     0.217 HD
ENDBRANCH   3  10
TORSDOF 2
ENDMDL
