MODEL 1
REMARK VINA RESULT:      -3.6      0.000      0.000
REMARK  2 active torsions:
REMARK  status: ('A' for Active; 'I' for Inactive)
REMARK    1  A    between atoms: C3_3  and  O1_8 
REMARK    2  A    between atoms: C6_6  and  N1_7 
ROOT
HETATM    1  C1  UNL     1     -13.068  10.531   0.013  1.00  0.00     0.026 A 
HETATM    2  C2  UNL     1     -13.501  10.463   1.339  1.00  0.00     0.038 A 
HETATM    3  C3  UNL     1     -12.577  10.562   2.370  1.00  0.00     0.065 A 
HETATM    4  C4  UNL     1     -11.226  10.745   2.095  1.00  0.00     0.038 A 
HETATM    5  C5  UNL     1     -10.800  10.810   0.765  1.00  0.00     0.026 A 
HETATM    6  C6  UNL     1     -11.708  10.654  -0.287  1.00  0.00     0.005 A 
ENDROOT
BRANCH   6   7
HETATM    7  N1  UNL     1     -11.291  10.840  -1.610  1.00  0.00    -0.303 NA
HETATM    8  H5  UNL     1     -11.233  11.815  -1.886  1.00  0.00     0.124 HD
HETATM    9  H6  UNL     1     -11.801  10.278  -2.284  1.00  0.00     0.124 HD
ENDBRANCH   6   7
BRANCH   3  10
HETATM   10  O1  UNL     1     -13.039  10.494   3.650  1.00  0.00    -0.361 OA
HETATM   11  H7  UNL     1     -12.948   9.580   3.964  1.00  0.00     0.217 HD
ENDBRANCH   3  10
TORSDOF 2
ENDMDL
MODEL 2
REMARK VINA RESULT:      -3.6      1.119      2.115
REMARK  2 active torsions:
REMARK  status: ('A' for Active; 'I' for Inactive)
REMARK    1  A    between atoms: C3_3  and  O1_8 
REMARK    2  A    between atoms: C6_6  and  N1_7 
ROOT
HETATM    1  C1  UNL     1     -10.813  10.708   2.142  1.00  0.00     0.026 A 
HETATM    2  C2  UNL     1     -11.511  11.031   3.308  1.00  0.00     0.038 A 
HETATM    3  C3  UNL     1     -12.898  10.981   3.315  1.00  0.00     0.065 A 
HETATM    4  C4  UNL     1     -13.598  10.596   2.177  1.00  0.00     0.038 A 
HETATM    5  C5  UNL     1     -12.892  10.275   1.013  1.00  0.00     0.026 A 
HETATM    6  C6  UNL     1     -11.498  10.377   0.970  1.00  0.00     0.005 A 
ENDROOT
BRANCH   6   7
HETATM    7  N1  UNL     1     -10.795   9.941  -0.159  1.00  0.00    -0.303 NA
HETATM    8  H5  UNL     1      -9.810   9.766   0.016  1.00  0.00     0.124 HD
HETATM    9  H6  UNL     1     -10.945  10.513  -0.983  1.00  0.00     0.124 HD
ENDBRANCH   6   7
BRANCH   3  10
HETATM   10  O1  UNL     1     -13.543  11.300   4.472  1.00  0.00    -0.361 OA
HETATM   11  H7  UNL     1     -13.340  12.223   4.695  1.00  0.00     0.217 HD
ENDBRANCH   3  10
TORSDOF 2
ENDMDL
MODEL 3
REMARK VINA RESULT:      -3.5      2.777      3.680
REMARK  2 active torsions:
REMARK  status: ('A' for Active; 'I' for Inactive)
REMARK    1  A    between atoms: C3_3  and  O1_8 
REMARK    2  A    between atoms: C6_6  and  N1_7 
ROOT
HETATM    1  C1  UNL     1     -11.322  10.750   2.150  1.00  0.00     0.026 A 
HETATM    2  C2  UNL     1     -10.871  10.744   0.829  1.00  0.00     0.038 A 
HETATM    3  C3  UNL     1     -11.781  10.603  -0.209  1.00  0.00     0.065 A 
HETATM    4  C4  UNL     1     -13.142  10.484   0.055  1.00  0.00     0.038 A 
HETATM    5  C5  UNL     1     -13.586  10.489   1.380  1.00  0.00     0.026 A 
HETATM    6  C6  UNL     1     -12.678  10.571   2.441  1.00  0.00     0.005 A 
ENDROOT
BRANCH   6   7
HETATM    7  N1  UNL     1     -13.140  10.696   3.756  1.00  0.00    -0.303 NA
HETATM    8  H5  UNL     1     -13.322  11.655   4.035  1.00  0.00     0.124 HD
HETATM    9  H6  UNL     1     -12.579  10.195   4.437  1.00  0.00     0.124 HD
ENDBRANCH   6   7
BRANCH   3  10
HETATM   10  O1  UNL     1     -11.302  10.605  -1.484  1.00  0.00    -0.361 OA
HETATM   11  H7  UNL     1     -10.416  11.001  -1.481  1.00  0.00     0.217 HD
ENDBRANCH   3  10
TORSDOF 2
ENDMDL
MODEL 4
REMARK VINA RESULT:      -3.5      2.786      3.267
REMARK  2 active torsions:
REMARK  status: ('A' for Active; 'I' for Inactive)
REMARK    1  A    between atoms: C3_3  and  O1_8 
REMARK    2  A    between atoms: C6_6  and  N1_7 
ROOT
HETATM    1  C1  UNL     1     -13.638  10.508   1.458  1.00  0.00     0.026 A 
HETATM    2  C2  UNL     1     -13.127  10.426   0.161  1.00  0.00     0.038 A 
HETATM    3  C3  UNL     1     -11.758  10.521  -0.046  1.00  0.00     0.065 A 
HETATM    4  C4  UNL     1     -10.889  10.681   1.028  1.00  0.00     0.038 A 
HETATM    5  C5  UNL     1     -11.408  10.763   2.324  1.00  0.00     0.026 A 
HETATM    6  C6  UNL     1     -12.788  10.729   2.547  1.00  0.00     0.005 A 
ENDROOT
BRANCH   6   7
HETATM    7  N1  UNL     1     -13.291  10.692   3.852  1.00  0.00    -0.303 NA
HETATM    8  H5  UNL     1     -13.102  11.536   4.386  1.00  0.00     0.124 HD
HETATM    9  H6  UNL     1     -13.047   9.850   4.363  1.00  0.00     0.124 HD
ENDBRANCH   6   7
BRANCH   3  10
HETATM   10  O1  UNL     1     -11.298  10.433  -1.325  1.00  0.00    -0.361 OA
HETATM   11  H7  UNL     1     -11.712   9.666  -1.751  1.00  0.00     0.217 HD
ENDBRANCH   3  10
TORSDOF 2
ENDMDL
MODEL 5
REMARK VINA RESULT:      -3.3      3.275      3.845
REMARK  2 active torsions:
REMARK  status: ('A' for Active; 'I' for Inactive)
REMARK    1  A    between atoms: C3_3  and  O1_8 
REMARK    2  A    between atoms: C6_6  and  N1_7 
ROOT
HETATM    1  C1  UNL     1     -11.161  11.709  -1.271  1.00  0.00     0.026 A 
HETATM    2  C2  UNL     1     -10.848  13.063  -1.416  1.00  0.00     0.038 A 
HETATM    3  C3  UNL     1     -10.060  13.693  -0.463  1.00  0.00     0.065 A 
HETATM    4  C4  UNL     1      -9.564  12.984   0.626  1.00  0.00     0.038 A 
HETATM    5  C5  UNL     1      -9.882  11.630   0.765  1.00  0.00     0.026 A 
HETATM    6  C6  UNL     1     -10.723  10.993  -0.152  1.00  0.00     0.005 A 
ENDROOT
BRANCH   6   7
HETATM    7  N1  UNL     1     -10.939   9.612  -0.071  1.00  0.00    -0.303 NA
HETATM    8  H5  UNL     1     -10.137   9.057  -0.355  1.00  0.00     0.124 HD
HETATM    9  H6  UNL     1     -11.798   9.304  -0.512  1.00  0.00     0.124 HD
ENDBRANCH   6   7
BRANCH   3  10
HETATM   10  O1  UNL     1      -9.775  15.013  -0.642  1.00  0.00    -0.361 OA
HETATM   11  H7  UNL     1     -10.575  15.463  -0.956  1.00  0.00     0.217 HD
ENDBRANCH   3  10
TORSDOF 2
ENDMDL
MODEL 6
REMARK VINA RESULT:      -3.2      3.129      3.958
REMARK  2 active torsions:
REMARK  status: ('A' for Active; 'I' for Inactive)
REMARK    1  A    between atoms: C3_3  and  O1_8 
REMARK    2  A    between atoms: C6_6  and  N1_7 
ROOT
HETATM    1  C1  UNL     1     -10.151  12.292   1.653  1.00  0.00     0.026 A 
HETATM    2  C2  UNL     1     -10.098  12.732   0.328  1.00  0.00     0.038 A 
HETATM    3  C3  UNL     1     -10.665  11.961  -0.676  1.00  0.00     0.065 A 
HETATM    4  C4  UNL     1     -11.300  10.762  -0.375  1.00  0.00     0.038 A 
HETATM    5  C5  UNL     1     -11.348  10.326   0.953  1.00  0.00     0.026 A 
HETATM    6  C6  UNL     1     -10.731  11.060   1.971  1.00  0.00     0.005 A 
ENDROOT
BRANCH   6   7
HETATM    7  N1  UNL     1     -10.887  10.678   3.309  1.00  0.00    -0.303 NA
HETATM    8  H5  UNL     1     -11.196  11.432   3.914  1.00  0.00     0.124 HD
HETATM    9  H6  UNL     1     -10.089  10.180   3.688  1.00  0.00     0.124 HD
ENDBRANCH   6   7
BRANCH   3  10
HETATM   10  O1  UNL     1     -10.595  12.427  -1.955  1.00  0.00    -0.361 OA
HETATM   11  H7  UNL     1      -9.786  12.083  -2.366  1.00  0.00     0.217 HD
ENDBRANCH   3  10
TORSDOF 2
ENDMDL
MODEL 7
REMARK VINA RESULT:      -3.1      1.622      2.356
REMARK  2 active torsions:
REMARK  status: ('A' for Active; 'I' for Inactive)
REMARK    1  A    between atoms: C3_3  and  O1_8 
REMARK    2  A    between atoms: C6_6  and  N1_7 
ROOT
HETATM    1  C1  UNL     1     -10.301  12.831   0.474  1.00  0.00     0.026 A 
HETATM    2  C2  UNL     1     -10.332  12.331   1.777  1.00  0.00     0.038 A 
HETATM    3  C3  UNL     1     -10.844  11.063   2.015  1.00  0.00     0.065 A 
HETATM    4  C4  UNL     1     -11.311  10.280   0.965  1.00  0.00     0.038 A 
HETATM    5  C5  UNL     1     -11.278  10.788  -0.337  1.00  0.00     0.026 A 
HETATM    6  C6  UNL     1     -10.820  12.086  -0.589  1.00  0.00     0.005 A 
ENDROOT
BRANCH   6   7
HETATM    7  N1  UNL     1     -10.680  12.540  -1.905  1.00  0.00    -0.303 NA
HETATM    8  H5  UNL     1     -11.537  12.495  -2.446  1.00  0.00     0.124 HD
HETATM    9  H6  UNL     1      -9.891  12.135  -2.397  1.00  0.00     0.124 HD
ENDBRANCH   6   7
BRANCH   3  10
HETATM   10  O1  UNL     1     -10.854  10.609   3.300  1.00  0.00    -0.361 OA
HETATM   11  H7  UNL     1     -11.775  10.456   3.567  1.00  0.00     0.217 HD
ENDBRANCH   3  10
TORSDOF 2
ENDMDL
MODEL 8
REMARK VINA RESULT:      -3.1      2.963      3.744
REMARK  2 active torsions:
REMARK  status: ('A' for Active; 'I' for Inactive)
REMARK    1  A    between atoms: C3_3  and  O1_8 
REMARK    2  A    between atoms: C6_6  and  N1_7 
ROOT
HETATM    1  C1  UNL     1     -10.007  13.003   0.968  1.00  0.00     0.026 A 
HETATM    2  C2  UNL     1     -10.210  11.622   1.016  1.00  0.00     0.038 A 
HETATM    3  C3  UNL     1     -10.679  10.956  -0.107  1.00  0.00     0.065 A 
HETATM    4  C4  UNL     1     -10.934  11.649  -1.286  1.00  0.00     0.038 A 
HETATM    5  C5  UNL     1     -10.729  13.031  -1.326  1.00  0.00     0.026 A 
HETATM    6  C6  UNL     1     -10.313  13.728  -0.187  1.00  0.00     0.005 A 
ENDROOT
BRANCH   6   7
HETATM    7  N1  UNL     1      -9.998  15.089  -0.270  1.00  0.00    -0.303 NA
HETATM    8  H5  UNL     1      -9.126  15.277  -0.756  1.00  0.00     0.124 HD
HETATM    9  H6  UNL     1     -10.060  15.580   0.615  1.00  0.00     0.124 HD
ENDBRANCH   6   7
BRANCH   3  10
HETATM   10  O1  UNL     1     -10.862   9.608  -0.021  1.00  0.00    -0.361 OA
HETATM   11  H7  UNL     1     -11.112   9.388   0.891  1.00  0.00     0.217 HD
ENDBRANCH   3  10
TORSDOF 2
ENDMDL
MODEL 9
REMARK VINA RESULT:      -3.1      1.988      2.620
REMARK  2 active torsions:
REMARK  status: ('A' for Active; 'I' for Inactive)
REMARK    1  A    between atoms: C3_3  and  O1_8 
REMARK    2  A    between atoms: C6_6  and  N1_7 
ROOT
HETATM    1  C1  UNL     1     -10.424  11.920   0.568  1.00  0.00     0.026 A 
HETATM    2  C2  UNL     1     -10.581  12.985   1.457  1.00  0.00     0.038 A 
HETATM    3  C3  UNL     1     -11.366  12.825   2.591  1.00  0.00     0.065 A 
HETATM    4  C4  UNL     1     -11.984  11.609   2.858  1.00  0.00     0.038 A 
HETATM    5  C5  UNL     1     -11.823  10.547   1.963  1.00  0.00     0.026 A 
HETATM    6  C6  UNL     1     -11.085  10.707   0.786  1.00  0.00     0.005 A 
ENDROOT
BRANCH   6   7
HETATM    7  N1  UNL     1     -10.831   9.607  -0.042  1.00  0.00    -0.303 NA
HETATM    8  H5  UNL     1     -11.278   9.670  -0.951  1.00  0.00     0.124 HD
HETATM    9  H6  UNL     1     -10.991   8.711   0.406  1.00  0.00     0.124 HD
ENDBRANCH   6   7
BRANCH   3  10
HETATM   10  O1  UNL     1     -11.492  13.888   3.435  1.00  0.00    -0.361 OA
HETATM   11  H7  UNL     1     -11.073  13.663   4.281  1.00  0.00     0.217 HD
ENDBRANCH   3  10
TORSDOF 2
ENDMDL
MODEL 10
REMARK VINA RESULT:      -3.1      2.943      3.346
REMARK  2 active torsions:
REMARK  status: ('A' for Active; 'I' for Inactive)
REMARK    1  A    between atoms: C3_3  and  O1_8 
REMARK    2  A    between atoms: C6_6  and  N1_7 
ROOT
HETATM    1  C1  UNL     1     -11.810  12.789  -1.482  1.00  0.00     0.026 A 
HETATM    2  C2  UNL     1     -11.769  11.425  -1.186  1.00  0.00     0.038 A 
HETATM    3  C3  UNL     1     -10.828  10.944  -0.287  1.00  0.00     0.065 A 
HETATM    4  C4  UNL     1      -9.936  11.810   0.336  1.00  0.00     0.038 A 
HETATM    5  C5  UNL     1      -9.983  13.175   0.034  1.00  0.00     0.026 A 
HETATM    6  C6  UNL     1     -10.884  13.670  -0.913  1.00  0.00     0.005 A 
ENDROOT
BRANCH   6   7
HETATM    7  N1  UNL     1     -11.004  15.049  -1.119  1.00  0.00    -0.303 NA
HETATM    8  H5  UNL     1     -10.336  15.421  -1.788  1.00  0.00     0.124 HD
HETATM    9  H6  UNL     1     -11.035  15.591  -0.262  1.00  0.00     0.124 HD
ENDBRANCH   6   7
BRANCH   3  10
HETATM   10  O1  UNL     1     -10.822   9.607  -0.024  1.00  0.00    -0.361 OA
HETATM   11  H7  UNL     1      -9.986   9.382   0.417  1.00  0.00     0.217 HD
ENDBRANCH   3  10
TORSDOF 2
ENDMDL
MODEL 11
REMARK VINA RESULT:      -3.0      2.490      3.074
REMARK  2 active torsions:
REMARK  status: ('A' for Active; 'I' for Inactive)
REMARK    1  A    between atoms: C3_3  and  O1_8 
REMARK    2  A    between atoms: C6_6  and  N1_7 
ROOT
HETATM    1  C1  UNL     1     -12.065  11.260  -1.182  1.00  0.00     0.026 A 
HETATM    2  C2  UNL     1     -10.836  11.912  -1.057  1.00  0.00     0.038 A 
HETATM    3  C3  UNL     1     -10.128  11.823   0.133  1.00  0.00     0.065 A 
HETATM    4  C4  UNL     1     -10.624  11.078   1.198  1.00  0.00     0.038 A 
HETATM    5  C5  UNL     1     -11.855  10.429   1.066  1.00  0.00     0.026 A 
HETATM    6  C6  UNL     1     -12.610  10.555  -0.105  1.00  0.00     0.005 A 
ENDROOT
BRANCH   6   7
HETATM    7  N1  UNL     1     -13.781   9.807  -0.271  1.00  0.00    -0.303 NA
HETATM    8  H5  UNL     1     -13.618   8.865  -0.614  1.00  0.00     0.124 HD
HETATM    9  H6  UNL     1     -14.505  10.288  -0.794  1.00  0.00     0.124 HD
ENDBRANCH   6   7
BRANCH   3  10
HETATM   10  O1  UNL     1      -8.932  12.471   0.215  1.00  0.00    -0.361 OA
HETATM   11  H7  UNL     1      -8.462  12.155   1.002  1.00  0.00     0.217 HD
ENDBRANCH   3  10
TORSDOF 2
ENDMDL
MODEL 12
REMARK VINA RESULT:      -3.0     15.566     16.387
REMARK  2 active torsions:
REMARK  status: ('A' for Active; 'I' for Inactive)
REMARK    1  A    between atoms: C3_3  and  O1_8 
REMARK    2  A    between atoms: C6_6  and  N1_7 
ROOT
HETATM    1  C1  UNL     1      -1.048  20.036   4.329  1.00  0.00     0.026 A 
HETATM    2  C2  UNL     1      -0.909  20.831   3.189  1.00  0.00     0.038 A 
HETATM    3  C3  UNL     1       0.341  21.322   2.840  1.00  0.00     0.065 A 
HETATM    4  C4  UNL     1       1.460  21.016   3.607  1.00  0.00     0.038 A 
HETATM    5  C5  UNL     1       1.314  20.221   4.747  1.00  0.00     0.026 A 
HETATM    6  C6  UNL     1       0.053  19.766   5.147  1.00  0.00     0.005 A 
ENDROOT
BRANCH   6   7
HETATM    7  N1  UNL     1      -0.067  18.875   6.219  1.00  0.00    -0.303 NA
HETATM    8  H5  UNL     1      -0.722  18.118   6.050  1.00  0.00     0.124 HD
HETATM    9  H6  UNL     1      -0.223  19.327   7.114  1.00  0.00     0.124 HD
ENDBRANCH   6   7
BRANCH   3  10
HETATM   10  O1  UNL     1       0.436  22.091   1.720  1.00  0.00    -0.361 OA
HETATM   11  H7  UNL     1      -0.365  21.962   1.187  1.00  0.00     0.217 HD
ENDBRANCH   3  10
TORSDOF 2
ENDMDL
MODEL 13
REMARK VINA RESULT:      -3.0      8.402      9.186
REMARK  2 active torsions:
REMARK  status: ('A' for Active; 'I' for Inactive)
REMARK    1  A    between atoms: C3_3  and  O1_8 
REMARK    2  A    between atoms: C6_6  and  N1_7 
ROOT
HETATM    1  C1  UNL     1      -9.433  16.757   7.811  1.00  0.00     0.026 A 
HETATM    2  C2  UNL     1     -10.379  16.383   6.854  1.00  0.00     0.038 A 
HETATM    3  C3  UNL     1     -10.027  16.361   5.512  1.00  0.00     0.065 A 
HETATM    4  C4  UNL     1      -8.737  16.693   5.112  1.00  0.00     0.038 A 
HETATM    5  C5  UNL     1      -7.797  17.068   6.076  1.00  0.00     0.026 A 
HETATM    6  C6  UNL     1      -8.149  17.153   7.427  1.00  0.00     0.005 A 
ENDROOT
BRANCH   6   7
HETATM    7  N1  UNL     1      -7.172  17.412   8.395  1.00  0.00    -0.303 NA
HETATM    8  H5  UNL     1      -6.324  16.865   8.276  1.00  0.00     0.124 HD
HETATM    9  H6  UNL     1      -7.520  17.384   9.347  1.00  0.00     0.124 HD
ENDBRANCH   6   7
BRANCH   3  10
HETATM   10  O1  UNL     1     -10.977  15.988   4.609  1.00  0.00    -0.361 OA
HETATM   11  H7  UNL     1     -10.797  16.435   3.767  1.00  0.00     0.217 HD
ENDBRANCH   3  10
TORSDOF 2
ENDMDL
MODEL 14
REMARK VINA RESULT:      -2.9     15.617     16.458
REMARK  2 active torsions:
REMARK  status: ('A' for Active; 'I' for Inactive)
REMARK    1  A    between atoms: C3_3  and  O1_8 
REMARK    2  A    between atoms: C6_6  and  N1_7 
ROOT
HETATM    1  C1  UNL     1       1.740  20.821   3.813  1.00  0.00     0.026 A 
HETATM    2  C2  UNL     1       1.735  20.113   5.017  1.00  0.00     0.038 A 
HETATM    3  C3  UNL     1       0.531  19.689   5.561  1.00  0.00     0.065 A 
HETATM    4  C4  UNL     1      -0.670  19.946   4.909  1.00  0.00     0.038 A 
HETATM    5  C5  UNL     1      -0.657  20.656   3.704  1.00  0.00     0.026 A 
HETATM    6  C6  UNL     1       0.541  21.143   3.171  1.00  0.00     0.005 A 
ENDROOT
BRANCH   6   7
HETATM    7  N1  UNL     1       0.556  21.747   1.909  1.00  0.00    -0.303 NA
HETATM    8  H5  UNL     1      -0.182  21.422   1.292  1.00  0.00     0.124 HD
HETATM    9  H6  UNL     1       1.466  21.737   1.460  1.00  0.00     0.124 HD
ENDBRANCH   6   7
BRANCH   3  10
HETATM   10  O1  UNL     1       0.568  18.999   6.735  1.00  0.00    -0.361 OA
HETATM   11  H7  UNL     1      -0.265  19.150   7.210  1.00  0.00     0.217 HD
ENDBRANCH   3  10
TORSDOF 2
ENDMDL
MODEL 15
REMARK VINA RESULT:      -2.8     11.751     12.569
REMARK  2 active torsions:
REMARK  status: ('A' for Active; 'I' for Inactive)
REMARK    1  A    between atoms: C3_3  and  O1_8 
REMARK    2  A    between atoms: C6_6  and  N1_7 
ROOT
HETATM    1  C1  UNL     1      -5.000  18.557  -4.918  1.00  0.00     0.026 A 
HETATM    2  C2  UNL     1      -5.165  17.186  -4.708  1.00  0.00     0.038 A 
HETATM    3  C3  UNL     1      -5.000  16.304  -5.766  1.00  0.00     0.065 A 
HETATM    4  C4  UNL     1      -4.654  16.770  -7.030  1.00  0.00     0.038 A 
HETATM    5  C5  UNL     1      -4.491  18.144  -7.232  1.00  0.00     0.026 A 
HETATM    6  C6  UNL     1      -4.712  19.053  -6.193  1.00  0.00     0.005 A 
ENDROOT
BRANCH   6   7
HETATM    7  N1  UNL     1      -4.431  20.412  -6.374  1.00  0.00    -0.303 NA
HETATM    8  H5  UNL     1      -3.455  20.603  -6.582  1.00  0.00     0.124 HD
HETATM    9  H6  UNL     1      -4.792  21.008  -5.637  1.00  0.00     0.124 HD
ENDBRANCH   6   7
BRANCH   3  10
HETATM   10  O1  UNL     1      -5.167  14.974  -5.521  1.00  0.00    -0.361 OA
HETATM   11  H7  UNL     1      -6.080  14.731  -5.741  1.00  0.00     0.217 HD
ENDBRANCH   3  10
TORSDOF 2
ENDMDL
MODEL 16
REMARK VINA RESULT:      -2.8     15.959     16.630
REMARK  2 active torsions:
REMARK  status: ('A' for Active; 'I' for Inactive)
REMARK    1  A    between atoms: C3_3  and  O1_8 
REMARK    2  A    between atoms: C6_6  and  N1_7 
ROOT
HETATM    1  C1  UNL     1       0.773  20.860   4.481  1.00  0.00     0.026 A 
HETATM    2  C2  UNL     1       1.887  20.049   4.710  1.00  0.00     0.038 A 
HETATM    3  C3  UNL     1       1.815  19.031   5.649  1.00  0.00     0.065 A 
HETATM    4  C4  UNL     1       0.638  18.799   6.353  1.00  0.00     0.038 A 
HETATM    5  C5  UNL     1      -0.472  19.615   6.120  1.00  0.00     0.026 A 
HETATM    6  C6  UNL     1      -0.400  20.684   5.220  1.00  0.00     0.005 A 
ENDROOT
BRANCH   6   7
HETATM    7  N1  UNL     1      -1.549  21.419   4.906  1.00  0.00    -0.303 NA
HETATM    8  H5  UNL     1      -1.863  21.296   3.948  1.00  0.00     0.124 HD
HETATM    9  H6  UNL     1      -1.497  22.396   5.173  1.00  0.00     0.124 HD
ENDBRANCH   6   7
BRANCH   3  10
HETATM   10  O1  UNL     1       2.922  18.260   5.842  1.00  0.00    -0.361 OA
HETATM   11  H7  UNL     1       2.962  18.003   6.777  1.00  0.00     0.217 HD
ENDBRANCH   3  10
TORSDOF 2
ENDMDL
MODEL 17
REMARK VINA RESULT:      -2.8      8.505      9.251
REMARK  2 active torsions:
REMARK  status: ('A' for Active; 'I' for Inactive)
REMARK    1  A    between atoms: C3_3  and  O1_8 
REMARK    2  A    between atoms: C6_6  and  N1_7 
ROOT
HETATM    1  C1  UNL     1      -8.966  17.084   5.244  1.00  0.00     0.026 A 
HETATM    2  C2  UNL     1      -7.891  17.235   6.123  1.00  0.00     0.038 A 
HETATM    3  C3  UNL     1      -8.103  17.144   7.491  1.00  0.00     0.065 A 
HETATM    4  C4  UNL     1      -9.374  16.888   7.995  1.00  0.00     0.038 A 
HETATM    5  C5  UNL     1     -10.445  16.739   7.109  1.00  0.00     0.026 A 
HETATM    6  C6  UNL     1     -10.262  16.885   5.730  1.00  0.00     0.005 A 
ENDROOT
BRANCH   6   7
HETATM    7  N1  UNL     1     -11.313  16.617   4.847  1.00  0.00    -0.303 NA
HETATM    8  H5  UNL     1     -11.359  15.648   4.549  1.00  0.00     0.124 HD
HETATM    9  H6  UNL     1     -11.369  17.264   4.067  1.00  0.00     0.124 HD
ENDBRANCH   6   7
BRANCH   3  10
HETATM   10  O1  UNL     1      -7.029  17.294   8.315  1.00  0.00    -0.361 OA
HETATM   11  H7  UNL     1      -7.291  17.847   9.069  1.00  0.00     0.217 HD
ENDBRANCH   3  10
TORSDOF 2
ENDMDL
MODEL 18
REMARK VINA RESULT:      -2.8     11.811     12.653
REMARK  2 active torsions:
REMARK  status: ('A' for Active; 'I' for Inactive)
REMARK    1  A    between atoms: C3_3  and  O1_8 
REMARK    2  A    between atoms: C6_6  and  N1_7 
ROOT
HETATM    1  C1  UNL     1      -5.121  17.100  -4.805  1.00  0.00     0.026 A 
HETATM    2  C2  UNL     1      -5.029  18.480  -4.994  1.00  0.00     0.038 A 
HETATM    3  C3  UNL     1      -4.776  18.986  -6.262  1.00  0.00     0.065 A 
HETATM    4  C4  UNL     1      -4.630  18.131  -7.349  1.00  0.00     0.038 A 
HETATM    5  C5  UNL     1      -4.722  16.750  -7.152  1.00  0.00     0.026 A 
HETATM    6  C6  UNL     1      -4.917  16.219  -5.872  1.00  0.00     0.005 A 
ENDROOT
BRANCH   6   7
HETATM    7  N1  UNL     1      -5.127  14.846  -5.704  1.00  0.00    -0.303 NA
HETATM    8  H5  UNL     1      -5.814  14.457  -6.341  1.00  0.00     0.124 HD
HETATM    9  H6  UNL     1      -5.293  14.571  -4.741  1.00  0.00     0.124 HD
ENDBRANCH   6   7
BRANCH   3  10
HETATM   10  O1  UNL     1      -4.697  20.339  -6.406  1.00  0.00    -0.361 OA
HETATM   11  H7  UNL     1      -4.420  20.724  -5.559  1.00  0.00     0.217 HD
ENDBRANCH   3  10
TORSDOF 2
ENDMDL
MODEL 19
REMARK VINA RESULT:      -2.7     15.291     16.037
REMARK  2 active torsions:
REMARK  status: ('A' for Active; 'I' for Inactive)
REMARK    1  A    between atoms: C3_3  and  O1_8 
REMARK    2  A    between atoms: C6_6  and  N1_7 
ROOT
HETATM    1  C1  UNL     1      -1.336  22.524   2.875  1.00  0.00     0.026 A 
HETATM    2  C2  UNL     1      -1.925  21.260   2.802  1.00  0.00     0.038 A 
HETATM    3  C3  UNL     1      -1.455  20.234   3.610  1.00  0.00     0.065 A 
HETATM    4  C4  UNL     1      -0.413  20.458   4.503  1.00  0.00     0.038 A 
HETATM    5  C5  UNL     1       0.173  21.725   4.569  1.00  0.00     0.026 A 
HETATM    6  C6  UNL     1      -0.248  22.755   3.722  1.00  0.00     0.005 A 
ENDROOT
BRANCH   6   7
HETATM    7  N1  UNL     1       0.262  24.049   3.879  1.00  0.00    -0.303 NA
HETATM    8  H5  UNL     1       0.282  24.366   4.843  1.00  0.00     0.124 HD
HETATM    9  H6  UNL     1      -0.155  24.733   3.256  1.00  0.00     0.124 HD
ENDBRANCH   6   7
BRANCH   3  10
HETATM   10  O1  UNL     1      -2.059  19.017   3.511  1.00  0.00    -0.361 OA
HETATM   11  H7  UNL     1      -1.550  18.376   4.033  1.00  0.00     0.217 HD
ENDBRANCH   3  10
TORSDOF 2
ENDMDL
MODEL 20
REMARK VINA RESULT:      -2.7      9.858     10.646
REMARK  2 active torsions:
REMARK  status: ('A' for Active; 'I' for Inactive)
REMARK    1  A    between atoms: C3_3  and  O1_8 
REMARK    2  A    between atoms: C6_6  and  N1_7 
ROOT
HETATM    1  C1  UNL     1      -8.111  19.109   7.337  1.00  0.00     0.026 A 
HETATM    2  C2  UNL     1      -8.507  19.724   6.147  1.00  0.00     0.038 A 
HETATM    3  C3  UNL     1      -8.510  18.997   4.965  1.00  0.00     0.065 A 
HETATM    4  C4  UNL     1      -8.138  17.657   4.957  1.00  0.00     0.038 A 
HETATM    5  C5  UNL     1      -7.742  17.049   6.152  1.00  0.00     0.026 A 
HETATM    6  C6  UNL     1      -7.676  17.780   7.342  1.00  0.00     0.005 A 
ENDROOT
BRANCH   6   7
HETATM    7  N1  UNL     1      -7.394  17.135   8.551  1.00  0.00    -0.303 NA
HETATM    8  H5  UNL     1      -6.790  16.325   8.450  1.00  0.00     0.124 HD
HETATM    9  H6  UNL     1      -8.216  16.936   9.112  1.00  0.00     0.124 HD
ENDBRANCH   6   7
BRANCH   3  10
HETATM   10  O1  UNL     1      -8.905  19.632   3.826  1.00  0.00    -0.361 OA
HETATM   11  H7  UNL     1      -8.649  20.566   3.887  1.00  0.00     0.217 HD
ENDBRANCH   3  10
TORSDOF 2
ENDMDL
