MODEL 1
REMARK VINA RESULT:      -5.9      0.000      0.000
REMARK  27 active torsions:
REMARK  status: ('A' for Active; 'I' for Inactive)
REMARK    1  A    between atoms: C2_2  and  S1_4 
REMARK    2  A    between atoms: S1_4  and  C3_5 
REMARK    3  A    between atoms: C3_5  and  C4_6 
REMARK    4  A    between atoms: C4_6  and  N1_7 
REMARK       I    between atoms: N1_7  and  C5_8 
REMARK    5  A    between atoms: C5_8  and  C6_10 
REMARK    6  A    between atoms: C6_10  and  C7_11 
REMARK    7  A    between atoms: C7_11  and  N2_12 
REMARK       I    between atoms: N2_12  and  C8_13 
REMARK    8  A    between atoms: C8_13  and  C9_15 
REMARK    9  A    between atoms: C9_15  and  C10_16 
REMARK   10  A    between atoms: C9_15  and  O17_54 
REMARK   11  A    between atoms: C10_16  and  C13_19 
REMARK   12  A    between atoms: C13_19  and  O4_20 
REMARK   13  A    between atoms: O4_20  and  P1_21 
REMARK   14  A    between atoms: P1_21  and  O6_23 
REMARK   15  A    between atoms: P1_21  and  O7_24 
REMARK   16  A    between atoms: O7_24  and  P2_25 
REMARK   17  A    between atoms: P2_25  and  O9_27 
REMARK   18  A    between atoms: P2_25  and  O10_28 
REMARK   19  A    between atoms: O10_28  and  C14_29 
REMARK   20  A    between atoms: C14_29  and  C15_30 
REMARK   21  A    between atoms: C16_31  and  O13_49 
REMARK   22  A    between atoms: C17_32  and  O12_48 
REMARK   23  A    between atoms: C18_33  and  N3_35 
REMARK   24  A    between atoms: C21_40  and  N7_47 
REMARK   25  A    between atoms: O13_49  and  P3_50 
REMARK   26  A    between atoms: P3_50  and  O15_52 
REMARK   27  A    between atoms: P3_50  and  O16_53 
ROOT
HETATM    1  C1  UNL     1      -4.961  20.083   1.281  1.00  0.00     0.104 C 
HETATM    2  C2  UNL     1      -5.148  18.607   1.460  1.00  0.00     0.182 C 
HETATM    3  O1  UNL     1      -4.441  17.922   2.195  1.00  0.00    -0.286 OA
ENDROOT
BRANCH   2   4
HETATM    4  S1  UNL     1      -6.447  17.919   0.495  1.00  0.00    -0.091 SA
BRANCH   4   5
HETATM    5  C3  UNL     1      -7.029  16.611   1.622  1.00  0.00     0.102 C 
BRANCH   5   6
HETATM    6  C4  UNL     1      -6.596  15.221   1.155  1.00  0.00     0.133 C 
BRANCH   6   7
HETATM    7  N1  UNL     1      -5.162  15.028   1.229  1.00  0.00    -0.360 N 
HETATM    8  C5  UNL     1      -4.609  13.953   1.886  1.00  0.00     0.219 C 
HETATM    9  O2  UNL     1      -5.283  13.144   2.513  1.00  0.00    -0.274 OA
HETATM   10  H8  UNL     1      -4.557  15.700   0.777  1.00  0.00     0.162 HD
BRANCH   8  11
HETATM   11  C6  UNL     1      -3.099  13.909   1.797  1.00  0.00     0.122 C 
BRANCH  11  12
HETATM   12  C7  UNL     1      -2.447  15.050   2.578  1.00  0.00     0.132 C 
BRANCH  12  13
HETATM   13  N2  UNL     1      -1.007  15.088   2.430  1.00  0.00    -0.358 N 
HETATM   14  C8  UNL     1      -0.236  15.819   3.315  1.00  0.00     0.247 C 
HETATM   15  O3  UNL     1      -0.732  16.545   4.167  1.00  0.00    -0.271 OA
HETATM   16  H13 UNL     1      -0.586  14.256   2.024  1.00  0.00     0.162 HD
BRANCH  14  17
HETATM   17  C9  UNL     1       1.280  15.632   3.155  1.00  0.00     0.219 C 
BRANCH  17  18
HETATM   18  C10 UNL     1       1.943  16.595   2.134  1.00  0.00     0.009 C 
HETATM   19  C11 UNL     1       3.306  17.106   2.622  1.00  0.00     0.020 C 
HETATM   20  C12 UNL     1       2.152  15.913   0.767  1.00  0.00     0.020 C 
BRANCH  18  21
HETATM   21  C13 UNL     1       0.962  17.792   1.978  1.00  0.00     0.192 C 
BRANCH  21  22
HETATM   22  O4  UNL     1       0.787  18.173   0.629  1.00  0.00    -0.296 OA
BRANCH  22  23
HETATM   23  P1  UNL     1      -0.638  18.577   0.015  1.00  0.00     0.401 P 
HETATM   24  O5  UNL     1      -0.809  20.044  -0.220  1.00  0.00    -0.631 OA
BRANCH  23  25
HETATM   25  O6  UNL     1      -1.758  17.939   0.980  1.00  0.00    -0.307 OA
HETATM   26  H23 UNL     1      -1.631  16.989   1.103  1.00  0.00     0.222 HD
ENDBRANCH  23  25
BRANCH  23  27
HETATM   27  O7  UNL     1      -0.798  17.672  -1.284  1.00  0.00    -0.195 OA
BRANCH  27  28
HETATM   28  P2  UNL     1      -1.882  18.079  -2.377  1.00  0.00     0.401 P 
HETATM   29  O8  UNL     1      -3.236  18.464  -1.877  1.00  0.00    -0.631 OA
BRANCH  28  30
HETATM   30  O9  UNL     1      -1.148  19.224  -3.214  1.00  0.00    -0.307 OA
HETATM   31  H24 UNL     1      -0.168  19.109  -3.280  1.00  0.00     0.222 HD
ENDBRANCH  28  30
BRANCH  28  32
HETATM   32  O10 UNL     1      -1.843  16.876  -3.427  1.00  0.00    -0.294 OA
BRANCH  32  33
HETATM   33  C14 UNL     1      -1.502  17.124  -4.766  1.00  0.00     0.215 C 
BRANCH  33  34
HETATM   34  C15 UNL     1      -0.800  15.863  -5.268  1.00  0.00     0.180 C 
HETATM   35  C16 UNL     1      -1.362  15.466  -6.626  1.00  0.00     0.197 C 
HETATM   36  C17 UNL     1      -1.978  14.098  -6.402  1.00  0.00     0.199 C 
HETATM   37  C18 UNL     1      -1.179  13.576  -5.205  1.00  0.00     0.262 C 
HETATM   38  O11 UNL     1      -0.960  14.746  -4.386  1.00  0.00    -0.353 OA
BRANCH  35  39
HETATM   39  O13 UNL     1      -0.284  15.424  -7.555  1.00  0.00    -0.286 OA
BRANCH  39  40
HETATM   40  P3  UNL     1      -0.258  16.603  -8.634  1.00  0.00     0.391 P 
HETATM   41  O14 UNL     1       0.191  17.917  -8.081  1.00  0.00    -0.632 OA
BRANCH  40  42
HETATM   42  O15 UNL     1      -1.748  16.513  -9.212  1.00  0.00    -0.307 OA
HETATM   43  H36 UNL     1      -1.975  15.582  -9.447  1.00  0.00     0.222 HD
ENDBRANCH  40  42
BRANCH  40  44
HETATM   44  O16 UNL     1       0.618  15.953  -9.791  1.00  0.00    -0.307 OA
HETATM   45  H37 UNL     1       0.629  14.983  -9.755  1.00  0.00     0.222 HD
ENDBRANCH  40  44
ENDBRANCH  39  40
ENDBRANCH  35  39
BRANCH  36  46
HETATM   46  O12 UNL     1      -1.931  13.330  -7.608  1.00  0.00    -0.388 OA
HETATM   47  H35 UNL     1      -2.750  13.553  -8.112  1.00  0.00     0.210 HD
ENDBRANCH  36  46
BRANCH  37  48
HETATM   48  N3  UNL     1      -1.912  12.595  -4.431  1.00  0.00    -0.297 N 
HETATM   49  C19 UNL     1      -1.702  11.236  -4.398  1.00  0.00     0.188 A 
HETATM   50  N4  UNL     1      -2.452  10.638  -3.499  1.00  0.00    -0.346 N 
HETATM   51  C20 UNL     1      -3.182  11.660  -2.917  1.00  0.00     0.116 A 
HETATM   52  H4  UNL     1      -2.489   9.643  -3.279  1.00  0.00     0.167 HD
HETATM   53  C21 UNL     1      -4.121  11.684  -1.871  1.00  0.00     0.109 A 
HETATM   54  C23 UNL     1      -2.885  12.872  -3.512  1.00  0.00     0.142 A 
HETATM   55  N5  UNL     1      -4.681  12.870  -1.530  1.00  0.00    -0.341 N 
HETATM   56  C22 UNL     1      -4.313  13.971  -2.215  1.00  0.00     0.183 A 
HETATM   57  H5  UNL     1      -5.364  12.928  -0.774  1.00  0.00     0.167 HD
HETATM   58  N6  UNL     1      -3.423  14.071  -3.223  1.00  0.00    -0.336 N 
HETATM   59  H6  UNL     1      -3.188  14.940  -3.703  1.00  0.00     0.168 HD
BRANCH  53  60
HETATM   60  N7  UNL     1      -4.514  10.553  -1.173  1.00  0.00    -0.287 NA
HETATM   61  H33 UNL     1      -5.337  10.686  -0.590  1.00  0.00     0.125 HD
HETATM   62  H34 UNL     1      -3.737  10.056  -0.758  1.00  0.00     0.125 HD
ENDBRANCH  53  60
ENDBRANCH  37  48
ENDBRANCH  33  34
ENDBRANCH  32  33
ENDBRANCH  28  32
ENDBRANCH  27  28
ENDBRANCH  23  27
ENDBRANCH  22  23
ENDBRANCH  21  22
ENDBRANCH  18  21
ENDBRANCH  17  18
BRANCH  17  63
HETATM   63  O17 UNL     1       1.933  15.791   4.419  1.00  0.00    -0.385 OA
HETATM   64  H38 UNL     1       1.267  15.679   5.118  1.00  0.00     0.210 HD
ENDBRANCH  17  63
ENDBRANCH  14  17
ENDBRANCH  12  13
ENDBRANCH  11  12
ENDBRANCH   8  11
ENDBRANCH   6   7
ENDBRANCH   5   6
ENDBRANCH   4   5
ENDBRANCH   2   4
TORSDOF 27
ENDMDL
MODEL 2
REMARK VINA RESULT:      -5.9      2.452      3.916
REMARK  27 active torsions:
REMARK  status: ('A' for Active; 'I' for Inactive)
REMARK    1  A    between atoms: C2_2  and  S1_4 
REMARK    2  A    between atoms: S1_4  and  C3_5 
REMARK    3  A    between atoms: C3_5  and  C4_6 
REMARK    4  A    between atoms: C4_6  and  N1_7 
REMARK       I    between atoms: N1_7  and  C5_8 
REMARK    5  A    between atoms: C5_8  and  C6_10 
REMARK    6  A    between atoms: C6_10  and  C7_11 
REMARK    7  A    between atoms: C7_11  and  N2_12 
REMARK       I    between atoms: N2_12  and  C8_13 
REMARK    8  A    between atoms: C8_13  and  C9_15 
REMARK    9  A    between atoms: C9_15  and  C10_16 
REMARK   10  A    between atoms: C9_15  and  O17_54 
REMARK   11  A    between atoms: C10_16  and  C13_19 
REMARK   12  A    between atoms: C13_19  and  O4_20 
REMARK   13  A    between atoms: O4_20  and  P1_21 
REMARK   14  A    between atoms: P1_21  and  O6_23 
REMARK   15  A    between atoms: P1_21  and  O7_24 
REMARK   16  A    between atoms: O7_24  and  P2_25 
REMARK   17  A    between atoms: P2_25  and  O9_27 
REMARK   18  A    between atoms: P2_25  and  O10_28 
REMARK   19  A    between atoms: O10_28  and  C14_29 
REMARK   20  A    between atoms: C14_29  and  C15_30 
REMARK   21  A    between atoms: C16_31  and  O13_49 
REMARK   22  A    between atoms: C17_32  and  O12_48 
REMARK   23  A    between atoms: C18_33  and  N3_35 
REMARK   24  A    between atoms: C21_40  and  N7_47 
REMARK   25  A    between atoms: O13_49  and  P3_50 
REMARK   26  A    between atoms: P3_50  and  O15_52 
REMARK   27  A    between atoms: P3_50  and  O16_53 
ROOT
HETATM    1  C1  UNL     1      -6.830  18.841   1.953  1.00  0.00     0.104 C 
HETATM    2  C2  UNL     1      -5.929  17.671   2.210  1.00  0.00     0.182 C 
HETATM    3  O1  UNL     1      -4.744  17.786   2.512  1.00  0.00    -0.286 OA
ENDROOT
BRANCH   2   4
HETATM    4  S1  UNL     1      -6.700  16.104   2.005  1.00  0.00    -0.091 SA
BRANCH   4   5
HETATM    5  C3  UNL     1      -6.422  15.388   3.657  1.00  0.00     0.102 C 
BRANCH   5   6
HETATM    6  C4  UNL     1      -5.226  14.435   3.672  1.00  0.00     0.133 C 
BRANCH   6   7
HETATM    7  N1  UNL     1      -3.975  15.111   3.952  1.00  0.00    -0.360 N 
HETATM    8  C5  UNL     1      -2.879  14.975   3.132  1.00  0.00     0.219 C 
HETATM    9  O2  UNL     1      -2.866  14.218   2.169  1.00  0.00    -0.274 OA
HETATM   10  H8  UNL     1      -3.915  15.703   4.769  1.00  0.00     0.162 HD
BRANCH   8  11
HETATM   11  C6  UNL     1      -1.695  15.807   3.573  1.00  0.00     0.122 C 
BRANCH  11  12
HETATM   12  C7  UNL     1      -1.088  16.595   2.413  1.00  0.00     0.132 C 
BRANCH  12  13
HETATM   13  N2  UNL     1      -2.039  16.877   1.359  1.00  0.00    -0.358 N 
HETATM   14  C8  UNL     1      -2.035  18.106   0.726  1.00  0.00     0.247 C 
HETATM   15  O3  UNL     1      -1.324  19.030   1.102  1.00  0.00    -0.271 OA
HETATM   16  H13 UNL     1      -2.336  16.072   0.810  1.00  0.00     0.162 HD
BRANCH  14  17
HETATM   17  C9  UNL     1      -2.972  18.210  -0.487  1.00  0.00     0.219 C 
BRANCH  17  18
HETATM   18  C10 UNL     1      -2.246  18.273  -1.856  1.00  0.00     0.009 C 
HETATM   19  C11 UNL     1      -2.042  19.717  -2.338  1.00  0.00     0.020 C 
HETATM   20  C12 UNL     1      -0.863  17.593  -1.794  1.00  0.00     0.020 C 
BRANCH  18  21
HETATM   21  C13 UNL     1      -3.160  17.512  -2.859  1.00  0.00     0.192 C 
BRANCH  21  22
HETATM   22  O4  UNL     1      -4.298  18.264  -3.227  1.00  0.00    -0.296 OA
BRANCH  22  23
HETATM   23  P1  UNL     1      -5.389  17.735  -4.276  1.00  0.00     0.401 P 
HETATM   24  O5  UNL     1      -6.733  18.379  -4.139  1.00  0.00    -0.631 OA
BRANCH  23  25
HETATM   25  O6  UNL     1      -5.422  16.131  -4.144  1.00  0.00    -0.307 OA
HETATM   26  H23 UNL     1      -6.252  15.816  -3.764  1.00  0.00     0.222 HD
ENDBRANCH  23  25
BRANCH  23  27
HETATM   27  O7  UNL     1      -4.709  17.914  -5.703  1.00  0.00    -0.195 OA
BRANCH  27  28
HETATM   28  P2  UNL     1      -5.288  17.095  -6.940  1.00  0.00     0.401 P 
HETATM   29  O8  UNL     1      -6.767  17.138  -7.148  1.00  0.00    -0.631 OA
BRANCH  28  30
HETATM   30  O9  UNL     1      -4.441  17.649  -8.175  1.00  0.00    -0.307 OA
HETATM   31  H24 UNL     1      -4.929  17.644  -9.034  1.00  0.00     0.222 HD
ENDBRANCH  28  30
BRANCH  28  32
HETATM   32  O10 UNL     1      -4.649  15.641  -6.774  1.00  0.00    -0.294 OA
BRANCH  32  33
HETATM   33  C14 UNL     1      -3.331  15.401  -7.195  1.00  0.00     0.215 C 
BRANCH  33  34
HETATM   34  C15 UNL     1      -2.478  15.368  -5.928  1.00  0.00     0.180 C 
HETATM   35  C16 UNL     1      -1.188  14.604  -6.195  1.00  0.00     0.197 C 
HETATM   36  C17 UNL     1      -1.244  13.414  -5.256  1.00  0.00     0.199 C 
HETATM   37  C18 UNL     1      -2.158  13.927  -4.140  1.00  0.00     0.262 C 
HETATM   38  O11 UNL     1      -3.139  14.736  -4.825  1.00  0.00    -0.353 OA
BRANCH  35  39
HETATM   39  O13 UNL     1      -0.095  15.468  -5.902  1.00  0.00    -0.286 OA
BRANCH  39  40
HETATM   40  P3  UNL     1       0.911  15.742  -7.114  1.00  0.00     0.391 P 
HETATM   41  O14 UNL     1       1.540  17.098  -7.080  1.00  0.00    -0.632 OA
BRANCH  40  42
HETATM   42  O15 UNL     1      -0.022  15.389  -8.364  1.00  0.00    -0.307 OA
HETATM   43  H36 UNL     1       0.500  14.949  -9.076  1.00  0.00     0.222 HD
ENDBRANCH  40  42
BRANCH  40  44
HETATM   44  O16 UNL     1       1.875  14.481  -7.014  1.00  0.00    -0.307 OA
HETATM   45  H37 UNL     1       1.988  14.165  -6.104  1.00  0.00     0.222 HD
ENDBRANCH  40  44
ENDBRANCH  39  40
ENDBRANCH  35  39
BRANCH  36  46
HETATM   46  O12 UNL     1       0.077  13.009  -4.889  1.00  0.00    -0.388 OA
HETATM   47  H35 UNL     1       0.616  13.835  -4.835  1.00  0.00     0.210 HD
ENDBRANCH  36  46
BRANCH  37  48
HETATM   48  N3  UNL     1      -2.841  12.855  -3.444  1.00  0.00    -0.297 N 
HETATM   49  C19 UNL     1      -2.611  11.504  -3.567  1.00  0.00     0.188 A 
HETATM   50  N4  UNL     1      -3.310  10.799  -2.705  1.00  0.00    -0.346 N 
HETATM   51  C20 UNL     1      -4.026  11.738  -1.985  1.00  0.00     0.116 A 
HETATM   52  H4  UNL     1      -3.323   9.785  -2.593  1.00  0.00     0.167 HD
HETATM   53  C21 UNL     1      -4.917  11.633  -0.902  1.00  0.00     0.109 A 
HETATM   54  C23 UNL     1      -3.775  13.013  -2.459  1.00  0.00     0.142 A 
HETATM   55  N5  UNL     1      -5.478  12.765  -0.411  1.00  0.00    -0.341 N 
HETATM   56  C22 UNL     1      -5.157  13.939  -0.990  1.00  0.00     0.183 A 
HETATM   57  H5  UNL     1      -6.126  12.728   0.376  1.00  0.00     0.167 HD
HETATM   58  N6  UNL     1      -4.316  14.163  -2.019  1.00  0.00    -0.336 N 
HETATM   59  H6  UNL     1      -4.115  15.083  -2.413  1.00  0.00     0.168 HD
BRANCH  53  60
HETATM   60  N7  UNL     1      -5.261  10.427  -0.314  1.00  0.00    -0.287 NA
HETATM   61  H33 UNL     1      -4.929   9.606  -0.815  1.00  0.00     0.125 HD
HETATM   62  H34 UNL     1      -6.219  10.405   0.011  1.00  0.00     0.125 HD
ENDBRANCH  53  60
ENDBRANCH  37  48
ENDBRANCH  33  34
ENDBRANCH  32  33
ENDBRANCH  28  32
ENDBRANCH  27  28
ENDBRANCH  23  27
ENDBRANCH  22  23
ENDBRANCH  21  22
ENDBRANCH  18  21
ENDBRANCH  17  18
BRANCH  17  63
HETATM   63  O17 UNL     1      -3.880  17.104  -0.504  1.00  0.00    -0.385 OA
HETATM   64  H38 UNL     1      -4.494  17.229  -1.248  1.00  0.00     0.210 HD
ENDBRANCH  17  63
ENDBRANCH  14  17
ENDBRANCH  12  13
ENDBRANCH  11  12
ENDBRANCH   8  11
ENDBRANCH   6   7
ENDBRANCH   5   6
ENDBRANCH   4   5
ENDBRANCH   2   4
TORSDOF 27
ENDMDL
MODEL 3
REMARK VINA RESULT:      -5.8      3.500      9.239
REMARK  27 active torsions:
REMARK  status: ('A' for Active; 'I' for Inactive)
REMARK    1  A    between atoms: C2_2  and  S1_4 
REMARK    2  A    between atoms: S1_4  and  C3_5 
REMARK    3  A    between atoms: C3_5  and  C4_6 
REMARK    4  A    between atoms: C4_6  and  N1_7 
REMARK       I    between atoms: N1_7  and  C5_8 
REMARK    5  A    between atoms: C5_8  and  C6_10 
REMARK    6  A    between atoms: C6_10  and  C7_11 
REMARK    7  A    between atoms: C7_11  and  N2_12 
REMARK       I    between atoms: N2_12  and  C8_13 
REMARK    8  A    between atoms: C8_13  and  C9_15 
REMARK    9  A    between atoms: C9_15  and  C10_16 
REMARK   10  A    between atoms: C9_15  and  O17_54 
REMARK   11  A    between atoms: C10_16  and  C13_19 
REMARK   12  A    between atoms: C13_19  and  O4_20 
REMARK   13  A    between atoms: O4_20  and  P1_21 
REMARK   14  A    between atoms: P1_21  and  O6_23 
REMARK   15  A    between atoms: P1_21  and  O7_24 
REMARK   16  A    between atoms: O7_24  and  P2_25 
REMARK   17  A    between atoms: P2_25  and  O9_27 
REMARK   18  A    between atoms: P2_25  and  O10_28 
REMARK   19  A    between atoms: O10_28  and  C14_29 
REMARK   20  A    between atoms: C14_29  and  C15_30 
REMARK   21  A    between atoms: C16_31  and  O13_49 
REMARK   22  A    between atoms: C17_32  and  O12_48 
REMARK   23  A    between atoms: C18_33  and  N3_35 
REMARK   24  A    between atoms: C21_40  and  N7_47 
REMARK   25  A    between atoms: O13_49  and  P3_50 
REMARK   26  A    between atoms: P3_50  and  O15_52 
REMARK   27  A    between atoms: P3_50  and  O16_53 
ROOT
HETATM    1  C1  UNL     1      -1.512  21.657  -2.888  1.00  0.00     0.104 C 
HETATM    2  C2  UNL     1      -1.403  20.164  -2.842  1.00  0.00     0.182 C 
HETATM    3  O1  UNL     1      -1.102  19.540  -1.827  1.00  0.00    -0.286 OA
ENDROOT
BRANCH   2   4
HETATM    4  S1  UNL     1      -1.702  19.367  -4.381  1.00  0.00    -0.091 SA
BRANCH   4   5
HETATM    5  C3  UNL     1      -0.535  20.273  -5.447  1.00  0.00     0.102 C 
BRANCH   5   6
HETATM    6  C4  UNL     1      -0.498  19.703  -6.866  1.00  0.00     0.133 C 
BRANCH   6   7
HETATM    7  N1  UNL     1       0.118  18.393  -6.926  1.00  0.00    -0.360 N 
HETATM    8  C5  UNL     1       1.221  18.148  -7.711  1.00  0.00     0.219 C 
HETATM    9  O2  UNL     1       1.697  18.991  -8.462  1.00  0.00    -0.274 OA
HETATM   10  H8  UNL     1      -0.273  17.645  -6.369  1.00  0.00     0.162 HD
BRANCH   8  11
HETATM   11  C6  UNL     1       1.741  16.732  -7.587  1.00  0.00     0.122 C 
BRANCH  11  12
HETATM   12  C7  UNL     1       0.666  15.698  -7.919  1.00  0.00     0.132 C 
BRANCH  12  13
HETATM   13  N2  UNL     1       0.482  14.715  -6.872  1.00  0.00    -0.358 N 
HETATM   14  C8  UNL     1      -0.518  14.877  -5.931  1.00  0.00     0.247 C 
HETATM   15  O3  UNL     1      -1.197  15.894  -5.871  1.00  0.00    -0.271 OA
HETATM   16  H13 UNL     1       0.740  13.761  -7.116  1.00  0.00     0.162 HD
BRANCH  14  17
HETATM   17  C9  UNL     1      -0.717  13.680  -4.989  1.00  0.00     0.219 C 
BRANCH  17  18
HETATM   18  C10 UNL     1      -1.958  12.807  -5.313  1.00  0.00     0.009 C 
HETATM   19  C11 UNL     1      -2.243  12.744  -6.821  1.00  0.00     0.020 C 
HETATM   20  C12 UNL     1      -1.782  11.363  -4.801  1.00  0.00     0.020 C 
BRANCH  18  21
HETATM   21  C13 UNL     1      -3.156  13.481  -4.583  1.00  0.00     0.192 C 
BRANCH  21  22
HETATM   22  O4  UNL     1      -3.054  13.382  -3.177  1.00  0.00    -0.296 OA
BRANCH  22  23
HETATM   23  P1  UNL     1      -4.166  12.663  -2.272  1.00  0.00     0.401 P 
HETATM   24  O5  UNL     1      -4.096  11.169  -2.288  1.00  0.00    -0.631 OA
BRANCH  23  25
HETATM   25  O6  UNL     1      -5.592  13.252  -2.732  1.00  0.00    -0.307 OA
HETATM   26  H23 UNL     1      -5.620  13.432  -3.681  1.00  0.00     0.222 HD
ENDBRANCH  23  25
BRANCH  23  27
HETATM   27  O7  UNL     1      -4.011  13.320  -0.831  1.00  0.00    -0.195 OA
BRANCH  27  28
HETATM   28  P2  UNL     1      -4.977  12.842   0.341  1.00  0.00     0.401 P 
HETATM   29  O8  UNL     1      -6.446  12.975   0.105  1.00  0.00    -0.631 OA
BRANCH  28  30
HETATM   30  O9  UNL     1      -4.496  11.346   0.625  1.00  0.00    -0.307 OA
HETATM   31  H24 UNL     1      -3.515  11.226   0.602  1.00  0.00     0.222 HD
ENDBRANCH  28  30
BRANCH  28  32
HETATM   32  O10 UNL     1      -4.408  13.583   1.637  1.00  0.00    -0.294 OA
BRANCH  32  33
HETATM   33  C14 UNL     1      -3.025  13.763   1.793  1.00  0.00     0.215 C 
BRANCH  33  34
HETATM   34  C15 UNL     1      -2.834  15.191   2.301  1.00  0.00     0.180 C 
HETATM   35  C16 UNL     1      -2.863  16.163   1.129  1.00  0.00     0.197 C 
HETATM   36  C17 UNL     1      -1.490  16.806   1.130  1.00  0.00     0.199 C 
HETATM   37  C18 UNL     1      -1.066  16.662   2.593  1.00  0.00     0.262 C 
HETATM   38  O11 UNL     1      -1.594  15.377   2.992  1.00  0.00    -0.353 OA
BRANCH  35  39
HETATM   39  O13 UNL     1      -3.900  17.110   1.367  1.00  0.00    -0.286 OA
BRANCH  39  40
HETATM   40  P3  UNL     1      -5.109  17.085   0.322  1.00  0.00     0.391 P 
HETATM   41  O14 UNL     1      -5.665  18.437   0.011  1.00  0.00    -0.632 OA
BRANCH  40  42
HETATM   42  O15 UNL     1      -6.084  16.025   1.017  1.00  0.00    -0.307 OA
HETATM   43  H36 UNL     1      -7.028  16.279   0.883  1.00  0.00     0.222 HD
ENDBRANCH  40  42
BRANCH  40  44
HETATM   44  O16 UNL     1      -4.472  16.258  -0.878  1.00  0.00    -0.307 OA
HETATM   45  H37 UNL     1      -4.707  16.615  -1.748  1.00  0.00     0.222 HD
ENDBRANCH  40  44
ENDBRANCH  39  40
ENDBRANCH  35  39
BRANCH  36  46
HETATM   46  O12 UNL     1      -1.562  18.131   0.595  1.00  0.00    -0.388 OA
HETATM   47  H35 UNL     1      -2.344  18.559   1.018  1.00  0.00     0.210 HD
ENDBRANCH  36  46
BRANCH  37  48
HETATM   48  N3  UNL     1       0.374  16.645   2.756  1.00  0.00    -0.297 N 
HETATM   49  C19 UNL     1       1.172  15.548   2.988  1.00  0.00     0.188 A 
HETATM   50  N4  UNL     1       2.452  15.848   2.961  1.00  0.00    -0.346 N 
HETATM   51  C20 UNL     1       2.487  17.205   2.694  1.00  0.00     0.116 A 
HETATM   52  H4  UNL     1       3.243  15.221   3.105  1.00  0.00     0.167 HD
HETATM   53  C21 UNL     1       3.543  18.111   2.499  1.00  0.00     0.109 A 
HETATM   54  C23 UNL     1       1.206  17.719   2.604  1.00  0.00     0.142 A 
HETATM   55  N5  UNL     1       3.247  19.412   2.258  1.00  0.00    -0.341 N 
HETATM   56  C22 UNL     1       1.950  19.775   2.222  1.00  0.00     0.183 A 
HETATM   57  H5  UNL     1       3.987  20.098   2.109  1.00  0.00     0.167 HD
HETATM   58  N6  UNL     1       0.858  18.999   2.384  1.00  0.00    -0.336 N 
HETATM   59  H6  UNL     1      -0.103  19.338   2.344  1.00  0.00     0.168 HD
BRANCH  53  60
HETATM   60  N7  UNL     1       4.879  17.746   2.551  1.00  0.00    -0.287 NA
HETATM   61  H33 UNL     1       5.525  18.529   2.634  1.00  0.00     0.125 HD
HETATM   62  H34 UNL     1       5.119  17.029   1.879  1.00  0.00     0.125 HD
ENDBRANCH  53  60
ENDBRANCH  37  48
ENDBRANCH  33  34
ENDBRANCH  32  33
ENDBRANCH  28  32
ENDBRANCH  27  28
ENDBRANCH  23  27
ENDBRANCH  22  23
ENDBRANCH  21  22
ENDBRANCH  18  21
ENDBRANCH  17  18
BRANCH  17  63
HETATM   63  O17 UNL     1       0.444  12.843  -5.004  1.00  0.00    -0.385 OA
HETATM   64  H38 UNL     1       1.120  13.254  -4.439  1.00  0.00     0.210 HD
ENDBRANCH  17  63
ENDBRANCH  14  17
ENDBRANCH  12  13
ENDBRANCH  11  12
ENDBRANCH   8  11
ENDBRANCH   6   7
ENDBRANCH   5   6
ENDBRANCH   4   5
ENDBRANCH   2   4
TORSDOF 27
ENDMDL
MODEL 4
REMARK VINA RESULT:      -5.7      2.546      4.466
REMARK  27 active torsions:
REMARK  status: ('A' for Active; 'I' for Inactive)
REMARK    1  A    between atoms: C2_2  and  S1_4 
REMARK    2  A    between atoms: S1_4  and  C3_5 
REMARK    3  A    between atoms: C3_5  and  C4_6 
REMARK    4  A    between atoms: C4_6  and  N1_7 
REMARK       I    between atoms: N1_7  and  C5_8 
REMARK    5  A    between atoms: C5_8  and  C6_10 
REMARK    6  A    between atoms: C6_10  and  C7_11 
REMARK    7  A    between atoms: C7_11  and  N2_12 
REMARK       I    between atoms: N2_12  and  C8_13 
REMARK    8  A    between atoms: C8_13  and  C9_15 
REMARK    9  A    between atoms: C9_15  and  C10_16 
REMARK   10  A    between atoms: C9_15  and  O17_54 
REMARK   11  A    between atoms: C10_16  and  C13_19 
REMARK   12  A    between atoms: C13_19  and  O4_20 
REMARK   13  A    between atoms: O4_20  and  P1_21 
REMARK   14  A    between atoms: P1_21  and  O6_23 
REMARK   15  A    between atoms: P1_21  and  O7_24 
REMARK   16  A    between atoms: O7_24  and  P2_25 
REMARK   17  A    between atoms: P2_25  and  O9_27 
REMARK   18  A    between atoms: P2_25  and  O10_28 
REMARK   19  A    between atoms: O10_28  and  C14_29 
REMARK   20  A    between atoms: C14_29  and  C15_30 
REMARK   21  A    between atoms: C16_31  and  O13_49 
REMARK   22  A    between atoms: C17_32  and  O12_48 
REMARK   23  A    between atoms: C18_33  and  N3_35 
REMARK   24  A    between atoms: C21_40  and  N7_47 
REMARK   25  A    between atoms: O13_49  and  P3_50 
REMARK   26  A    between atoms: P3_50  and  O15_52 
REMARK   27  A    between atoms: P3_50  and  O16_53 
ROOT
HETATM    1  C1  UNL     1      -6.428  19.513   1.923  1.00  0.00     0.104 C 
HETATM    2  C2  UNL     1      -6.328  18.019   1.874  1.00  0.00     0.182 C 
HETATM    3  O1  UNL     1      -5.785  17.408   0.956  1.00  0.00    -0.286 OA
ENDROOT
BRANCH   2   4
HETATM    4  S1  UNL     1      -7.091  17.197   3.228  1.00  0.00    -0.091 SA
BRANCH   4   5
HETATM    5  C3  UNL     1      -7.531  15.614   2.440  1.00  0.00     0.102 C 
BRANCH   5   6
HETATM    6  C4  UNL     1      -6.540  14.504   2.797  1.00  0.00     0.133 C 
BRANCH   6   7
HETATM    7  N1  UNL     1      -5.356  14.522   1.963  1.00  0.00    -0.360 N 
HETATM    8  C5  UNL     1      -4.109  14.787   2.482  1.00  0.00     0.219 C 
HETATM    9  O2  UNL     1      -3.935  15.100   3.654  1.00  0.00    -0.274 OA
HETATM   10  H8  UNL     1      -5.453  14.328   0.976  1.00  0.00     0.162 HD
BRANCH   8  11
HETATM   11  C6  UNL     1      -3.002  14.701   1.454  1.00  0.00     0.122 C 
BRANCH  11  12
HETATM   12  C7  UNL     1      -1.618  14.754   2.099  1.00  0.00     0.132 C 
BRANCH  12  13
HETATM   13  N2  UNL     1      -1.165  16.103   2.362  1.00  0.00    -0.358 N 
HETATM   14  C8  UNL     1       0.085  16.324   2.911  1.00  0.00     0.247 C 
HETATM   15  O3  UNL     1       0.797  15.407   3.300  1.00  0.00    -0.271 OA
HETATM   16  H13 UNL     1      -1.532  16.818   1.738  1.00  0.00     0.162 HD
BRANCH  14  17
HETATM   17  C9  UNL     1       0.510  17.799   2.972  1.00  0.00     0.219 C 
BRANCH  17  18
HETATM   18  C10 UNL     1       1.191  18.326   1.682  1.00  0.00     0.009 C 
HETATM   19  C11 UNL     1       2.470  19.120   1.986  1.00  0.00     0.020 C 
HETATM   20  C12 UNL     1       1.564  17.173   0.728  1.00  0.00     0.020 C 
BRANCH  18  21
HETATM   21  C13 UNL     1       0.148  19.256   0.999  1.00  0.00     0.192 C 
BRANCH  21  22
HETATM   22  O4  UNL     1      -0.788  18.536   0.223  1.00  0.00    -0.296 OA
BRANCH  22  23
HETATM   23  P1  UNL     1      -2.345  18.916   0.162  1.00  0.00     0.401 P 
HETATM   24  O5  UNL     1      -2.613  20.388   0.117  1.00  0.00    -0.631 OA
BRANCH  23  25
HETATM   25  O6  UNL     1      -3.056  18.163   1.394  1.00  0.00    -0.307 OA
HETATM   26  H23 UNL     1      -3.803  18.667   1.743  1.00  0.00     0.222 HD
ENDBRANCH  23  25
BRANCH  23  27
HETATM   27  O7  UNL     1      -2.920  18.098  -1.075  1.00  0.00    -0.195 OA
BRANCH  27  28
HETATM   28  P2  UNL     1      -2.175  18.200  -2.480  1.00  0.00     0.401 P 
HETATM   29  O8  UNL     1      -1.989  19.569  -3.048  1.00  0.00    -0.631 OA
BRANCH  28  30
HETATM   30  O9  UNL     1      -0.812  17.408  -2.231  1.00  0.00    -0.307 OA
HETATM   31  H24 UNL     1      -0.077  17.969  -1.882  1.00  0.00     0.222 HD
ENDBRANCH  28  30
BRANCH  28  32
HETATM   32  O10 UNL     1      -2.955  17.160  -3.407  1.00  0.00    -0.294 OA
BRANCH  32  33
HETATM   33  C14 UNL     1      -4.280  16.808  -3.108  1.00  0.00     0.215 C 
BRANCH  33  34
HETATM   34  C15 UNL     1      -4.533  15.469  -3.797  1.00  0.00     0.180 C 
HETATM   35  C16 UNL     1      -4.802  14.394  -2.753  1.00  0.00     0.197 C 
HETATM   36  C17 UNL     1      -3.677  13.393  -2.932  1.00  0.00     0.199 C 
HETATM   37  C18 UNL     1      -3.281  13.610  -4.395  1.00  0.00     0.262 C 
HETATM   38  O11 UNL     1      -3.426  15.034  -4.595  1.00  0.00    -0.353 OA
BRANCH  35  39
HETATM   39  O13 UNL     1      -6.078  13.823  -3.026  1.00  0.00    -0.286 OA
BRANCH  39  40
HETATM   40  P3  UNL     1      -7.131  13.882  -1.825  1.00  0.00     0.391 P 
HETATM   41  O14 UNL     1      -8.553  13.972  -2.275  1.00  0.00    -0.632 OA
BRANCH  40  42
HETATM   42  O15 UNL     1      -6.545  15.103  -0.973  1.00  0.00    -0.307 OA
HETATM   43  H36 UNL     1      -6.720  14.972  -0.011  1.00  0.00     0.222 HD
ENDBRANCH  40  42
BRANCH  40  44
HETATM   44  O16 UNL     1      -6.708  12.609  -0.972  1.00  0.00    -0.307 OA
HETATM   45  H37 UNL     1      -7.468  12.076  -0.689  1.00  0.00     0.222 HD
ENDBRANCH  40  44
ENDBRANCH  39  40
ENDBRANCH  35  39
BRANCH  36  46
HETATM   46  O12 UNL     1      -4.114  12.083  -2.558  1.00  0.00    -0.388 OA
HETATM   47  H35 UNL     1      -4.222  12.097  -1.577  1.00  0.00     0.210 HD
ENDBRANCH  36  46
BRANCH  37  48
HETATM   48  N3  UNL     1      -1.906  13.239  -4.660  1.00  0.00    -0.297 N 
HETATM   49  C19 UNL     1      -1.334  11.998  -4.502  1.00  0.00     0.188 A 
HETATM   50  N4  UNL     1      -0.099  11.957  -4.950  1.00  0.00    -0.346 N 
HETATM   51  C20 UNL     1       0.141  13.234  -5.428  1.00  0.00     0.116 A 
HETATM   52  H4  UNL     1       0.540  11.163  -4.947  1.00  0.00     0.167 HD
HETATM   53  C21 UNL     1       1.249  13.820  -6.065  1.00  0.00     0.109 A 
HETATM   54  C23 UNL     1      -0.956  14.049  -5.218  1.00  0.00     0.142 A 
HETATM   55  N5  UNL     1       1.180  15.129  -6.411  1.00  0.00    -0.341 N 
HETATM   56  C22 UNL     1       0.052  15.807  -6.122  1.00  0.00     0.183 A 
HETATM   57  H5  UNL     1       1.962  15.588  -6.878  1.00  0.00     0.167 HD
HETATM   58  N6  UNL     1      -1.070  15.353  -5.527  1.00  0.00    -0.336 N 
HETATM   59  H6  UNL     1      -1.895  15.922  -5.336  1.00  0.00     0.168 HD
BRANCH  53  60
HETATM   60  N7  UNL     1       2.417  13.131  -6.350  1.00  0.00    -0.287 NA
HETATM   61  H33 UNL     1       3.269  13.644  -6.133  1.00  0.00     0.125 HD
HETATM   62  H34 UNL     1       2.386  12.655  -7.241  1.00  0.00     0.125 HD
ENDBRANCH  53  60
ENDBRANCH  37  48
ENDBRANCH  33  34
ENDBRANCH  32  33
ENDBRANCH  28  32
ENDBRANCH  27  28
ENDBRANCH  23  27
ENDBRANCH  22  23
ENDBRANCH  21  22
ENDBRANCH  18  21
ENDBRANCH  17  18
BRANCH  17  63
HETATM   63  O17 UNL     1      -0.622  18.626   3.260  1.00  0.00    -0.385 OA
HETATM   64  H38 UNL     1      -0.448  19.512   2.899  1.00  0.00     0.210 HD
ENDBRANCH  17  63
ENDBRANCH  14  17
ENDBRANCH  12  13
ENDBRANCH  11  12
ENDBRANCH   8  11
ENDBRANCH   6   7
ENDBRANCH   5   6
ENDBRANCH   4   5
ENDBRANCH   2   4
TORSDOF 27
ENDMDL
MODEL 5
REMARK VINA RESULT:      -5.7      3.294      8.400
REMARK  27 active torsions:
REMARK  status: ('A' for Active; 'I' for Inactive)
REMARK    1  A    between atoms: C2_2  and  S1_4 
REMARK    2  A    between atoms: S1_4  and  C3_5 
REMARK    3  A    between atoms: C3_5  and  C4_6 
REMARK    4  A    between atoms: C4_6  and  N1_7 
REMARK       I    between atoms: N1_7  and  C5_8 
REMARK    5  A    between atoms: C5_8  and  C6_10 
REMARK    6  A    between atoms: C6_10  and  C7_11 
REMARK    7  A    between atoms: C7_11  and  N2_12 
REMARK       I    between atoms: N2_12  and  C8_13 
REMARK    8  A    between atoms: C8_13  and  C9_15 
REMARK    9  A    between atoms: C9_15  and  C10_16 
REMARK   10  A    between atoms: C9_15  and  O17_54 
REMARK   11  A    between atoms: C10_16  and  C13_19 
REMARK   12  A    between atoms: C13_19  and  O4_20 
REMARK   13  A    between atoms: O4_20  and  P1_21 
REMARK   14  A    between atoms: P1_21  and  O6_23 
REMARK   15  A    between atoms: P1_21  and  O7_24 
REMARK   16  A    between atoms: O7_24  and  P2_25 
REMARK   17  A    between atoms: P2_25  and  O9_27 
REMARK   18  A    between atoms: P2_25  and  O10_28 
REMARK   19  A    between atoms: O10_28  and  C14_29 
REMARK   20  A    between atoms: C14_29  and  C15_30 
REMARK   21  A    between atoms: C16_31  and  O13_49 
REMARK   22  A    between atoms: C17_32  and  O12_48 
REMARK   23  A    between atoms: C18_33  and  N3_35 
REMARK   24  A    between atoms: C21_40  and  N7_47 
REMARK   25  A    between atoms: O13_49  and  P3_50 
REMARK   26  A    between atoms: P3_50  and  O15_52 
REMARK   27  A    between atoms: P3_50  and  O16_53 
ROOT
HETATM    1  C1  UNL     1      -1.474  21.232  -2.918  1.00  0.00     0.104 C 
HETATM    2  C2  UNL     1      -1.337  20.002  -2.075  1.00  0.00     0.182 C 
HETATM    3  O1  UNL     1      -1.155  18.880  -2.544  1.00  0.00    -0.286 OA
ENDROOT
BRANCH   2   4
HETATM    4  S1  UNL     1      -1.496  20.285  -0.347  1.00  0.00    -0.091 SA
BRANCH   4   5
HETATM    5  C3  UNL     1      -2.975  21.349  -0.329  1.00  0.00     0.102 C 
BRANCH   5   6
HETATM    6  C4  UNL     1      -4.264  20.531  -0.239  1.00  0.00     0.133 C 
BRANCH   6   7
HETATM    7  N1  UNL     1      -4.705  20.039  -1.529  1.00  0.00    -0.360 N 
HETATM    8  C5  UNL     1      -4.671  18.700  -1.843  1.00  0.00     0.219 C 
HETATM    9  O2  UNL     1      -4.196  17.858  -1.090  1.00  0.00    -0.274 OA
HETATM   10  H8  UNL     1      -5.053  20.701  -2.209  1.00  0.00     0.162 HD
BRANCH   8  11
HETATM   11  C6  UNL     1      -5.227  18.393  -3.216  1.00  0.00     0.122 C 
BRANCH  11  12
HETATM   12  C7  UNL     1      -4.120  18.110  -4.230  1.00  0.00     0.132 C 
BRANCH  12  13
HETATM   13  N2  UNL     1      -3.424  16.865  -3.978  1.00  0.00    -0.358 N 
HETATM   14  C8  UNL     1      -2.270  16.559  -4.675  1.00  0.00     0.247 C 
HETATM   15  O3  UNL     1      -1.862  17.253  -5.597  1.00  0.00    -0.271 OA
HETATM   16  H13 UNL     1      -3.507  16.501  -3.031  1.00  0.00     0.162 HD
BRANCH  14  17
HETATM   17  C9  UNL     1      -1.538  15.299  -4.187  1.00  0.00     0.219 C 
BRANCH  17  18
HETATM   18  C10 UNL     1      -1.847  14.019  -5.006  1.00  0.00     0.009 C 
HETATM   19  C11 UNL     1      -2.512  14.340  -6.353  1.00  0.00     0.020 C 
HETATM   20  C12 UNL     1      -0.567  13.207  -5.290  1.00  0.00     0.020 C 
BRANCH  18  21
HETATM   21  C13 UNL     1      -2.819  13.176  -4.132  1.00  0.00     0.192 C 
BRANCH  21  22
HETATM   22  O4  UNL     1      -3.300  13.897  -3.015  1.00  0.00    -0.296 OA
BRANCH  22  23
HETATM   23  P1  UNL     1      -4.832  13.853  -2.544  1.00  0.00     0.401 P 
HETATM   24  O5  UNL     1      -5.812  13.686  -3.662  1.00  0.00    -0.631 OA
BRANCH  23  25
HETATM   25  O6  UNL     1      -5.082  15.169  -1.651  1.00  0.00    -0.307 OA
HETATM   26  H23 UNL     1      -5.778  15.034  -0.995  1.00  0.00     0.222 HD
ENDBRANCH  23  25
BRANCH  23  27
HETATM   27  O7  UNL     1      -4.888  12.713  -1.435  1.00  0.00    -0.195 OA
BRANCH  27  28
HETATM   28  P2  UNL     1      -6.048  12.757  -0.344  1.00  0.00     0.401 P 
HETATM   29  O8  UNL     1      -7.375  13.282  -0.787  1.00  0.00    -0.631 OA
BRANCH  28  30
HETATM   30  O9  UNL     1      -6.092  11.258   0.205  1.00  0.00    -0.307 OA
HETATM   31  H24 UNL     1      -5.372  10.679  -0.145  1.00  0.00     0.222 HD
ENDBRANCH  28  30
BRANCH  28  32
HETATM   32  O10 UNL     1      -5.382  13.506   0.899  1.00  0.00    -0.294 OA
BRANCH  32  33
HETATM   33  C14 UNL     1      -4.018  13.328   1.177  1.00  0.00     0.215 C 
BRANCH  33  34
HETATM   34  C15 UNL     1      -3.657  14.373   2.231  1.00  0.00     0.180 C 
HETATM   35  C16 UNL     1      -4.030  15.762   1.730  1.00  0.00     0.197 C 
HETATM   36  C17 UNL     1      -2.713  16.511   1.657  1.00  0.00     0.199 C 
HETATM   37  C18 UNL     1      -1.861  15.767   2.689  1.00  0.00     0.262 C 
HETATM   38  O11 UNL     1      -2.261  14.386   2.551  1.00  0.00    -0.353 OA
BRANCH  35  39
HETATM   39  O13 UNL     1      -4.928  16.344   2.669  1.00  0.00    -0.286 OA
BRANCH  39  40
HETATM   40  P3  UNL     1      -6.302  16.892   2.062  1.00  0.00     0.391 P 
HETATM   41  O14 UNL     1      -7.509  16.492   2.847  1.00  0.00    -0.632 OA
BRANCH  40  42
HETATM   42  O15 UNL     1      -6.192  16.368   0.554  1.00  0.00    -0.307 OA
HETATM   43  H36 UNL     1      -6.342  15.394   0.511  1.00  0.00     0.222 HD
ENDBRANCH  40  42
BRANCH  40  44
HETATM   44  O16 UNL     1      -5.990  18.445   1.929  1.00  0.00    -0.307 OA
HETATM   45  H37 UNL     1      -5.198  18.714   2.421  1.00  0.00     0.222 HD
ENDBRANCH  40  44
ENDBRANCH  39  40
ENDBRANCH  35  39
BRANCH  36  46
HETATM   46  O12 UNL     1      -2.926  17.910   1.867  1.00  0.00    -0.388 OA
HETATM   47  H35 UNL     1      -3.829  18.108   1.521  1.00  0.00     0.210 HD
ENDBRANCH  36  46
BRANCH  37  48
HETATM   48  N3  UNL     1      -0.442  15.871   2.417  1.00  0.00    -0.297 N 
HETATM   49  C19 UNL     1       0.408  14.858   2.035  1.00  0.00     0.188 A 
HETATM   50  N4  UNL     1       1.611  15.301   1.742  1.00  0.00    -0.346 N 
HETATM   51  C20 UNL     1       1.537  16.669   1.939  1.00  0.00     0.116 A 
HETATM   52  H4  UNL     1       2.419  14.758   1.438  1.00  0.00     0.167 HD
HETATM   53  C21 UNL     1       2.466  17.709   1.759  1.00  0.00     0.109 A 
HETATM   54  C23 UNL     1       0.282  17.030   2.394  1.00  0.00     0.142 A 
HETATM   55  N5  UNL     1       2.086  18.976   2.055  1.00  0.00    -0.341 N 
HETATM   56  C22 UNL     1       0.835  19.176   2.514  1.00  0.00     0.183 A 
HETATM   57  H5  UNL     1       2.731  19.756   1.934  1.00  0.00     0.167 HD
HETATM   58  N6  UNL     1      -0.139  18.266   2.718  1.00  0.00    -0.336 N 
HETATM   59  H6  UNL     1      -1.071  18.485   3.070  1.00  0.00     0.168 HD
BRANCH  53  60
HETATM   60  N7  UNL     1       3.758  17.506   1.301  1.00  0.00    -0.287 NA
HETATM   61  H33 UNL     1       3.856  17.549   0.289  1.00  0.00     0.125 HD
HETATM   62  H34 UNL     1       4.228  16.745   1.772  1.00  0.00     0.125 HD
ENDBRANCH  53  60
ENDBRANCH  37  48
ENDBRANCH  33  34
ENDBRANCH  32  33
ENDBRANCH  28  32
ENDBRANCH  27  28
ENDBRANCH  23  27
ENDBRANCH  22  23
ENDBRANCH  21  22
ENDBRANCH  18  21
ENDBRANCH  17  18
BRANCH  17  63
HETATM   63  O17 UNL     1      -0.123  15.516  -4.199  1.00  0.00    -0.385 OA
HETATM   64  H38 UNL     1       0.067  16.237  -4.821  1.00  0.00     0.210 HD
ENDBRANCH  17  63
ENDBRANCH  14  17
ENDBRANCH  12  13
ENDBRANCH  11  12
ENDBRANCH   8  11
ENDBRANCH   6   7
ENDBRANCH   5   6
ENDBRANCH   4   5
ENDBRANCH   2   4
TORSDOF 27
ENDMDL
MODEL 6
REMARK VINA RESULT:      -5.7      2.699      5.273
REMARK  27 active torsions:
REMARK  status: ('A' for Active; 'I' for Inactive)
REMARK    1  A    between atoms: C2_2  and  S1_4 
REMARK    2  A    between atoms: S1_4  and  C3_5 
REMARK    3  A    between atoms: C3_5  and  C4_6 
REMARK    4  A    between atoms: C4_6  and  N1_7 
REMARK       I    between atoms: N1_7  and  C5_8 
REMARK    5  A    between atoms: C5_8  and  C6_10 
REMARK    6  A    between atoms: C6_10  and  C7_11 
REMARK    7  A    between atoms: C7_11  and  N2_12 
REMARK       I    between atoms: N2_12  and  C8_13 
REMARK    8  A    between atoms: C8_13  and  C9_15 
REMARK    9  A    between atoms: C9_15  and  C10_16 
REMARK   10  A    between atoms: C9_15  and  O17_54 
REMARK   11  A    between atoms: C10_16  and  C13_19 
REMARK   12  A    between atoms: C13_19  and  O4_20 
REMARK   13  A    between atoms: O4_20  and  P1_21 
REMARK   14  A    between atoms: P1_21  and  O6_23 
REMARK   15  A    between atoms: P1_21  and  O7_24 
REMARK   16  A    between atoms: O7_24  and  P2_25 
REMARK   17  A    between atoms: P2_25  and  O9_27 
REMARK   18  A    between atoms: P2_25  and  O10_28 
REMARK   19  A    between atoms: O10_28  and  C14_29 
REMARK   20  A    between atoms: C14_29  and  C15_30 
REMARK   21  A    between atoms: C16_31  and  O13_49 
REMARK   22  A    between atoms: C17_32  and  O12_48 
REMARK   23  A    between atoms: C18_33  and  N3_35 
REMARK   24  A    between atoms: C21_40  and  N7_47 
REMARK   25  A    between atoms: O13_49  and  P3_50 
REMARK   26  A    between atoms: P3_50  and  O15_52 
REMARK   27  A    between atoms: P3_50  and  O16_53 
ROOT
HETATM    1  C1  UNL     1       2.009  20.638   2.486  1.00  0.00     0.104 C 
HETATM    2  C2  UNL     1       2.266  19.284   1.901  1.00  0.00     0.182 C 
HETATM    3  O1  UNL     1       3.393  18.819   1.746  1.00  0.00    -0.286 OA
ENDROOT
BRANCH   2   4
HETATM    4  S1  UNL     1       0.816  18.418   1.410  1.00  0.00    -0.091 SA
BRANCH   4   5
HETATM    5  C3  UNL     1       1.557  16.881   0.771  1.00  0.00     0.102 C 
BRANCH   5   6
HETATM    6  C4  UNL     1       1.451  15.736   1.780  1.00  0.00     0.133 C 
BRANCH   6   7
HETATM    7  N1  UNL     1       0.177  15.713   2.469  1.00  0.00    -0.360 N 
HETATM    8  C5  UNL     1       0.096  15.722   3.842  1.00  0.00     0.219 C 
HETATM    9  O2  UNL     1       1.087  15.668   4.562  1.00  0.00    -0.274 OA
HETATM   10  H8  UNL     1      -0.673  15.697   1.920  1.00  0.00     0.162 HD
BRANCH   8  11
HETATM   11  C6  UNL     1      -1.326  15.751   4.358  1.00  0.00     0.122 C 
BRANCH  11  12
HETATM   12  C7  UNL     1      -2.182  16.777   3.615  1.00  0.00     0.132 C 
BRANCH  12  13
HETATM   13  N2  UNL     1      -3.265  16.175   2.865  1.00  0.00    -0.358 N 
HETATM   14  C8  UNL     1      -3.168  16.037   1.493  1.00  0.00     0.247 C 
HETATM   15  O3  UNL     1      -2.239  16.513   0.853  1.00  0.00    -0.271 OA
HETATM   16  H13 UNL     1      -3.810  15.477   3.367  1.00  0.00     0.162 HD
BRANCH  14  17
HETATM   17  C9  UNL     1      -4.302  15.226   0.846  1.00  0.00     0.219 C 
BRANCH  17  18
HETATM   18  C10 UNL     1      -4.166  13.689   1.006  1.00  0.00     0.009 C 
HETATM   19  C11 UNL     1      -2.772  13.282   1.508  1.00  0.00     0.020 C 
HETATM   20  C12 UNL     1      -5.209  13.129   1.994  1.00  0.00     0.020 C 
BRANCH  18  21
HETATM   21  C13 UNL     1      -4.408  13.090  -0.409  1.00  0.00     0.192 C 
BRANCH  21  22
HETATM   22  O4  UNL     1      -5.743  13.253  -0.841  1.00  0.00    -0.296 OA
BRANCH  22  23
HETATM   23  P1  UNL     1      -6.172  14.319  -1.960  1.00  0.00     0.401 P 
HETATM   24  O5  UNL     1      -7.047  15.421  -1.452  1.00  0.00    -0.631 OA
BRANCH  23  25
HETATM   25  O6  UNL     1      -6.819  13.483  -3.175  1.00  0.00    -0.307 OA
HETATM   26  H23 UNL     1      -6.901  12.544  -2.964  1.00  0.00     0.222 HD
ENDBRANCH  23  25
BRANCH  23  27
HETATM   27  O7  UNL     1      -4.804  14.803  -2.612  1.00  0.00    -0.195 OA
BRANCH  27  28
HETATM   28  P2  UNL     1      -4.846  15.583  -4.000  1.00  0.00     0.401 P 
HETATM   29  O8  UNL     1      -5.218  14.791  -5.211  1.00  0.00    -0.631 OA
BRANCH  28  30
HETATM   30  O9  UNL     1      -5.822  16.811  -3.701  1.00  0.00    -0.307 OA
HETATM   31  H24 UNL     1      -5.379  17.694  -3.726  1.00  0.00     0.222 HD
ENDBRANCH  28  30
BRANCH  28  32
HETATM   32  O10 UNL     1      -3.439  16.336  -4.064  1.00  0.00    -0.294 OA
BRANCH  32  33
HETATM   33  C14 UNL     1      -3.307  17.517  -4.809  1.00  0.00     0.215 C 
BRANCH  33  34
HETATM   34  C15 UNL     1      -2.032  17.361  -5.635  1.00  0.00     0.180 C 
HETATM   35  C16 UNL     1      -2.389  17.031  -7.079  1.00  0.00     0.197 C 
HETATM   36  C17 UNL     1      -1.788  15.660  -7.320  1.00  0.00     0.199 C 
HETATM   37  C18 UNL     1      -0.648  15.622  -6.300  1.00  0.00     0.262 C 
HETATM   38  O11 UNL     1      -1.176  16.320  -5.150  1.00  0.00    -0.353 OA
BRANCH  35  39
HETATM   39  O13 UNL     1      -1.809  18.026  -7.915  1.00  0.00    -0.286 OA
BRANCH  39  40
HETATM   40  P3  UNL     1      -2.771  18.626  -9.042  1.00  0.00     0.391 P 
HETATM   41  O14 UNL     1      -4.193  18.775  -8.605  1.00  0.00    -0.632 OA
BRANCH  40  42
HETATM   42  O15 UNL     1      -2.470  17.627 -10.255  1.00  0.00    -0.307 OA
HETATM   43  H36 UNL     1      -3.307  17.234 -10.599  1.00  0.00     0.222 HD
ENDBRANCH  40  42
BRANCH  40  44
HETATM   44  O16 UNL     1      -1.987  19.946  -9.457  1.00  0.00    -0.307 OA
HETATM   45  H37 UNL     1      -2.540  20.742  -9.414  1.00  0.00     0.222 HD
ENDBRANCH  40  44
ENDBRANCH  39  40
ENDBRANCH  35  39
BRANCH  36  46
HETATM   46  O12 UNL     1      -1.441  15.506  -8.699  1.00  0.00    -0.388 OA
HETATM   47  H35 UNL     1      -1.942  16.200  -9.190  1.00  0.00     0.210 HD
ENDBRANCH  36  46
BRANCH  37  48
HETATM   48  N3  UNL     1      -0.298  14.273  -5.906  1.00  0.00    -0.297 N 
HETATM   49  C19 UNL     1       0.942  13.681  -5.978  1.00  0.00     0.188 A 
HETATM   50  N4  UNL     1       0.958  12.489  -5.424  1.00  0.00    -0.346 N 
HETATM   51  C20 UNL     1      -0.333  12.299  -4.965  1.00  0.00     0.116 A 
HETATM   52  H4  UNL     1       1.747  11.846  -5.349  1.00  0.00     0.167 HD
HETATM   53  C21 UNL     1      -0.948  11.255  -4.252  1.00  0.00     0.109 A 
HETATM   54  C23 UNL     1      -1.132  13.380  -5.292  1.00  0.00     0.142 A 
HETATM   55  N5  UNL     1      -2.265  11.362  -3.952  1.00  0.00    -0.341 N 
HETATM   56  C22 UNL     1      -2.925  12.466  -4.356  1.00  0.00     0.183 A 
HETATM   57  H5  UNL     1      -2.745  10.626  -3.433  1.00  0.00     0.167 HD
HETATM   58  N6  UNL     1      -2.443  13.529  -5.032  1.00  0.00    -0.336 N 
HETATM   59  H6  UNL     1      -2.999  14.338  -5.310  1.00  0.00     0.168 HD
BRANCH  53  60
HETATM   60  N7  UNL     1      -0.278  10.111  -3.847  1.00  0.00    -0.287 NA
HETATM   61  H33 UNL     1       0.642  10.284  -3.449  1.00  0.00     0.125 HD
HETATM   62  H34 UNL     1      -0.352   9.354  -4.513  1.00  0.00     0.125 HD
ENDBRANCH  53  60
ENDBRANCH  37  48
ENDBRANCH  33  34
ENDBRANCH  32  33
ENDBRANCH  28  32
ENDBRANCH  27  28
ENDBRANCH  23  27
ENDBRANCH  22  23
ENDBRANCH  21  22
ENDBRANCH  18  21
ENDBRANCH  17  18
BRANCH  17  63
HETATM   63  O17 UNL     1      -5.565  15.629   1.386  1.00  0.00    -0.385 OA
HETATM   64  H38 UNL     1      -5.795  15.018   2.106  1.00  0.00     0.210 HD
ENDBRANCH  17  63
ENDBRANCH  14  17
ENDBRANCH  12  13
ENDBRANCH  11  12
ENDBRANCH   8  11
ENDBRANCH   6   7
ENDBRANCH   5   6
ENDBRANCH   4   5
ENDBRANCH   2   4
TORSDOF 27
ENDMDL
MODEL 7
REMARK VINA RESULT:      -5.5      3.860      6.674
REMARK  27 active torsions:
REMARK  status: ('A' for Active; 'I' for Inactive)
REMARK    1  A    between atoms: C2_2  and  S1_4 
REMARK    2  A    between atoms: S1_4  and  C3_5 
REMARK    3  A    between atoms: C3_5  and  C4_6 
REMARK    4  A    between atoms: C4_6  and  N1_7 
REMARK       I    between atoms: N1_7  and  C5_8 
REMARK    5  A    between atoms: C5_8  and  C6_10 
REMARK    6  A    between atoms: C6_10  and  C7_11 
REMARK    7  A    between atoms: C7_11  and  N2_12 
REMARK       I    between atoms: N2_12  and  C8_13 
REMARK    8  A    between atoms: C8_13  and  C9_15 
REMARK    9  A    between atoms: C9_15  and  C10_16 
REMARK   10  A    between atoms: C9_15  and  O17_54 
REMARK   11  A    between atoms: C10_16  and  C13_19 
REMARK   12  A    between atoms: C13_19  and  O4_20 
REMARK   13  A    between atoms: O4_20  and  P1_21 
REMARK   14  A    between atoms: P1_21  and  O6_23 
REMARK   15  A    between atoms: P1_21  and  O7_24 
REMARK   16  A    between atoms: O7_24  and  P2_25 
REMARK   17  A    between atoms: P2_25  and  O9_27 
REMARK   18  A    between atoms: P2_25  and  O10_28 
REMARK   19  A    between atoms: O10_28  and  C14_29 
REMARK   20  A    between atoms: C14_29  and  C15_30 
REMARK   21  A    between atoms: C16_31  and  O13_49 
REMARK   22  A    between atoms: C17_32  and  O12_48 
REMARK   23  A    between atoms: C18_33  and  N3_35 
REMARK   24  A    between atoms: C21_40  and  N7_47 
REMARK   25  A    between atoms: O13_49  and  P3_50 
REMARK   26  A    between atoms: P3_50  and  O15_52 
REMARK   27  A    between atoms: P3_50  and  O16_53 
ROOT
HETATM    1  C1  UNL     1      -2.565  21.224   1.788  1.00  0.00     0.104 C 
HETATM    2  C2  UNL     1      -1.245  20.622   2.162  1.00  0.00     0.182 C 
HETATM    3  O1  UNL     1      -0.607  19.880   1.418  1.00  0.00    -0.286 OA
ENDROOT
BRANCH   2   4
HETATM    4  S1  UNL     1      -0.693  21.031   3.780  1.00  0.00    -0.091 SA
BRANCH   4   5
HETATM    5  C3  UNL     1       0.731  22.094   3.377  1.00  0.00     0.102 C 
BRANCH   5   6
HETATM    6  C4  UNL     1       2.060  21.355   3.543  1.00  0.00     0.133 C 
BRANCH   6   7
HETATM    7  N1  UNL     1       1.896  19.917   3.599  1.00  0.00    -0.360 N 
HETATM    8  C5  UNL     1       2.432  19.089   2.639  1.00  0.00     0.219 C 
HETATM    9  O2  UNL     1       3.005  19.517   1.644  1.00  0.00    -0.274 OA
HETATM   10  H8  UNL     1       1.380  19.515   4.370  1.00  0.00     0.162 HD
BRANCH   8  11
HETATM   11  C6  UNL     1       2.194  17.620   2.914  1.00  0.00     0.122 C 
BRANCH  11  12
HETATM   12  C7  UNL     1       0.870  17.382   3.639  1.00  0.00     0.132 C 
BRANCH  12  13
HETATM   13  N2  UNL     1      -0.264  17.316   2.742  1.00  0.00    -0.358 N 
HETATM   14  C8  UNL     1      -0.661  16.103   2.208  1.00  0.00     0.247 C 
HETATM   15  O3  UNL     1      -0.013  15.077   2.372  1.00  0.00    -0.271 OA
HETATM   16  H13 UNL     1      -0.988  18.014   2.898  1.00  0.00     0.162 HD
BRANCH  14  17
HETATM   17  C9  UNL     1      -1.977  16.146   1.419  1.00  0.00     0.219 C 
BRANCH  17  18
HETATM   18  C10 UNL     1      -3.122  15.297   2.031  1.00  0.00     0.009 C 
HETATM   19  C11 UNL     1      -2.965  13.802   1.717  1.00  0.00     0.020 C 
HETATM   20  C12 UNL     1      -3.186  15.456   3.564  1.00  0.00     0.020 C 
BRANCH  18  21
HETATM   21  C13 UNL     1      -4.437  15.830   1.393  1.00  0.00     0.192 C 
BRANCH  21  22
HETATM   22  O4  UNL     1      -5.472  14.867   1.409  1.00  0.00    -0.296 OA
BRANCH  22  23
HETATM   23  P1  UNL     1      -6.218  14.369   0.080  1.00  0.00     0.401 P 
HETATM   24  O5  UNL     1      -7.475  15.117  -0.233  1.00  0.00    -0.631 OA
BRANCH  23  25
HETATM   25  O6  UNL     1      -6.428  12.780   0.232  1.00  0.00    -0.307 OA
HETATM   26  H23 UNL     1      -6.660  12.531   1.136  1.00  0.00     0.222 HD
ENDBRANCH  23  25
BRANCH  23  27
HETATM   27  O7  UNL     1      -5.109  14.426  -1.059  1.00  0.00    -0.195 OA
BRANCH  27  28
HETATM   28  P2  UNL     1      -5.205  13.405  -2.278  1.00  0.00     0.401 P 
HETATM   29  O8  UNL     1      -4.809  11.990  -2.008  1.00  0.00    -0.631 OA
BRANCH  28  30
HETATM   30  O9  UNL     1      -6.710  13.575  -2.783  1.00  0.00    -0.307 OA
HETATM   31  H24 UNL     1      -6.833  14.291  -3.453  1.00  0.00     0.222 HD
ENDBRANCH  28  30
BRANCH  28  32
HETATM   32  O10 UNL     1      -4.415  14.137  -3.458  1.00  0.00    -0.294 OA
BRANCH  32  33
HETATM   33  C14 UNL     1      -4.884  15.360  -3.963  1.00  0.00     0.215 C 
BRANCH  33  34
HETATM   34  C15 UNL     1      -3.695  16.015  -4.665  1.00  0.00     0.180 C 
HETATM   35  C16 UNL     1      -2.428  15.217  -4.385  1.00  0.00     0.197 C 
HETATM   36  C17 UNL     1      -1.525  16.180  -3.638  1.00  0.00     0.199 C 
HETATM   37  C18 UNL     1      -2.037  17.541  -4.117  1.00  0.00     0.262 C 
HETATM   38  O11 UNL     1      -3.466  17.362  -4.235  1.00  0.00    -0.353 OA
BRANCH  35  39
HETATM   39  O13 UNL     1      -1.873  14.819  -5.634  1.00  0.00    -0.286 OA
BRANCH  39  40
HETATM   40  P3  UNL     1      -1.590  13.254  -5.796  1.00  0.00     0.391 P 
HETATM   41  O14 UNL     1      -2.133  12.671  -7.060  1.00  0.00    -0.632 OA
BRANCH  40  42
HETATM   42  O15 UNL     1      -2.175  12.700  -4.413  1.00  0.00    -0.307 OA
HETATM   43  H36 UNL     1      -2.077  11.720  -4.361  1.00  0.00     0.222 HD
ENDBRANCH  40  42
BRANCH  40  44
HETATM   44  O16 UNL     1      -0.017  13.193  -5.573  1.00  0.00    -0.307 OA
HETATM   45  H37 UNL     1       0.482  13.596  -6.301  1.00  0.00     0.222 HD
ENDBRANCH  40  44
ENDBRANCH  39  40
ENDBRANCH  35  39
BRANCH  36  46
HETATM   46  O12 UNL     1      -0.152  15.870  -3.891  1.00  0.00    -0.388 OA
HETATM   47  H35 UNL     1       0.093  16.346  -4.720  1.00  0.00     0.210 HD
ENDBRANCH  36  46
BRANCH  37  48
HETATM   48  N3  UNL     1      -1.778  18.600  -3.162  1.00  0.00    -0.297 N 
HETATM   49  C19 UNL     1      -1.090  18.500  -1.976  1.00  0.00     0.188 A 
HETATM   50  N4  UNL     1      -0.917  19.669  -1.399  1.00  0.00    -0.346 N 
HETATM   51  C20 UNL     1      -1.519  20.573  -2.256  1.00  0.00     0.116 A 
HETATM   52  H4  UNL     1      -0.445  19.866  -0.516  1.00  0.00     0.167 HD
HETATM   53  C21 UNL     1      -1.641  21.973  -2.232  1.00  0.00     0.109 A 
HETATM   54  C23 UNL     1      -2.090  19.920  -3.333  1.00  0.00     0.142 A 
HETATM   55  N5  UNL     1      -2.314  22.583  -3.237  1.00  0.00    -0.341 N 
HETATM   56  C22 UNL     1      -2.840  21.815  -4.212  1.00  0.00     0.183 A 
HETATM   57  H5  UNL     1      -2.420  23.598  -3.256  1.00  0.00     0.167 HD
HETATM   58  N6  UNL     1      -2.781  20.474  -4.345  1.00  0.00    -0.336 N 
HETATM   59  H6  UNL     1      -3.203  19.950  -5.112  1.00  0.00     0.168 HD
BRANCH  53  60
HETATM   60  N7  UNL     1      -1.115  22.766  -1.225  1.00  0.00    -0.287 NA
HETATM   61  H33 UNL     1      -0.419  22.302  -0.646  1.00  0.00     0.125 HD
HETATM   62  H34 UNL     1      -1.818  23.310  -0.743  1.00  0.00     0.125 HD
ENDBRANCH  53  60
ENDBRANCH  37  48
ENDBRANCH  33  34
ENDBRANCH  32  33
ENDBRANCH  28  32
ENDBRANCH  27  28
ENDBRANCH  23  27
ENDBRANCH  22  23
ENDBRANCH  21  22
ENDBRANCH  18  21
ENDBRANCH  17  18
BRANCH  17  63
HETATM   63  O17 UNL     1      -2.432  17.498   1.292  1.00  0.00    -0.385 OA
HETATM   64  H38 UNL     1      -2.752  17.791   2.162  1.00  0.00     0.210 HD
ENDBRANCH  17  63
ENDBRANCH  14  17
ENDBRANCH  12  13
ENDBRANCH  11  12
ENDBRANCH   8  11
ENDBRANCH   6   7
ENDBRANCH   5   6
ENDBRANCH   4   5
ENDBRANCH   2   4
TORSDOF 27
ENDMDL
MODEL 8
REMARK VINA RESULT:      -5.5      3.653      9.017
REMARK  27 active torsions:
REMARK  status: ('A' for Active; 'I' for Inactive)
REMARK    1  A    between atoms: C2_2  and  S1_4 
REMARK    2  A    between atoms: S1_4  and  C3_5 
REMARK    3  A    between atoms: C3_5  and  C4_6 
REMARK    4  A    between atoms: C4_6  and  N1_7 
REMARK       I    between atoms: N1_7  and  C5_8 
REMARK    5  A    between atoms: C5_8  and  C6_10 
REMARK    6  A    between atoms: C6_10  and  C7_11 
REMARK    7  A    between atoms: C7_11  and  N2_12 
REMARK       I    between atoms: N2_12  and  C8_13 
REMARK    8  A    between atoms: C8_13  and  C9_15 
REMARK    9  A    between atoms: C9_15  and  C10_16 
REMARK   10  A    between atoms: C9_15  and  O17_54 
REMARK   11  A    between atoms: C10_16  and  C13_19 
REMARK   12  A    between atoms: C13_19  and  O4_20 
REMARK   13  A    between atoms: O4_20  and  P1_21 
REMARK   14  A    between atoms: P1_21  and  O6_23 
REMARK   15  A    between atoms: P1_21  and  O7_24 
REMARK   16  A    between atoms: O7_24  and  P2_25 
REMARK   17  A    between atoms: P2_25  and  O9_27 
REMARK   18  A    between atoms: P2_25  and  O10_28 
REMARK   19  A    between atoms: O10_28  and  C14_29 
REMARK   20  A    between atoms: C14_29  and  C15_30 
REMARK   21  A    between atoms: C16_31  and  O13_49 
REMARK   22  A    between atoms: C17_32  and  O12_48 
REMARK   23  A    between atoms: C18_33  and  N3_35 
REMARK   24  A    between atoms: C21_40  and  N7_47 
REMARK   25  A    between atoms: O13_49  and  P3_50 
REMARK   26  A    between atoms: P3_50  and  O15_52 
REMARK   27  A    between atoms: P3_50  and  O16_53 
ROOT
HETATM    1  C1  UNL     1      -3.926  19.655  -2.141  1.00  0.00     0.104 C 
HETATM    2  C2  UNL     1      -2.796  18.771  -1.709  1.00  0.00     0.182 C 
HETATM    3  O1  UNL     1      -2.959  17.635  -1.269  1.00  0.00    -0.286 OA
ENDROOT
BRANCH   2   4
HETATM    4  S1  UNL     1      -1.206  19.509  -1.843  1.00  0.00    -0.091 SA
BRANCH   4   5
HETATM    5  C3  UNL     1      -1.678  21.256  -2.060  1.00  0.00     0.102 C 
BRANCH   5   6
HETATM    6  C4  UNL     1      -1.259  21.794  -3.430  1.00  0.00     0.133 C 
BRANCH   6   7
HETATM    7  N1  UNL     1      -1.294  20.779  -4.463  1.00  0.00    -0.360 N 
HETATM    8  C5  UNL     1      -0.431  20.807  -5.534  1.00  0.00     0.219 C 
HETATM    9  O2  UNL     1       0.359  21.725  -5.721  1.00  0.00    -0.274 OA
HETATM   10  H8  UNL     1      -1.968  20.029  -4.386  1.00  0.00     0.162 HD
BRANCH   8  11
HETATM   11  C6  UNL     1      -0.596  19.627  -6.467  1.00  0.00     0.122 C 
BRANCH  11  12
HETATM   12  C7  UNL     1      -1.694  18.675  -5.995  1.00  0.00     0.132 C 
BRANCH  12  13
HETATM   13  N2  UNL     1      -1.176  17.462  -5.396  1.00  0.00    -0.358 N 
HETATM   14  C8  UNL     1      -2.037  16.542  -4.828  1.00  0.00     0.247 C 
HETATM   15  O3  UNL     1      -3.235  16.763  -4.701  1.00  0.00    -0.271 OA
HETATM   16  H13 UNL     1      -0.317  17.103  -5.808  1.00  0.00     0.162 HD
BRANCH  14  17
HETATM   17  C9  UNL     1      -1.377  15.226  -4.391  1.00  0.00     0.219 C 
BRANCH  17  18
HETATM   18  C10 UNL     1      -1.623  14.034  -5.353  1.00  0.00     0.009 C 
HETATM   19  C11 UNL     1      -1.712  14.483  -6.819  1.00  0.00     0.020 C 
HETATM   20  C12 UNL     1      -0.501  12.982  -5.246  1.00  0.00     0.020 C 
BRANCH  18  21
HETATM   21  C13 UNL     1      -2.976  13.404  -4.916  1.00  0.00     0.192 C 
BRANCH  21  22
HETATM   22  O4  UNL     1      -3.077  13.265  -3.514  1.00  0.00    -0.296 OA
BRANCH  22  23
HETATM   23  P1  UNL     1      -4.383  13.694  -2.687  1.00  0.00     0.401 P 
HETATM   24  O5  UNL     1      -5.662  13.558  -3.451  1.00  0.00    -0.631 OA
BRANCH  23  25
HETATM   25  O6  UNL     1      -4.113  15.180  -2.131  1.00  0.00    -0.307 OA
HETATM   26  H23 UNL     1      -4.396  15.279  -1.213  1.00  0.00     0.222 HD
ENDBRANCH  23  25
BRANCH  23  27
HETATM   27  O7  UNL     1      -4.317  12.844  -1.344  1.00  0.00    -0.195 OA
BRANCH  27  28
HETATM   28  P2  UNL     1      -5.015  13.420  -0.033  1.00  0.00     0.401 P 
HETATM   29  O8  UNL     1      -6.364  14.039  -0.202  1.00  0.00    -0.631 OA
BRANCH  28  30
HETATM   30  O9  UNL     1      -4.990  12.179   0.971  1.00  0.00    -0.307 OA
HETATM   31  H24 UNL     1      -4.139  12.076   1.464  1.00  0.00     0.222 HD
ENDBRANCH  28  30
BRANCH  28  32
HETATM   32  O10 UNL     1      -3.897  14.352   0.622  1.00  0.00    -0.294 OA
BRANCH  32  33
HETATM   33  C14 UNL     1      -3.211  13.925   1.770  1.00  0.00     0.215 C 
BRANCH  33  34
HETATM   34  C15 UNL     1      -3.397  15.027   2.813  1.00  0.00     0.180 C 
HETATM   35  C16 UNL     1      -3.703  16.347   2.118  1.00  0.00     0.197 C 
HETATM   36  C17 UNL     1      -2.549  17.256   2.496  1.00  0.00     0.199 C 
HETATM   37  C18 UNL     1      -2.076  16.646   3.818  1.00  0.00     0.262 C 
HETATM   38  O11 UNL     1      -2.238  15.223   3.631  1.00  0.00    -0.353 OA
BRANCH  35  39
HETATM   39  O13 UNL     1      -4.949  16.827   2.612  1.00  0.00    -0.286 OA
BRANCH  39  40
HETATM   40  P3  UNL     1      -6.004  17.278   1.499  1.00  0.00     0.391 P 
HETATM   41  O14 UNL     1      -7.363  16.685   1.682  1.00  0.00    -0.632 OA
BRANCH  40  42
HETATM   42  O15 UNL     1      -5.207  16.907   0.163  1.00  0.00    -0.307 OA
HETATM   43  H36 UNL     1      -5.819  16.535  -0.516  1.00  0.00     0.222 HD
ENDBRANCH  40  42
BRANCH  40  44
HETATM   44  O16 UNL     1      -5.877  18.862   1.568  1.00  0.00    -0.307 OA
HETATM   45  H37 UNL     1      -4.965  19.172   1.451  1.00  0.00     0.222 HD
ENDBRANCH  40  44
ENDBRANCH  39  40
ENDBRANCH  35  39
BRANCH  36  46
HETATM   46  O12 UNL     1      -2.979  18.620   2.519  1.00  0.00    -0.388 OA
HETATM   47  H35 UNL     1      -2.587  19.048   1.721  1.00  0.00     0.210 HD
ENDBRANCH  36  46
BRANCH  37  48
HETATM   48  N3  UNL     1      -0.681  16.925   4.092  1.00  0.00    -0.297 N 
HETATM   49  C19 UNL     1      -0.162  17.569   5.190  1.00  0.00     0.188 A 
HETATM   50  N4  UNL     1       1.153  17.551   5.204  1.00  0.00    -0.346 N 
HETATM   51  C20 UNL     1       1.504  16.856   4.060  1.00  0.00     0.116 A 
HETATM   52  H4  UNL     1       1.775  17.959   5.902  1.00  0.00     0.167 HD
HETATM   53  C21 UNL     1       2.744  16.463   3.527  1.00  0.00     0.109 A 
HETATM   54  C23 UNL     1       0.379  16.497   3.341  1.00  0.00     0.142 A 
HETATM   55  N5  UNL     1       2.760  15.784   2.354  1.00  0.00    -0.341 N 
HETATM   56  C22 UNL     1       1.583  15.523   1.752  1.00  0.00     0.183 A 
HETATM   57  H5  UNL     1       3.641  15.479   1.938  1.00  0.00     0.167 HD
HETATM   58  N6  UNL     1       0.340  15.840   2.169  1.00  0.00    -0.336 N 
HETATM   59  H6  UNL     1      -0.515  15.611   1.662  1.00  0.00     0.168 HD
BRANCH  53  60
HETATM   60  N7  UNL     1       3.958  16.742   4.135  1.00  0.00    -0.287 NA
HETATM   61  H33 UNL     1       4.772  16.503   3.573  1.00  0.00     0.125 HD
HETATM   62  H34 UNL     1       3.982  16.474   5.110  1.00  0.00     0.125 HD
ENDBRANCH  53  60
ENDBRANCH  37  48
ENDBRANCH  33  34
ENDBRANCH  32  33
ENDBRANCH  28  32
ENDBRANCH  27  28
ENDBRANCH  23  27
ENDBRANCH  22  23
ENDBRANCH  21  22
ENDBRANCH  18  21
ENDBRANCH  17  18
BRANCH  17  63
HETATM   63  O17 UNL     1       0.035  15.408  -4.243  1.00  0.00    -0.385 OA
HETATM   64  H38 UNL     1       0.430  14.544  -4.037  1.00  0.00     0.210 HD
ENDBRANCH  17  63
ENDBRANCH  14  17
ENDBRANCH  12  13
ENDBRANCH  11  12
ENDBRANCH   8  11
ENDBRANCH   6   7
ENDBRANCH   5   6
ENDBRANCH   4   5
ENDBRANCH   2   4
TORSDOF 27
ENDMDL
MODEL 9
REMARK VINA RESULT:      -5.4      3.485      8.748
REMARK  27 active torsions:
REMARK  status: ('A' for Active; 'I' for Inactive)
REMARK    1  A    between atoms: C2_2  and  S1_4 
REMARK    2  A    between atoms: S1_4  and  C3_5 
REMARK    3  A    between atoms: C3_5  and  C4_6 
REMARK    4  A    between atoms: C4_6  and  N1_7 
REMARK       I    between atoms: N1_7  and  C5_8 
REMARK    5  A    between atoms: C5_8  and  C6_10 
REMARK    6  A    between atoms: C6_10  and  C7_11 
REMARK    7  A    between atoms: C7_11  and  N2_12 
REMARK       I    between atoms: N2_12  and  C8_13 
REMARK    8  A    between atoms: C8_13  and  C9_15 
REMARK    9  A    between atoms: C9_15  and  C10_16 
REMARK   10  A    between atoms: C9_15  and  O17_54 
REMARK   11  A    between atoms: C10_16  and  C13_19 
REMARK   12  A    between atoms: C13_19  and  O4_20 
REMARK   13  A    between atoms: O4_20  and  P1_21 
REMARK   14  A    between atoms: P1_21  and  O6_23 
REMARK   15  A    between atoms: P1_21  and  O7_24 
REMARK   16  A    between atoms: O7_24  and  P2_25 
REMARK   17  A    between atoms: P2_25  and  O9_27 
REMARK   18  A    between atoms: P2_25  and  O10_28 
REMARK   19  A    between atoms: O10_28  and  C14_29 
REMARK   20  A    between atoms: C14_29  and  C15_30 
REMARK   21  A    between atoms: C16_31  and  O13_49 
REMARK   22  A    between atoms: C17_32  and  O12_48 
REMARK   23  A    between atoms: C18_33  and  N3_35 
REMARK   24  A    between atoms: C21_40  and  N7_47 
REMARK   25  A    between atoms: O13_49  and  P3_50 
REMARK   26  A    between atoms: P3_50  and  O15_52 
REMARK   27  A    between atoms: P3_50  and  O16_53 
ROOT
HETATM    1  C1  UNL     1      -1.273  23.125  -5.592  1.00  0.00     0.104 C 
HETATM    2  C2  UNL     1      -0.862  21.827  -4.967  1.00  0.00     0.182 C 
HETATM    3  O1  UNL     1      -1.064  21.553  -3.786  1.00  0.00    -0.286 OA
ENDROOT
BRANCH   2   4
HETATM    4  S1  UNL     1      -0.025  20.730  -6.057  1.00  0.00    -0.091 SA
BRANCH   4   5
HETATM    5  C3  UNL     1      -1.440  19.806  -6.737  1.00  0.00     0.102 C 
BRANCH   5   6
HETATM    6  C4  UNL     1      -1.394  18.327  -6.351  1.00  0.00     0.133 C 
BRANCH   6   7
HETATM    7  N1  UNL     1      -0.075  17.749  -6.509  1.00  0.00    -0.360 N 
HETATM    8  C5  UNL     1       0.277  17.047  -7.638  1.00  0.00     0.219 C 
HETATM    9  O2  UNL     1      -0.518  16.800  -8.537  1.00  0.00    -0.274 OA
HETATM   10  H8  UNL     1       0.603  17.874  -5.769  1.00  0.00     0.162 HD
BRANCH   8  11
HETATM   11  C6  UNL     1       1.716  16.576  -7.627  1.00  0.00     0.122 C 
BRANCH  11  12
HETATM   12  C7  UNL     1       1.825  15.082  -7.325  1.00  0.00     0.132 C 
BRANCH  12  13
HETATM   13  N2  UNL     1       0.538  14.429  -7.218  1.00  0.00    -0.358 N 
HETATM   14  C8  UNL     1       0.286  13.550  -6.181  1.00  0.00     0.247 C 
HETATM   15  O3  UNL     1       1.159  13.201  -5.396  1.00  0.00    -0.271 OA
HETATM   16  H13 UNL     1      -0.253  14.956  -7.583  1.00  0.00     0.162 HD
BRANCH  14  17
HETATM   17  C9  UNL     1      -1.169  13.067  -6.084  1.00  0.00     0.219 C 
BRANCH  17  18
HETATM   18  C10 UNL     1      -2.051  13.878  -5.100  1.00  0.00     0.009 C 
HETATM   19  C11 UNL     1      -1.250  14.964  -4.365  1.00  0.00     0.020 C 
HETATM   20  C12 UNL     1      -3.225  14.565  -5.827  1.00  0.00     0.020 C 
BRANCH  18  21
HETATM   21  C13 UNL     1      -2.601  12.849  -4.072  1.00  0.00     0.192 C 
BRANCH  21  22
HETATM   22  O4  UNL     1      -3.906  13.171  -3.633  1.00  0.00    -0.296 OA
BRANCH  22  23
HETATM   23  P1  UNL     1      -4.429  12.852  -2.151  1.00  0.00     0.401 P 
HETATM   24  O5  UNL     1      -3.998  11.520  -1.623  1.00  0.00    -0.631 OA
BRANCH  23  25
HETATM   25  O6  UNL     1      -6.026  13.058  -2.168  1.00  0.00    -0.307 OA
HETATM   26  H23 UNL     1      -6.269  13.989  -2.247  1.00  0.00     0.222 HD
ENDBRANCH  23  25
BRANCH  23  27
HETATM   27  O7  UNL     1      -3.966  14.096  -1.275  1.00  0.00    -0.195 OA
BRANCH  27  28
HETATM   28  P2  UNL     1      -4.800  15.451  -1.359  1.00  0.00     0.401 P 
HETATM   29  O8  UNL     1      -5.387  15.802  -2.687  1.00  0.00    -0.631 OA
BRANCH  28  30
HETATM   30  O9  UNL     1      -5.878  15.291  -0.193  1.00  0.00    -0.307 OA
HETATM   31  H24 UNL     1      -5.618  14.649   0.512  1.00  0.00     0.222 HD
ENDBRANCH  28  30
BRANCH  28  32
HETATM   32  O10 UNL     1      -3.829  16.542  -0.714  1.00  0.00    -0.294 OA
BRANCH  32  33
HETATM   33  C14 UNL     1      -3.995  16.925   0.626  1.00  0.00     0.215 C 
BRANCH  33  34
HETATM   34  C15 UNL     1      -3.348  18.303   0.759  1.00  0.00     0.180 C 
HETATM   35  C16 UNL     1      -2.766  18.731  -0.582  1.00  0.00     0.197 C 
HETATM   36  C17 UNL     1      -1.276  18.865  -0.328  1.00  0.00     0.199 C 
HETATM   37  C18 UNL     1      -1.228  19.145   1.175  1.00  0.00     0.262 C 
HETATM   38  O11 UNL     1      -2.290  18.333   1.724  1.00  0.00    -0.353 OA
BRANCH  35  39
HETATM   39  O13 UNL     1      -3.362  19.972  -0.946  1.00  0.00    -0.286 OA
BRANCH  39  40
HETATM   40  P3  UNL     1      -4.046  20.010  -2.390  1.00  0.00     0.391 P 
HETATM   41  O14 UNL     1      -4.529  21.366  -2.793  1.00  0.00    -0.632 OA
BRANCH  40  42
HETATM   42  O15 UNL     1      -5.137  18.850  -2.235  1.00  0.00    -0.307 OA
HETATM   43  H36 UNL     1      -4.740  18.052  -1.814  1.00  0.00     0.222 HD
ENDBRANCH  40  42
BRANCH  40  44
HETATM   44  O16 UNL     1      -2.923  19.332  -3.289  1.00  0.00    -0.307 OA
HETATM   45  H37 UNL     1      -2.297  18.800  -2.772  1.00  0.00     0.222 HD
ENDBRANCH  40  44
ENDBRANCH  39  40
ENDBRANCH  35  39
BRANCH  36  46
HETATM   46  O12 UNL     1      -0.712  19.849  -1.198  1.00  0.00    -0.388 OA
HETATM   47  H35 UNL     1      -1.269  19.853  -2.013  1.00  0.00     0.210 HD
ENDBRANCH  36  46
BRANCH  37  48
HETATM   48  N3  UNL     1       0.026  18.740   1.777  1.00  0.00    -0.297 N 
HETATM   49  C19 UNL     1       1.054  19.557   2.186  1.00  0.00     0.188 A 
HETATM   50  N4  UNL     1       2.002  18.892   2.809  1.00  0.00    -0.346 N 
HETATM   51  C20 UNL     1       1.565  17.579   2.809  1.00  0.00     0.116 A 
HETATM   52  H4  UNL     1       2.867  19.261   3.205  1.00  0.00     0.167 HD
HETATM   53  C21 UNL     1       2.099  16.397   3.351  1.00  0.00     0.109 A 
HETATM   54  C23 UNL     1       0.361  17.465   2.139  1.00  0.00     0.142 A 
HETATM   55  N5  UNL     1       1.423  15.237   3.169  1.00  0.00    -0.341 N 
HETATM   56  C22 UNL     1       0.270  15.273   2.472  1.00  0.00     0.183 A 
HETATM   57  H5  UNL     1       1.777  14.360   3.551  1.00  0.00     0.167 HD
HETATM   58  N6  UNL     1      -0.340  16.339   1.917  1.00  0.00    -0.336 N 
HETATM   59  H6  UNL     1      -1.218  16.298   1.398  1.00  0.00     0.168 HD
BRANCH  53  60
HETATM   60  N7  UNL     1       3.292  16.353   4.056  1.00  0.00    -0.287 NA
HETATM   61  H33 UNL     1       3.266  16.831   4.954  1.00  0.00     0.125 HD
HETATM   62  H34 UNL     1       4.101  16.521   3.474  1.00  0.00     0.125 HD
ENDBRANCH  53  60
ENDBRANCH  37  48
ENDBRANCH  33  34
ENDBRANCH  32  33
ENDBRANCH  28  32
ENDBRANCH  27  28
ENDBRANCH  23  27
ENDBRANCH  22  23
ENDBRANCH  21  22
ENDBRANCH  18  21
ENDBRANCH  17  18
BRANCH  17  63
HETATM   63  O17 UNL     1      -1.785  13.095  -7.376  1.00  0.00    -0.385 OA
HETATM   64  H38 UNL     1      -1.543  12.278  -7.844  1.00  0.00     0.210 HD
ENDBRANCH  17  63
ENDBRANCH  14  17
ENDBRANCH  12  13
ENDBRANCH  11  12
ENDBRANCH   8  11
ENDBRANCH   6   7
ENDBRANCH   5   6
ENDBRANCH   4   5
ENDBRANCH   2   4
TORSDOF 27
ENDMDL
MODEL 10
REMARK VINA RESULT:      -5.4      2.391      7.392
REMARK  27 active torsions:
REMARK  status: ('A' for Active; 'I' for Inactive)
REMARK    1  A    between atoms: C2_2  and  S1_4 
REMARK    2  A    between atoms: S1_4  and  C3_5 
REMARK    3  A    between atoms: C3_5  and  C4_6 
REMARK    4  A    between atoms: C4_6  and  N1_7 
REMARK       I    between atoms: N1_7  and  C5_8 
REMARK    5  A    between atoms: C5_8  and  C6_10 
REMARK    6  A    between atoms: C6_10  and  C7_11 
REMARK    7  A    between atoms: C7_11  and  N2_12 
REMARK       I    between atoms: N2_12  and  C8_13 
REMARK    8  A    between atoms: C8_13  and  C9_15 
REMARK    9  A    between atoms: C9_15  and  C10_16 
REMARK   10  A    between atoms: C9_15  and  O17_54 
REMARK   11  A    between atoms: C10_16  and  C13_19 
REMARK   12  A    between atoms: C13_19  and  O4_20 
REMARK   13  A    between atoms: O4_20  and  P1_21 
REMARK   14  A    between atoms: P1_21  and  O6_23 
REMARK   15  A    between atoms: P1_21  and  O7_24 
REMARK   16  A    between atoms: O7_24  and  P2_25 
REMARK   17  A    between atoms: P2_25  and  O9_27 
REMARK   18  A    between atoms: P2_25  and  O10_28 
REMARK   19  A    between atoms: O10_28  and  C14_29 
REMARK   20  A    between atoms: C14_29  and  C15_30 
REMARK   21  A    between atoms: C16_31  and  O13_49 
REMARK   22  A    between atoms: C17_32  and  O12_48 
REMARK   23  A    between atoms: C18_33  and  N3_35 
REMARK   24  A    between atoms: C21_40  and  N7_47 
REMARK   25  A    between atoms: O13_49  and  P3_50 
REMARK   26  A    between atoms: P3_50  and  O15_52 
REMARK   27  A    between atoms: P3_50  and  O16_53 
ROOT
HETATM    1  C1  UNL     1      -8.772  20.174  -0.681  1.00  0.00     0.104 C 
HETATM    2  C2  UNL     1      -8.025  18.877  -0.752  1.00  0.00     0.182 C 
HETATM    3  O1  UNL     1      -8.156  17.977   0.074  1.00  0.00    -0.286 OA
ENDROOT
BRANCH   2   4
HETATM    4  S1  UNL     1      -6.904  18.759  -2.102  1.00  0.00    -0.091 SA
BRANCH   4   5
HETATM    5  C3  UNL     1      -6.202  17.106  -1.796  1.00  0.00     0.102 C 
BRANCH   5   6
HETATM    6  C4  UNL     1      -6.052  16.302  -3.089  1.00  0.00     0.133 C 
BRANCH   6   7
HETATM    7  N1  UNL     1      -4.906  15.416  -3.067  1.00  0.00    -0.360 N 
HETATM    8  C5  UNL     1      -5.046  14.050  -3.151  1.00  0.00     0.219 C 
HETATM    9  O2  UNL     1      -6.141  13.499  -3.168  1.00  0.00    -0.274 OA
HETATM   10  H8  UNL     1      -3.981  15.818  -2.995  1.00  0.00     0.162 HD
BRANCH   8  11
HETATM   11  C6  UNL     1      -3.725  13.312  -3.166  1.00  0.00     0.122 C 
BRANCH  11  12
HETATM   12  C7  UNL     1      -3.174  13.158  -4.584  1.00  0.00     0.132 C 
BRANCH  12  13
HETATM   13  N2  UNL     1      -2.027  14.002  -4.842  1.00  0.00    -0.358 N 
HETATM   14  C8  UNL     1      -1.491  14.079  -6.114  1.00  0.00     0.247 C 
HETATM   15  O3  UNL     1      -1.879  13.364  -7.029  1.00  0.00    -0.271 OA
HETATM   16  H13 UNL     1      -1.950  14.828  -4.253  1.00  0.00     0.162 HD
BRANCH  14  17
HETATM   17  C9  UNL     1      -0.394  15.141  -6.288  1.00  0.00     0.219 C 
BRANCH  17  18
HETATM   18  C10 UNL     1      -0.865  16.443  -6.987  1.00  0.00     0.009 C 
HETATM   19  C11 UNL     1       0.267  17.473  -7.113  1.00  0.00     0.020 C 
HETATM   20  C12 UNL     1      -1.409  16.160  -8.402  1.00  0.00     0.020 C 
BRANCH  18  21
HETATM   21  C13 UNL     1      -2.000  17.021  -6.094  1.00  0.00     0.192 C 
BRANCH  21  22
HETATM   22  O4  UNL     1      -1.503  17.838  -5.054  1.00  0.00    -0.296 OA
BRANCH  22  23
HETATM   23  P1  UNL     1      -2.034  17.742  -3.543  1.00  0.00     0.401 P 
HETATM   24  O5  UNL     1      -2.069  16.351  -2.994  1.00  0.00    -0.631 OA
BRANCH  23  25
HETATM   25  O6  UNL     1      -3.457  18.493  -3.502  1.00  0.00    -0.307 OA
HETATM   26  H23 UNL     1      -3.570  19.010  -2.694  1.00  0.00     0.222 HD
ENDBRANCH  23  25
BRANCH  23  27
HETATM   27  O7  UNL     1      -1.124  18.758  -2.724  1.00  0.00    -0.195 OA
BRANCH  27  28
HETATM   28  P2  UNL     1      -1.653  19.308  -1.325  1.00  0.00     0.401 P 
HETATM   29  O8  UNL     1      -2.359  20.625  -1.339  1.00  0.00    -0.631 OA
BRANCH  28  30
HETATM   30  O9  UNL     1      -2.536  18.101  -0.766  1.00  0.00    -0.307 OA
HETATM   31  H24 UNL     1      -3.373  17.947  -1.268  1.00  0.00     0.222 HD
ENDBRANCH  28  30
BRANCH  28  32
HETATM   32  O10 UNL     1      -0.380  19.210  -0.366  1.00  0.00    -0.294 OA
BRANCH  32  33
HETATM   33  C14 UNL     1       0.189  17.960  -0.080  1.00  0.00     0.215 C 
BRANCH  33  34
HETATM   34  C15 UNL     1       0.192  17.829   1.442  1.00  0.00     0.180 C 
HETATM   35  C16 UNL     1       1.155  16.727   1.863  1.00  0.00     0.197 C 
HETATM   36  C17 UNL     1       0.281  15.696   2.552  1.00  0.00     0.199 C 
HETATM   37  C18 UNL     1      -0.901  16.542   3.032  1.00  0.00     0.262 C 
HETATM   38  O11 UNL     1      -1.098  17.510   1.977  1.00  0.00    -0.353 OA
BRANCH  35  39
HETATM   39  O13 UNL     1       2.114  17.294   2.749  1.00  0.00    -0.286 OA
BRANCH  39  40
HETATM   40  P3  UNL     1       3.490  17.750   2.073  1.00  0.00     0.391 P 
HETATM   41  O14 UNL     1       4.687  17.540   2.944  1.00  0.00    -0.632 OA
BRANCH  40  42
HETATM   42  O15 UNL     1       3.134  19.251   1.652  1.00  0.00    -0.307 OA
HETATM   43  H36 UNL     1       3.568  19.896   2.260  1.00  0.00     0.222 HD
ENDBRANCH  40  42
BRANCH  40  44
HETATM   44  O16 UNL     1       3.438  16.964   0.692  1.00  0.00    -0.307 OA
HETATM   45  H37 UNL     1       3.023  16.090   0.771  1.00  0.00     0.222 HD
ENDBRANCH  40  44
ENDBRANCH  39  40
ENDBRANCH  35  39
BRANCH  36  46
HETATM   46  O12 UNL     1       1.032  14.993   3.546  1.00  0.00    -0.388 OA
HETATM   47  H35 UNL     1       0.372  14.572   4.147  1.00  0.00     0.210 HD
ENDBRANCH  36  46
BRANCH  37  48
HETATM   48  N3  UNL     1      -2.115  15.766   3.186  1.00  0.00    -0.297 N 
HETATM   49  C19 UNL     1      -2.708  15.375   4.364  1.00  0.00     0.188 A 
HETATM   50  N4  UNL     1      -3.869  14.790   4.168  1.00  0.00    -0.346 N 
HETATM   51  C20 UNL     1      -4.040  14.807   2.795  1.00  0.00     0.116 A 
HETATM   52  H4  UNL     1      -4.502  14.409   4.870  1.00  0.00     0.167 HD
HETATM   53  C21 UNL     1      -5.086  14.378   1.959  1.00  0.00     0.109 A 
HETATM   54  C23 UNL     1      -2.943  15.374   2.172  1.00  0.00     0.142 A 
HETATM   55  N5  UNL     1      -4.949  14.526   0.619  1.00  0.00    -0.341 N 
HETATM   56  C22 UNL     1      -3.810  15.074   0.151  1.00  0.00     0.183 A 
HETATM   57  H5  UNL     1      -5.688  14.229  -0.018  1.00  0.00     0.167 HD
HETATM   58  N6  UNL     1      -2.750  15.529   0.850  1.00  0.00    -0.336 N 
HETATM   59  H6  UNL     1      -1.913  15.936   0.432  1.00  0.00     0.168 HD
BRANCH  53  60
HETATM   60  N7  UNL     1      -6.252  13.799   2.435  1.00  0.00    -0.287 NA
HETATM   61  H33 UNL     1      -6.278  12.785   2.358  1.00  0.00     0.125 HD
HETATM   62  H34 UNL     1      -7.085  14.299   2.151  1.00  0.00     0.125 HD
ENDBRANCH  53  60
ENDBRANCH  37  48
ENDBRANCH  33  34
ENDBRANCH  32  33
ENDBRANCH  28  32
ENDBRANCH  27  28
ENDBRANCH  23  27
ENDBRANCH  22  23
ENDBRANCH  21  22
ENDBRANCH  18  21
ENDBRANCH  17  18
BRANCH  17  63
HETATM   63  O17 UNL     1       0.164  15.485  -5.015  1.00  0.00    -0.385 OA
HETATM   64  H38 UNL     1      -0.342  15.021  -4.328  1.00  0.00     0.210 HD
ENDBRANCH  17  63
ENDBRANCH  14  17
ENDBRANCH  12  13
ENDBRANCH  11  12
ENDBRANCH   8  11
ENDBRANCH   6   7
ENDBRANCH   5   6
ENDBRANCH   4   5
ENDBRANCH   2   4
TORSDOF 27
ENDMDL
MODEL 11
REMARK VINA RESULT:      -5.3      3.794      6.656
REMARK  27 active torsions:
REMARK  status: ('A' for Active; 'I' for Inactive)
REMARK    1  A    between atoms: C2_2  and  S1_4 
REMARK    2  A    between atoms: S1_4  and  C3_5 
REMARK    3  A    between atoms: C3_5  and  C4_6 
REMARK    4  A    between atoms: C4_6  and  N1_7 
REMARK       I    between atoms: N1_7  and  C5_8 
REMARK    5  A    between atoms: C5_8  and  C6_10 
REMARK    6  A    between atoms: C6_10  and  C7_11 
REMARK    7  A    between atoms: C7_11  and  N2_12 
REMARK       I    between atoms: N2_12  and  C8_13 
REMARK    8  A    between atoms: C8_13  and  C9_15 
REMARK    9  A    between atoms: C9_15  and  C10_16 
REMARK   10  A    between atoms: C9_15  and  O17_54 
REMARK   11  A    between atoms: C10_16  and  C13_19 
REMARK   12  A    between atoms: C13_19  and  O4_20 
REMARK   13  A    between atoms: O4_20  and  P1_21 
REMARK   14  A    between atoms: P1_21  and  O6_23 
REMARK   15  A    between atoms: P1_21  and  O7_24 
REMARK   16  A    between atoms: O7_24  and  P2_25 
REMARK   17  A    between atoms: P2_25  and  O9_27 
REMARK   18  A    between atoms: P2_25  and  O10_28 
REMARK   19  A    between atoms: O10_28  and  C14_29 
REMARK   20  A    between atoms: C14_29  and  C15_30 
REMARK   21  A    between atoms: C16_31  and  O13_49 
REMARK   22  A    between atoms: C17_32  and  O12_48 
REMARK   23  A    between atoms: C18_33  and  N3_35 
REMARK   24  A    between atoms: C21_40  and  N7_47 
REMARK   25  A    between atoms: O13_49  and  P3_50 
REMARK   26  A    between atoms: P3_50  and  O15_52 
REMARK   27  A    between atoms: P3_50  and  O16_53 
ROOT
HETATM    1  C1  UNL     1      -7.803  21.479  -3.529  1.00  0.00     0.104 C 
HETATM    2  C2  UNL     1      -7.638  20.375  -2.530  1.00  0.00     0.182 C 
HETATM    3  O1  UNL     1      -6.544  19.945  -2.174  1.00  0.00    -0.286 OA
ENDROOT
BRANCH   2   4
HETATM    4  S1  UNL     1      -9.151  19.709  -1.929  1.00  0.00    -0.091 SA
BRANCH   4   5
HETATM    5  C3  UNL     1      -8.661  19.275  -0.229  1.00  0.00     0.102 C 
BRANCH   5   6
HETATM    6  C4  UNL     1      -9.163  17.886   0.172  1.00  0.00     0.133 C 
BRANCH   6   7
HETATM    7  N1  UNL     1      -8.165  17.115   0.884  1.00  0.00    -0.360 N 
HETATM    8  C5  UNL     1      -8.339  16.744   2.197  1.00  0.00     0.219 C 
HETATM    9  O2  UNL     1      -9.300  17.108   2.864  1.00  0.00    -0.274 OA
HETATM   10  H8  UNL     1      -7.324  16.838   0.396  1.00  0.00     0.162 HD
BRANCH   8  11
HETATM   11  C6  UNL     1      -7.206  15.897   2.735  1.00  0.00     0.122 C 
BRANCH  11  12
HETATM   12  C7  UNL     1      -5.842  16.404   2.268  1.00  0.00     0.132 C 
BRANCH  12  13
HETATM   13  N2  UNL     1      -5.157  15.470   1.399  1.00  0.00    -0.358 N 
HETATM   14  C8  UNL     1      -4.261  14.558   1.925  1.00  0.00     0.247 C 
HETATM   15  O3  UNL     1      -3.926  14.578   3.103  1.00  0.00    -0.271 OA
HETATM   16  H13 UNL     1      -5.668  15.192   0.564  1.00  0.00     0.162 HD
BRANCH  14  17
HETATM   17  C9  UNL     1      -3.741  13.515   0.925  1.00  0.00     0.219 C 
BRANCH  17  18
HETATM   18  C10 UNL     1      -4.612  12.235   0.821  1.00  0.00     0.009 C 
HETATM   19  C11 UNL     1      -3.779  10.954   0.982  1.00  0.00     0.020 C 
HETATM   20  C12 UNL     1      -5.722  12.217   1.891  1.00  0.00     0.020 C 
BRANCH  18  21
HETATM   21  C13 UNL     1      -5.250  12.267  -0.598  1.00  0.00     0.192 C 
BRANCH  21  22
HETATM   22  O4  UNL     1      -6.620  12.613  -0.563  1.00  0.00    -0.296 OA
BRANCH  22  23
HETATM   23  P1  UNL     1      -7.212  13.901  -1.313  1.00  0.00     0.401 P 
HETATM   24  O5  UNL     1      -8.424  14.486  -0.659  1.00  0.00    -0.631 OA
BRANCH  23  25
HETATM   25  O6  UNL     1      -7.442  13.480  -2.850  1.00  0.00    -0.307 OA
HETATM   26  H23 UNL     1      -7.936  12.654  -2.928  1.00  0.00     0.222 HD
ENDBRANCH  23  25
BRANCH  23  27
HETATM   27  O7  UNL     1      -5.981  14.900  -1.447  1.00  0.00    -0.195 OA
BRANCH  27  28
HETATM   28  P2  UNL     1      -6.175  16.257  -2.258  1.00  0.00     0.401 P 
HETATM   29  O8  UNL     1      -7.455  16.418  -3.012  1.00  0.00    -0.631 OA
BRANCH  28  30
HETATM   30  O9  UNL     1      -5.924  17.383  -1.154  1.00  0.00    -0.307 OA
HETATM   31  H24 UNL     1      -6.676  17.507  -0.525  1.00  0.00     0.222 HD
ENDBRANCH  28  30
BRANCH  28  32
HETATM   32  O10 UNL     1      -4.837  16.387  -3.120  1.00  0.00    -0.294 OA
BRANCH  32  33
HETATM   33  C14 UNL     1      -4.176  15.233  -3.569  1.00  0.00     0.215 C 
BRANCH  33  34
HETATM   34  C15 UNL     1      -2.688  15.577  -3.598  1.00  0.00     0.180 C 
HETATM   35  C16 UNL     1      -2.507  17.086  -3.506  1.00  0.00     0.197 C 
HETATM   36  C17 UNL     1      -1.827  17.471  -4.807  1.00  0.00     0.199 C 
HETATM   37  C18 UNL     1      -1.119  16.172  -5.198  1.00  0.00     0.262 C 
HETATM   38  O11 UNL     1      -2.034  15.131  -4.792  1.00  0.00    -0.353 OA
BRANCH  35  39
HETATM   39  O13 UNL     1      -1.692  17.365  -2.373  1.00  0.00    -0.286 OA
BRANCH  39  40
HETATM   40  P3  UNL     1      -2.410  18.161  -1.187  1.00  0.00     0.391 P 
HETATM   41  O14 UNL     1      -1.479  19.006  -0.378  1.00  0.00    -0.632 OA
BRANCH  40  42
HETATM   42  O15 UNL     1      -3.165  16.966  -0.438  1.00  0.00    -0.307 OA
HETATM   43  H36 UNL     1      -3.084  17.060   0.541  1.00  0.00     0.222 HD
ENDBRANCH  40  42
BRANCH  40  44
HETATM   44  O16 UNL     1      -3.583  18.898  -1.967  1.00  0.00    -0.307 OA
HETATM   45  H37 UNL     1      -3.294  19.721  -2.392  1.00  0.00     0.222 HD
ENDBRANCH  40  44
ENDBRANCH  39  40
ENDBRANCH  35  39
BRANCH  36  46
HETATM   46  O12 UNL     1      -1.013  18.631  -4.617  1.00  0.00    -0.388 OA
HETATM   47  H35 UNL     1      -0.213  18.331  -4.123  1.00  0.00     0.210 HD
ENDBRANCH  36  46
BRANCH  37  48
HETATM   48  N3  UNL     1      -0.899  16.067  -6.627  1.00  0.00    -0.297 N 
HETATM   49  C19 UNL     1      -1.710  15.449  -7.550  1.00  0.00     0.188 A 
HETATM   50  N4  UNL     1      -1.295  15.638  -8.784  1.00  0.00    -0.346 N 
HETATM   51  C20 UNL     1      -0.163  16.422  -8.655  1.00  0.00     0.116 A 
HETATM   52  H4  UNL     1      -1.715  15.286  -9.644  1.00  0.00     0.167 HD
HETATM   53  C21 UNL     1       0.710  16.997  -9.595  1.00  0.00     0.109 A 
HETATM   54  C23 UNL     1       0.117  16.662  -7.322  1.00  0.00     0.142 A 
HETATM   55  N5  UNL     1       1.763  17.723  -9.144  1.00  0.00    -0.341 N 
HETATM   56  C22 UNL     1       1.924  17.854  -7.813  1.00  0.00     0.183 A 
HETATM   57  H5  UNL     1       2.415  18.158  -9.796  1.00  0.00     0.167 HD
HETATM   58  N6  UNL     1       1.153  17.359  -6.823  1.00  0.00    -0.336 N 
HETATM   59  H6  UNL     1       1.332  17.495  -5.827  1.00  0.00     0.168 HD
BRANCH  53  60
HETATM   60  N7  UNL     1       0.557  16.853 -10.965  1.00  0.00    -0.287 NA
HETATM   61  H33 UNL     1       1.192  16.180 -11.389  1.00  0.00     0.125 HD
HETATM   62  H34 UNL     1       0.443  17.736 -11.444  1.00  0.00     0.125 HD
ENDBRANCH  53  60
ENDBRANCH  37  48
ENDBRANCH  33  34
ENDBRANCH  32  33
ENDBRANCH  28  32
ENDBRANCH  27  28
ENDBRANCH  23  27
ENDBRANCH  22  23
ENDBRANCH  21  22
ENDBRANCH  18  21
ENDBRANCH  17  18
BRANCH  17  63
HETATM   63  O17 UNL     1      -3.630  14.095  -0.379  1.00  0.00    -0.385 OA
HETATM   64  H38 UNL     1      -4.465  14.551  -0.579  1.00  0.00     0.210 HD
ENDBRANCH  17  63
ENDBRANCH  14  17
ENDBRANCH  12  13
ENDBRANCH  11  12
ENDBRANCH   8  11
ENDBRANCH   6   7
ENDBRANCH   5   6
ENDBRANCH   4   5
ENDBRANCH   2   4
TORSDOF 27
ENDMDL
MODEL 12
REMARK VINA RESULT:      -5.3      3.058      4.690
REMARK  27 active torsions:
REMARK  status: ('A' for Active; 'I' for Inactive)
REMARK    1  A    between atoms: C2_2  and  S1_4 
REMARK    2  A    between atoms: S1_4  and  C3_5 
REMARK    3  A    between atoms: C3_5  and  C4_6 
REMARK    4  A    between atoms: C4_6  and  N1_7 
REMARK       I    between atoms: N1_7  and  C5_8 
REMARK    5  A    between atoms: C5_8  and  C6_10 
REMARK    6  A    between atoms: C6_10  and  C7_11 
REMARK    7  A    between atoms: C7_11  and  N2_12 
REMARK       I    between atoms: N2_12  and  C8_13 
REMARK    8  A    between atoms: C8_13  and  C9_15 
REMARK    9  A    between atoms: C9_15  and  C10_16 
REMARK   10  A    between atoms: C9_15  and  O17_54 
REMARK   11  A    between atoms: C10_16  and  C13_19 
REMARK   12  A    between atoms: C13_19  and  O4_20 
REMARK   13  A    between atoms: O4_20  and  P1_21 
REMARK   14  A    between atoms: P1_21  and  O6_23 
REMARK   15  A    between atoms: P1_21  and  O7_24 
REMARK   16  A    between atoms: O7_24  and  P2_25 
REMARK   17  A    between atoms: P2_25  and  O9_27 
REMARK   18  A    between atoms: P2_25  and  O10_28 
REMARK   19  A    between atoms: O10_28  and  C14_29 
REMARK   20  A    between atoms: C14_29  and  C15_30 
REMARK   21  A    between atoms: C16_31  and  O13_49 
REMARK   22  A    between atoms: C17_32  and  O12_48 
REMARK   23  A    between atoms: C18_33  and  N3_35 
REMARK   24  A    between atoms: C21_40  and  N7_47 
REMARK   25  A    between atoms: O13_49  and  P3_50 
REMARK   26  A    between atoms: P3_50  and  O15_52 
REMARK   27  A    between atoms: P3_50  and  O16_53 
ROOT
HETATM    1  C1  UNL     1     -13.740  11.675  -0.415  1.00  0.00     0.104 C 
HETATM    2  C2  UNL     1     -12.700  12.737  -0.606  1.00  0.00     0.182 C 
HETATM    3  O1  UNL     1     -12.898  13.925  -0.367  1.00  0.00    -0.286 OA
ENDROOT
BRANCH   2   4
HETATM    4  S1  UNL     1     -11.170  12.147  -1.241  1.00  0.00    -0.091 SA
BRANCH   4   5
HETATM    5  C3  UNL     1     -10.772  10.874   0.000  1.00  0.00     0.102 C 
BRANCH   5   6
HETATM    6  C4  UNL     1     -10.149  11.481   1.259  1.00  0.00     0.133 C 
BRANCH   6   7
HETATM    7  N1  UNL     1      -9.553  12.779   1.018  1.00  0.00    -0.360 N 
HETATM    8  C5  UNL     1      -9.967  13.903   1.695  1.00  0.00     0.219 C 
HETATM    9  O2  UNL     1     -10.911  13.892   2.477  1.00  0.00    -0.274 OA
HETATM   10  H8  UNL     1      -8.808  12.854   0.339  1.00  0.00     0.162 HD
BRANCH   8  11
HETATM   11  C6  UNL     1      -9.179  15.143   1.336  1.00  0.00     0.122 C 
BRANCH  11  12
HETATM   12  C7  UNL     1      -7.883  14.803   0.601  1.00  0.00     0.132 C 
BRANCH  12  13
HETATM   13  N2  UNL     1      -6.698  15.058   1.392  1.00  0.00    -0.358 N 
HETATM   14  C8  UNL     1      -6.037  14.014   2.013  1.00  0.00     0.247 C 
HETATM   15  O3  UNL     1      -6.482  12.873   2.020  1.00  0.00    -0.271 OA
HETATM   16  H13 UNL     1      -6.136  15.854   1.096  1.00  0.00     0.162 HD
BRANCH  14  17
HETATM   17  C9  UNL     1      -4.701  14.396   2.669  1.00  0.00     0.219 C 
BRANCH  17  18
HETATM   18  C10 UNL     1      -3.464  14.236   1.747  1.00  0.00     0.009 C 
HETATM   19  C11 UNL     1      -2.191  14.815   2.383  1.00  0.00     0.020 C 
HETATM   20  C12 UNL     1      -3.196  12.755   1.412  1.00  0.00     0.020 C 
BRANCH  18  21
HETATM   21  C13 UNL     1      -3.798  15.016   0.444  1.00  0.00     0.192 C 
BRANCH  21  22
HETATM   22  O4  UNL     1      -3.317  16.345   0.473  1.00  0.00    -0.296 OA
BRANCH  22  23
HETATM   23  P1  UNL     1      -3.977  17.529  -0.383  1.00  0.00     0.401 P 
HETATM   24  O5  UNL     1      -3.553  18.900   0.041  1.00  0.00    -0.631 OA
BRANCH  23  25
HETATM   25  O6  UNL     1      -5.570  17.301  -0.343  1.00  0.00    -0.307 OA
HETATM   26  H23 UNL     1      -5.936  17.153  -1.224  1.00  0.00     0.222 HD
ENDBRANCH  23  25
BRANCH  23  27
HETATM   27  O7  UNL     1      -3.651  17.171  -1.899  1.00  0.00    -0.195 OA
BRANCH  27  28
HETATM   28  P2  UNL     1      -4.552  17.805  -3.050  1.00  0.00     0.401 P 
HETATM   29  O8  UNL     1      -5.780  17.051  -3.442  1.00  0.00    -0.631 OA
BRANCH  28  30
HETATM   30  O9  UNL     1      -4.837  19.284  -2.519  1.00  0.00    -0.307 OA
HETATM   31  H24 UNL     1      -4.267  19.978  -2.932  1.00  0.00     0.222 HD
ENDBRANCH  28  30
BRANCH  28  32
HETATM   32  O10 UNL     1      -3.515  18.111  -4.226  1.00  0.00    -0.294 OA
BRANCH  32  33
HETATM   33  C14 UNL     1      -3.612  17.420  -5.444  1.00  0.00     0.215 C 
BRANCH  33  34
HETATM   34  C15 UNL     1      -2.357  16.554  -5.545  1.00  0.00     0.180 C 
HETATM   35  C16 UNL     1      -2.314  15.865  -6.902  1.00  0.00     0.197 C 
HETATM   36  C17 UNL     1      -2.370  14.383  -6.583  1.00  0.00     0.199 C 
HETATM   37  C18 UNL     1      -1.796  14.337  -5.165  1.00  0.00     0.262 C 
HETATM   38  O11 UNL     1      -2.298  15.538  -4.538  1.00  0.00    -0.353 OA
BRANCH  35  39
HETATM   39  O13 UNL     1      -1.096  16.231  -7.543  1.00  0.00    -0.286 OA
BRANCH  39  40
HETATM   40  P3  UNL     1      -1.253  16.919  -8.978  1.00  0.00     0.391 P 
HETATM   41  O14 UNL     1      -2.604  17.511  -9.218  1.00  0.00    -0.632 OA
BRANCH  40  42
HETATM   42  O15 UNL     1      -0.786  15.725  -9.935  1.00  0.00    -0.307 OA
HETATM   43  H36 UNL     1       0.185  15.569  -9.850  1.00  0.00     0.222 HD
ENDBRANCH  40  42
BRANCH  40  44
HETATM   44  O16 UNL     1      -0.004  17.904  -8.993  1.00  0.00    -0.307 OA
HETATM   45  H37 UNL     1       0.507  17.877  -8.168  1.00  0.00     0.222 HD
ENDBRANCH  40  44
ENDBRANCH  39  40
ENDBRANCH  35  39
BRANCH  36  46
HETATM   46  O12 UNL     1      -1.688  13.633  -7.592  1.00  0.00    -0.388 OA
HETATM   47  H35 UNL     1      -1.890  12.683  -7.416  1.00  0.00     0.210 HD
ENDBRANCH  36  46
BRANCH  37  48
HETATM   48  N3  UNL     1      -2.263  13.189  -4.413  1.00  0.00    -0.297 N 
HETATM   49  C19 UNL     1      -1.660  11.956  -4.319  1.00  0.00     0.188 A 
HETATM   50  N4  UNL     1      -2.266  11.169  -3.457  1.00  0.00    -0.346 N 
HETATM   51  C20 UNL     1      -3.311  11.931  -2.965  1.00  0.00     0.116 A 
HETATM   52  H4  UNL     1      -2.021  10.211  -3.207  1.00  0.00     0.167 HD
HETATM   53  C21 UNL     1      -4.295  11.682  -1.992  1.00  0.00     0.109 A 
HETATM   54  C23 UNL     1      -3.344  13.170  -3.578  1.00  0.00     0.142 A 
HETATM   55  N5  UNL     1      -5.211  12.648  -1.734  1.00  0.00    -0.341 N 
HETATM   56  C22 UNL     1      -5.135  13.801  -2.428  1.00  0.00     0.183 A 
HETATM   57  H5  UNL     1      -5.937  12.506  -1.033  1.00  0.00     0.167 HD
HETATM   58  N6  UNL     1      -4.237  14.154  -3.371  1.00  0.00    -0.336 N 
HETATM   59  H6  UNL     1      -4.235  15.049  -3.861  1.00  0.00     0.168 HD
BRANCH  53  60
HETATM   60  N7  UNL     1      -4.387  10.493  -1.287  1.00  0.00    -0.287 NA
HETATM   61  H33 UNL     1      -3.581  10.292  -0.699  1.00  0.00     0.125 HD
HETATM   62  H34 UNL     1      -4.746   9.730  -1.845  1.00  0.00     0.125 HD
ENDBRANCH  53  60
ENDBRANCH  37  48
ENDBRANCH  33  34
ENDBRANCH  32  33
ENDBRANCH  28  32
ENDBRANCH  27  28
ENDBRANCH  23  27
ENDBRANCH  22  23
ENDBRANCH  21  22
ENDBRANCH  18  21
ENDBRANCH  17  18
BRANCH  17  63
HETATM   63  O17 UNL     1      -4.750  15.749   3.133  1.00  0.00    -0.385 OA
HETATM   64  H38 UNL     1      -4.855  16.330   2.361  1.00  0.00     0.210 HD
ENDBRANCH  17  63
ENDBRANCH  14  17
ENDBRANCH  12  13
ENDBRANCH  11  12
ENDBRANCH   8  11
ENDBRANCH   6   7
ENDBRANCH   5   6
ENDBRANCH   4   5
ENDBRANCH   2   4
TORSDOF 27
ENDMDL
MODEL 13
REMARK VINA RESULT:      -5.3      3.774      9.891
REMARK  27 active torsions:
REMARK  status: ('A' for Active; 'I' for Inactive)
REMARK    1  A    between atoms: C2_2  and  S1_4 
REMARK    2  A    between atoms: S1_4  and  C3_5 
REMARK    3  A    between atoms: C3_5  and  C4_6 
REMARK    4  A    between atoms: C4_6  and  N1_7 
REMARK       I    between atoms: N1_7  and  C5_8 
REMARK    5  A    between atoms: C5_8  and  C6_10 
REMARK    6  A    between atoms: C6_10  and  C7_11 
REMARK    7  A    between atoms: C7_11  and  N2_12 
REMARK       I    between atoms: N2_12  and  C8_13 
REMARK    8  A    between atoms: C8_13  and  C9_15 
REMARK    9  A    between atoms: C9_15  and  C10_16 
REMARK   10  A    between atoms: C9_15  and  O17_54 
REMARK   11  A    between atoms: C10_16  and  C13_19 
REMARK   12  A    between atoms: C13_19  and  O4_20 
REMARK   13  A    between atoms: O4_20  and  P1_21 
REMARK   14  A    between atoms: P1_21  and  O6_23 
REMARK   15  A    between atoms: P1_21  and  O7_24 
REMARK   16  A    between atoms: O7_24  and  P2_25 
REMARK   17  A    between atoms: P2_25  and  O9_27 
REMARK   18  A    between atoms: P2_25  and  O10_28 
REMARK   19  A    between atoms: O10_28  and  C14_29 
REMARK   20  A    between atoms: C14_29  and  C15_30 
REMARK   21  A    between atoms: C16_31  and  O13_49 
REMARK   22  A    between atoms: C17_32  and  O12_48 
REMARK   23  A    between atoms: C18_33  and  N3_35 
REMARK   24  A    between atoms: C21_40  and  N7_47 
REMARK   25  A    between atoms: O13_49  and  P3_50 
REMARK   26  A    between atoms: P3_50  and  O15_52 
REMARK   27  A    between atoms: P3_50  and  O16_53 
ROOT
HETATM    1  C1  UNL     1       0.753  23.078  -7.725  1.00  0.00     0.104 C 
HETATM    2  C2  UNL     1       1.010  22.223  -6.522  1.00  0.00     0.182 C 
HETATM    3  O1  UNL     1       1.092  22.671  -5.381  1.00  0.00    -0.286 OA
ENDROOT
BRANCH   2   4
HETATM    4  S1  UNL     1       1.230  20.516  -6.881  1.00  0.00    -0.091 SA
BRANCH   4   5
HETATM    5  C3  UNL     1      -0.493  20.033  -7.224  1.00  0.00     0.102 C 
BRANCH   5   6
HETATM    6  C4  UNL     1      -0.759  18.571  -6.861  1.00  0.00     0.133 C 
BRANCH   6   7
HETATM    7  N1  UNL     1       0.442  17.762  -6.881  1.00  0.00    -0.360 N 
HETATM    8  C5  UNL     1       0.644  16.789  -7.832  1.00  0.00     0.219 C 
HETATM    9  O2  UNL     1      -0.206  16.493  -8.664  1.00  0.00    -0.274 OA
HETATM   10  H8  UNL     1       1.151  17.927  -6.179  1.00  0.00     0.162 HD
BRANCH   8  11
HETATM   11  C6  UNL     1       1.985  16.100  -7.708  1.00  0.00     0.122 C 
BRANCH  11  12
HETATM   12  C7  UNL     1       1.861  14.721  -7.061  1.00  0.00     0.132 C 
BRANCH  12  13
HETATM   13  N2  UNL     1       0.524  14.173  -7.146  1.00  0.00    -0.358 N 
HETATM   14  C8  UNL     1      -0.055  13.573  -6.042  1.00  0.00     0.247 C 
HETATM   15  O3  UNL     1       0.568  13.376  -5.006  1.00  0.00    -0.271 OA
HETATM   16  H13 UNL     1      -0.100  14.637  -7.803  1.00  0.00     0.162 HD
BRANCH  14  17
HETATM   17  C9  UNL     1      -1.534  13.196  -6.215  1.00  0.00     0.219 C 
BRANCH  17  18
HETATM   18  C10 UNL     1      -2.503  13.941  -5.260  1.00  0.00     0.009 C 
HETATM   19  C11 UNL     1      -1.966  15.321  -4.852  1.00  0.00     0.020 C 
HETATM   20  C12 UNL     1      -3.889  14.143  -5.905  1.00  0.00     0.020 C 
BRANCH  18  21
HETATM   21  C13 UNL     1      -2.637  13.040  -3.999  1.00  0.00     0.192 C 
BRANCH  21  22
HETATM   22  O4  UNL     1      -3.965  12.979  -3.520  1.00  0.00    -0.296 OA
BRANCH  22  23
HETATM   23  P1  UNL     1      -4.328  12.587  -2.008  1.00  0.00     0.401 P 
HETATM   24  O5  UNL     1      -3.798  11.255  -1.577  1.00  0.00    -0.631 OA
BRANCH  23  25
HETATM   25  O6  UNL     1      -5.925  12.728  -1.861  1.00  0.00    -0.307 OA
HETATM   26  H23 UNL     1      -6.178  13.566  -1.452  1.00  0.00     0.222 HD
ENDBRANCH  23  25
BRANCH  23  27
HETATM   27  O7  UNL     1      -3.827  13.817  -1.132  1.00  0.00    -0.195 OA
BRANCH  27  28
HETATM   28  P2  UNL     1      -4.473  14.053   0.305  1.00  0.00     0.401 P 
HETATM   29  O8  UNL     1      -5.839  14.656   0.342  1.00  0.00    -0.631 OA
BRANCH  28  30
HETATM   30  O9  UNL     1      -4.377  12.614   0.990  1.00  0.00    -0.307 OA
HETATM   31  H24 UNL     1      -5.227  12.109   0.989  1.00  0.00     0.222 HD
ENDBRANCH  28  30
BRANCH  28  32
HETATM   32  O10 UNL     1      -3.341  14.838   1.112  1.00  0.00    -0.294 OA
BRANCH  32  33
HETATM   33  C14 UNL     1      -3.093  14.525   2.458  1.00  0.00     0.215 C 
BRANCH  33  34
HETATM   34  C15 UNL     1      -2.670  15.831   3.129  1.00  0.00     0.180 C 
HETATM   35  C16 UNL     1      -2.769  16.978   2.132  1.00  0.00     0.197 C 
HETATM   36  C17 UNL     1      -1.349  17.493   1.996  1.00  0.00     0.199 C 
HETATM   37  C18 UNL     1      -0.726  17.078   3.331  1.00  0.00     0.262 C 
HETATM   38  O11 UNL     1      -1.326  15.796   3.622  1.00  0.00    -0.353 OA
BRANCH  35  39
HETATM   39  O13 UNL     1      -3.646  17.960   2.675  1.00  0.00    -0.286 OA
BRANCH  39  40
HETATM   40  P3  UNL     1      -5.072  18.079   1.962  1.00  0.00     0.391 P 
HETATM   41  O14 UNL     1      -6.177  17.403   2.709  1.00  0.00    -0.632 OA
BRANCH  40  42
HETATM   42  O15 UNL     1      -4.723  17.532   0.500  1.00  0.00    -0.307 OA
HETATM   43  H36 UNL     1      -3.749  17.413   0.396  1.00  0.00     0.222 HD
ENDBRANCH  40  42
BRANCH  40  44
HETATM   44  O16 UNL     1      -5.185  19.650   1.744  1.00  0.00    -0.307 OA
HETATM   45  H37 UNL     1      -4.746  19.950   0.932  1.00  0.00     0.222 HD
ENDBRANCH  40  44
ENDBRANCH  39  40
ENDBRANCH  35  39
BRANCH  36  46
HETATM   46  O12 UNL     1      -1.354  18.887   1.679  1.00  0.00    -0.388 OA
HETATM   47  H35 UNL     1      -1.755  19.347   2.455  1.00  0.00     0.210 HD
ENDBRANCH  36  46
BRANCH  37  48
HETATM   48  N3  UNL     1       0.711  16.911   3.247  1.00  0.00    -0.297 N 
HETATM   49  C19 UNL     1       1.412  15.728   3.253  1.00  0.00     0.188 A 
HETATM   50  N4  UNL     1       2.697  15.908   3.034  1.00  0.00    -0.346 N 
HETATM   51  C20 UNL     1       2.834  17.276   2.874  1.00  0.00     0.116 A 
HETATM   52  H4  UNL     1       3.428  15.199   2.991  1.00  0.00     0.167 HD
HETATM   53  C21 UNL     1       3.938  18.094   2.577  1.00  0.00     0.109 A 
HETATM   54  C23 UNL     1       1.619  17.913   3.043  1.00  0.00     0.142 A 
HETATM   55  N5  UNL     1       3.749  19.434   2.494  1.00  0.00    -0.341 N 
HETATM   56  C22 UNL     1       2.510  19.918   2.706  1.00  0.00     0.183 A 
HETATM   57  H5  UNL     1       4.526  20.059   2.277  1.00  0.00     0.167 HD
HETATM   58  N6  UNL     1       1.381  19.235   2.987  1.00  0.00    -0.336 N 
HETATM   59  H6  UNL     1       0.468  19.665   3.138  1.00  0.00     0.168 HD
BRANCH  53  60
HETATM   60  N7  UNL     1       5.218  17.603   2.372  1.00  0.00    -0.287 NA
HETATM   61  H33 UNL     1       5.947  18.312   2.395  1.00  0.00     0.125 HD
HETATM   62  H34 UNL     1       5.265  16.925   1.624  1.00  0.00     0.125 HD
ENDBRANCH  53  60
ENDBRANCH  37  48
ENDBRANCH  33  34
ENDBRANCH  32  33
ENDBRANCH  28  32
ENDBRANCH  27  28
ENDBRANCH  23  27
ENDBRANCH  22  23
ENDBRANCH  21  22
ENDBRANCH  18  21
ENDBRANCH  17  18
BRANCH  17  63
HETATM   63  O17 UNL     1      -1.950  13.437  -7.563  1.00  0.00    -0.385 OA
HETATM   64  H38 UNL     1      -1.967  12.585  -8.031  1.00  0.00     0.210 HD
ENDBRANCH  17  63
ENDBRANCH  14  17
ENDBRANCH  12  13
ENDBRANCH  11  12
ENDBRANCH   8  11
ENDBRANCH   6   7
ENDBRANCH   5   6
ENDBRANCH   4   5
ENDBRANCH   2   4
TORSDOF 27
ENDMDL
MODEL 14
REMARK VINA RESULT:      -5.3      2.883      5.199
REMARK  27 active torsions:
REMARK  status: ('A' for Active; 'I' for Inactive)
REMARK    1  A    between atoms: C2_2  and  S1_4 
REMARK    2  A    between atoms: S1_4  and  C3_5 
REMARK    3  A    between atoms: C3_5  and  C4_6 
REMARK    4  A    between atoms: C4_6  and  N1_7 
REMARK       I    between atoms: N1_7  and  C5_8 
REMARK    5  A    between atoms: C5_8  and  C6_10 
REMARK    6  A    between atoms: C6_10  and  C7_11 
REMARK    7  A    between atoms: C7_11  and  N2_12 
REMARK       I    between atoms: N2_12  and  C8_13 
REMARK    8  A    between atoms: C8_13  and  C9_15 
REMARK    9  A    between atoms: C9_15  and  C10_16 
REMARK   10  A    between atoms: C9_15  and  O17_54 
REMARK   11  A    between atoms: C10_16  and  C13_19 
REMARK   12  A    between atoms: C13_19  and  O4_20 
REMARK   13  A    between atoms: O4_20  and  P1_21 
REMARK   14  A    between atoms: P1_21  and  O6_23 
REMARK   15  A    between atoms: P1_21  and  O7_24 
REMARK   16  A    between atoms: O7_24  and  P2_25 
REMARK   17  A    between atoms: P2_25  and  O9_27 
REMARK   18  A    between atoms: P2_25  and  O10_28 
REMARK   19  A    between atoms: O10_28  and  C14_29 
REMARK   20  A    between atoms: C14_29  and  C15_30 
REMARK   21  A    between atoms: C16_31  and  O13_49 
REMARK   22  A    between atoms: C17_32  and  O12_48 
REMARK   23  A    between atoms: C18_33  and  N3_35 
REMARK   24  A    between atoms: C21_40  and  N7_47 
REMARK   25  A    between atoms: O13_49  and  P3_50 
REMARK   26  A    between atoms: P3_50  and  O15_52 
REMARK   27  A    between atoms: P3_50  and  O16_53 
ROOT
HETATM    1  C1  UNL     1      -2.495  20.644   1.782  1.00  0.00     0.104 C 
HETATM    2  C2  UNL     1      -1.467  19.882   2.561  1.00  0.00     0.182 C 
HETATM    3  O1  UNL     1      -1.028  18.790   2.210  1.00  0.00    -0.286 OA
ENDROOT
BRANCH   2   4
HETATM    4  S1  UNL     1      -0.961  20.664   4.052  1.00  0.00    -0.091 SA
BRANCH   4   5
HETATM    5  C3  UNL     1       0.842  20.426   3.947  1.00  0.00     0.102 C 
BRANCH   5   6
HETATM    6  C4  UNL     1       1.324  19.308   4.873  1.00  0.00     0.133 C 
BRANCH   6   7
HETATM    7  N1  UNL     1       0.925  17.992   4.417  1.00  0.00    -0.360 N 
HETATM    8  C5  UNL     1       0.154  17.159   5.195  1.00  0.00     0.219 C 
HETATM    9  O2  UNL     1      -0.171  17.442   6.342  1.00  0.00    -0.274 OA
HETATM   10  H8  UNL     1       1.216  17.687   3.498  1.00  0.00     0.162 HD
BRANCH   8  11
HETATM   11  C6  UNL     1      -0.198  15.856   4.510  1.00  0.00     0.122 C 
BRANCH  11  12
HETATM   12  C7  UNL     1      -1.709  15.662   4.396  1.00  0.00     0.132 C 
BRANCH  12  13
HETATM   13  N2  UNL     1      -2.261  16.208   3.174  1.00  0.00    -0.358 N 
HETATM   14  C8  UNL     1      -2.877  15.377   2.256  1.00  0.00     0.247 C 
HETATM   15  O3  UNL     1      -2.877  14.159   2.376  1.00  0.00    -0.271 OA
HETATM   16  H13 UNL     1      -2.600  17.166   3.236  1.00  0.00     0.162 HD
BRANCH  14  17
HETATM   17  C9  UNL     1      -3.573  16.104   1.095  1.00  0.00     0.219 C 
BRANCH  17  18
HETATM   18  C10 UNL     1      -5.017  16.578   1.406  1.00  0.00     0.009 C 
HETATM   19  C11 UNL     1      -5.742  15.628   2.371  1.00  0.00     0.020 C 
HETATM   20  C12 UNL     1      -5.027  17.988   2.030  1.00  0.00     0.020 C 
BRANCH  18  21
HETATM   21  C13 UNL     1      -5.761  16.603   0.040  1.00  0.00     0.192 C 
BRANCH  21  22
HETATM   22  O4  UNL     1      -4.888  16.846  -1.044  1.00  0.00    -0.296 OA
BRANCH  22  23
HETATM   23  P1  UNL     1      -4.866  18.232  -1.850  1.00  0.00     0.401 P 
HETATM   24  O5  UNL     1      -3.756  19.153  -1.454  1.00  0.00    -0.631 OA
BRANCH  23  25
HETATM   25  O6  UNL     1      -6.332  18.880  -1.701  1.00  0.00    -0.307 OA
HETATM   26  H23 UNL     1      -6.903  18.658  -2.448  1.00  0.00     0.222 HD
ENDBRANCH  23  25
BRANCH  23  27
HETATM   27  O7  UNL     1      -4.867  17.815  -3.385  1.00  0.00    -0.195 OA
BRANCH  27  28
HETATM   28  P2  UNL     1      -5.994  16.819  -3.911  1.00  0.00     0.401 P 
HETATM   29  O8  UNL     1      -7.332  16.901  -3.252  1.00  0.00    -0.631 OA
BRANCH  28  30
HETATM   30  O9  UNL     1      -6.025  17.098  -5.483  1.00  0.00    -0.307 OA
HETATM   31  H24 UNL     1      -5.669  16.357  -6.032  1.00  0.00     0.222 HD
ENDBRANCH  28  30
BRANCH  28  32
HETATM   32  O10 UNL     1      -5.288  15.387  -3.881  1.00  0.00    -0.294 OA
BRANCH  32  33
HETATM   33  C14 UNL     1      -4.049  15.201  -4.513  1.00  0.00     0.215 C 
BRANCH  33  34
HETATM   34  C15 UNL     1      -3.182  14.415  -3.530  1.00  0.00     0.180 C 
HETATM   35  C16 UNL     1      -2.760  13.094  -4.159  1.00  0.00     0.197 C 
HETATM   36  C17 UNL     1      -3.373  12.030  -3.268  1.00  0.00     0.199 C 
HETATM   37  C18 UNL     1      -3.506  12.766  -1.932  1.00  0.00     0.262 C 
HETATM   38  O11 UNL     1      -3.859  14.117  -2.303  1.00  0.00    -0.353 OA
BRANCH  35  39
HETATM   39  O13 UNL     1      -1.337  13.040  -4.158  1.00  0.00    -0.286 OA
BRANCH  39  40
HETATM   40  P3  UNL     1      -0.629  13.505  -5.514  1.00  0.00     0.391 P 
HETATM   41  O14 UNL     1      -0.484  14.988  -5.640  1.00  0.00    -0.632 OA
BRANCH  40  42
HETATM   42  O15 UNL     1      -1.535  12.755  -6.598  1.00  0.00    -0.307 OA
HETATM   43  H36 UNL     1      -1.938  13.402  -7.224  1.00  0.00     0.222 HD
ENDBRANCH  40  42
BRANCH  40  44
HETATM   44  O16 UNL     1       0.702  12.635  -5.489  1.00  0.00    -0.307 OA
HETATM   45  H37 UNL     1       1.314  12.903  -4.786  1.00  0.00     0.222 HD
ENDBRANCH  40  44
ENDBRANCH  39  40
ENDBRANCH  35  39
BRANCH  36  46
HETATM   46  O12 UNL     1      -2.573  10.845  -3.287  1.00  0.00    -0.388 OA
HETATM   47  H35 UNL     1      -3.054  10.176  -2.744  1.00  0.00     0.210 HD
ENDBRANCH  36  46
BRANCH  37  48
HETATM   48  N3  UNL     1      -4.560  12.222  -1.100  1.00  0.00    -0.297 N 
HETATM   49  C19 UNL     1      -4.436  11.263  -0.122  1.00  0.00     0.188 A 
HETATM   50  N4  UNL     1      -5.557  11.077   0.540  1.00  0.00    -0.346 N 
HETATM   51  C20 UNL     1      -6.452  11.962  -0.034  1.00  0.00     0.116 A 
HETATM   52  H4  UNL     1      -5.728  10.425   1.306  1.00  0.00     0.167 HD
HETATM   53  C21 UNL     1      -7.792  12.278   0.247  1.00  0.00     0.109 A 
HETATM   54  C23 UNL     1      -5.858  12.650  -1.077  1.00  0.00     0.142 A 
HETATM   55  N5  UNL     1      -8.415  13.206  -0.520  1.00  0.00    -0.341 N 
HETATM   56  C22 UNL     1      -7.717  13.779  -1.521  1.00  0.00     0.183 A 
HETATM   57  H5  UNL     1      -9.386  13.464  -0.345  1.00  0.00     0.167 HD
HETATM   58  N6  UNL     1      -6.434  13.565  -1.877  1.00  0.00    -0.336 N 
HETATM   59  H6  UNL     1      -5.962  14.035  -2.650  1.00  0.00     0.168 HD
BRANCH  53  60
HETATM   60  N7  UNL     1      -8.519  11.681   1.265  1.00  0.00    -0.287 NA
HETATM   61  H33 UNL     1      -8.375  10.677   1.349  1.00  0.00     0.125 HD
HETATM   62  H34 UNL     1      -9.474  12.011   1.314  1.00  0.00     0.125 HD
ENDBRANCH  53  60
ENDBRANCH  37  48
ENDBRANCH  33  34
ENDBRANCH  32  33
ENDBRANCH  28  32
ENDBRANCH  27  28
ENDBRANCH  23  27
ENDBRANCH  22  23
ENDBRANCH  21  22
ENDBRANCH  18  21
ENDBRANCH  17  18
BRANCH  17  63
HETATM   63  O17 UNL     1      -2.799  17.239   0.690  1.00  0.00    -0.385 OA
HETATM   64  H38 UNL     1      -1.875  17.080   0.943  1.00  0.00     0.210 HD
ENDBRANCH  17  63
ENDBRANCH  14  17
ENDBRANCH  12  13
ENDBRANCH  11  12
ENDBRANCH   8  11
ENDBRANCH   6   7
ENDBRANCH   5   6
ENDBRANCH   4   5
ENDBRANCH   2   4
TORSDOF 27
ENDMDL
MODEL 15
REMARK VINA RESULT:      -5.2      3.679      6.438
REMARK  27 active torsions:
REMARK  status: ('A' for Active; 'I' for Inactive)
REMARK    1  A    between atoms: C2_2  and  S1_4 
REMARK    2  A    between atoms: S1_4  and  C3_5 
REMARK    3  A    between atoms: C3_5  and  C4_6 
REMARK    4  A    between atoms: C4_6  and  N1_7 
REMARK       I    between atoms: N1_7  and  C5_8 
REMARK    5  A    between atoms: C5_8  and  C6_10 
REMARK    6  A    between atoms: C6_10  and  C7_11 
REMARK    7  A    between atoms: C7_11  and  N2_12 
REMARK       I    between atoms: N2_12  and  C8_13 
REMARK    8  A    between atoms: C8_13  and  C9_15 
REMARK    9  A    between atoms: C9_15  and  C10_16 
REMARK   10  A    between atoms: C9_15  and  O17_54 
REMARK   11  A    between atoms: C10_16  and  C13_19 
REMARK   12  A    between atoms: C13_19  and  O4_20 
REMARK   13  A    between atoms: O4_20  and  P1_21 
REMARK   14  A    between atoms: P1_21  and  O6_23 
REMARK   15  A    between atoms: P1_21  and  O7_24 
REMARK   16  A    between atoms: O7_24  and  P2_25 
REMARK   17  A    between atoms: P2_25  and  O9_27 
REMARK   18  A    between atoms: P2_25  and  O10_28 
REMARK   19  A    between atoms: O10_28  and  C14_29 
REMARK   20  A    between atoms: C14_29  and  C15_30 
REMARK   21  A    between atoms: C16_31  and  O13_49 
REMARK   22  A    between atoms: C17_32  and  O12_48 
REMARK   23  A    between atoms: C18_33  and  N3_35 
REMARK   24  A    between atoms: C21_40  and  N7_47 
REMARK   25  A    between atoms: O13_49  and  P3_50 
REMARK   26  A    between atoms: P3_50  and  O15_52 
REMARK   27  A    between atoms: P3_50  and  O16_53 
ROOT
HETATM    1  C1  UNL     1       0.589  21.895   2.741  1.00  0.00     0.104 C 
HETATM    2  C2  UNL     1       0.581  20.428   3.042  1.00  0.00     0.182 C 
HETATM    3  O1  UNL     1      -0.412  19.716   2.903  1.00  0.00    -0.286 OA
ENDROOT
BRANCH   2   4
HETATM    4  S1  UNL     1       2.107  19.804   3.653  1.00  0.00    -0.091 SA
BRANCH   4   5
HETATM    5  C3  UNL     1       2.760  19.015   2.147  1.00  0.00     0.102 C 
BRANCH   5   6
HETATM    6  C4  UNL     1       2.177  17.616   1.937  1.00  0.00     0.133 C 
BRANCH   6   7
HETATM    7  N1  UNL     1       1.538  17.092   3.127  1.00  0.00    -0.360 N 
HETATM    8  C5  UNL     1       0.940  15.854   3.142  1.00  0.00     0.219 C 
HETATM    9  O2  UNL     1       0.839  15.158   2.139  1.00  0.00    -0.274 OA
HETATM   10  H8  UNL     1       1.542  17.654   3.968  1.00  0.00     0.162 HD
BRANCH   8  11
HETATM   11  C6  UNL     1       0.381  15.475   4.497  1.00  0.00     0.122 C 
BRANCH  11  12
HETATM   12  C7  UNL     1      -1.100  15.830   4.624  1.00  0.00     0.132 C 
BRANCH  12  13
HETATM   13  N2  UNL     1      -1.805  15.785   3.360  1.00  0.00    -0.358 N 
HETATM   14  C8  UNL     1      -3.128  15.386   3.314  1.00  0.00     0.247 C 
HETATM   15  O3  UNL     1      -3.712  14.950   4.298  1.00  0.00    -0.271 OA
HETATM   16  H13 UNL     1      -1.497  16.459   2.663  1.00  0.00     0.162 HD
BRANCH  14  17
HETATM   17  C9  UNL     1      -3.804  15.554   1.945  1.00  0.00     0.219 C 
BRANCH  17  18
HETATM   18  C10 UNL     1      -4.102  14.221   1.208  1.00  0.00     0.009 C 
HETATM   19  C11 UNL     1      -2.977  13.192   1.397  1.00  0.00     0.020 C 
HETATM   20  C12 UNL     1      -5.416  13.584   1.701  1.00  0.00     0.020 C 
BRANCH  18  21
HETATM   21  C13 UNL     1      -4.228  14.586  -0.299  1.00  0.00     0.192 C 
BRANCH  21  22
HETATM   22  O4  UNL     1      -4.113  15.976  -0.528  1.00  0.00    -0.296 OA
BRANCH  22  23
HETATM   23  P1  UNL     1      -3.586  16.590  -1.912  1.00  0.00     0.401 P 
HETATM   24  O5  UNL     1      -2.132  16.943  -1.910  1.00  0.00    -0.631 OA
BRANCH  23  25
HETATM   25  O6  UNL     1      -4.553  17.825  -2.272  1.00  0.00    -0.307 OA
HETATM   26  H23 UNL     1      -4.533  18.037  -3.214  1.00  0.00     0.222 HD
ENDBRANCH  23  25
BRANCH  23  27
HETATM   27  O7  UNL     1      -4.011  15.531  -3.020  1.00  0.00    -0.195 OA
BRANCH  27  28
HETATM   28  P2  UNL     1      -4.402  16.052  -4.473  1.00  0.00     0.401 P 
HETATM   29  O8  UNL     1      -5.802  16.537  -4.665  1.00  0.00    -0.631 OA
BRANCH  28  30
HETATM   30  O9  UNL     1      -3.285  17.151  -4.781  1.00  0.00    -0.307 OA
HETATM   31  H24 UNL     1      -3.516  18.059  -4.468  1.00  0.00     0.222 HD
ENDBRANCH  28  30
BRANCH  28  32
HETATM   32  O10 UNL     1      -3.932  14.875  -5.445  1.00  0.00    -0.294 OA
BRANCH  32  33
HETATM   33  C14 UNL     1      -3.775  15.119  -6.818  1.00  0.00     0.215 C 
BRANCH  33  34
HETATM   34  C15 UNL     1      -2.367  14.648  -7.177  1.00  0.00     0.180 C 
HETATM   35  C16 UNL     1      -1.633  14.210  -5.916  1.00  0.00     0.197 C 
HETATM   36  C17 UNL     1      -0.452  15.155  -5.810  1.00  0.00     0.199 C 
HETATM   37  C18 UNL     1      -0.243  15.575  -7.267  1.00  0.00     0.262 C 
HETATM   38  O11 UNL     1      -1.580  15.665  -7.807  1.00  0.00    -0.353 OA
BRANCH  35  39
HETATM   39  O13 UNL     1      -1.224  12.857  -6.091  1.00  0.00    -0.286 OA
BRANCH  39  40
HETATM   40  P3  UNL     1      -1.801  11.819  -5.021  1.00  0.00     0.391 P 
HETATM   41  O14 UNL     1      -2.687  10.771  -5.614  1.00  0.00    -0.632 OA
BRANCH  40  42
HETATM   42  O15 UNL     1      -2.448  12.819  -3.953  1.00  0.00    -0.307 OA
HETATM   43  H36 UNL     1      -1.876  12.893  -3.153  1.00  0.00     0.222 HD
ENDBRANCH  40  42
BRANCH  40  44
HETATM   44  O16 UNL     1      -0.468  11.335  -4.301  1.00  0.00    -0.307 OA
HETATM   45  H37 UNL     1       0.115  10.830  -4.890  1.00  0.00     0.222 HD
ENDBRANCH  40  44
ENDBRANCH  39  40
ENDBRANCH  35  39
BRANCH  36  46
HETATM   46  O12 UNL     1       0.641  14.511  -5.150  1.00  0.00    -0.388 OA
HETATM   47  H35 UNL     1       0.488  13.540  -5.241  1.00  0.00     0.210 HD
ENDBRANCH  36  46
BRANCH  37  48
HETATM   48  N3  UNL     1       0.396  16.870  -7.387  1.00  0.00    -0.297 N 
HETATM   49  C19 UNL     1       1.697  17.125  -7.754  1.00  0.00     0.188 A 
HETATM   50  N4  UNL     1       1.934  18.411  -7.891  1.00  0.00    -0.346 N 
HETATM   51  C20 UNL     1       0.726  19.021  -7.603  1.00  0.00     0.116 A 
HETATM   52  H4  UNL     1       2.812  18.859  -8.152  1.00  0.00     0.167 HD
HETATM   53  C21 UNL     1       0.310  20.364  -7.612  1.00  0.00     0.109 A 
HETATM   54  C23 UNL     1      -0.225  18.081  -7.251  1.00  0.00     0.142 A 
HETATM   55  N5  UNL     1      -0.968  20.650  -7.263  1.00  0.00    -0.341 N 
HETATM   56  C22 UNL     1      -1.779  19.630  -6.918  1.00  0.00     0.183 A 
HETATM   57  H5  UNL     1      -1.306  21.612  -7.260  1.00  0.00     0.167 HD
HETATM   58  N6  UNL     1      -1.497  18.312  -6.881  1.00  0.00    -0.336 N 
HETATM   59  H6  UNL     1      -2.161  17.586  -6.610  1.00  0.00     0.168 HD
BRANCH  53  60
HETATM   60  N7  UNL     1       1.145  21.417  -7.951  1.00  0.00    -0.287 NA
HETATM   61  H33 UNL     1       2.100  21.142  -8.167  1.00  0.00     0.125 HD
HETATM   62  H34 UNL     1       1.027  22.222  -7.350  1.00  0.00     0.125 HD
ENDBRANCH  53  60
ENDBRANCH  37  48
ENDBRANCH  33  34
ENDBRANCH  32  33
ENDBRANCH  28  32
ENDBRANCH  27  28
ENDBRANCH  23  27
ENDBRANCH  22  23
ENDBRANCH  21  22
ENDBRANCH  18  21
ENDBRANCH  17  18
BRANCH  17  63
HETATM   63  O17 UNL     1      -5.030  16.279   2.086  1.00  0.00    -0.385 OA
HETATM   64  H38 UNL     1      -5.316  16.563   1.202  1.00  0.00     0.210 HD
ENDBRANCH  17  63
ENDBRANCH  14  17
ENDBRANCH  12  13
ENDBRANCH  11  12
ENDBRANCH   8  11
ENDBRANCH   6   7
ENDBRANCH   5   6
ENDBRANCH   4   5
ENDBRANCH   2   4
TORSDOF 27
ENDMDL
MODEL 16
REMARK VINA RESULT:      -5.2      3.567      9.545
REMARK  27 active torsions:
REMARK  status: ('A' for Active; 'I' for Inactive)
REMARK    1  A    between atoms: C2_2  and  S1_4 
REMARK    2  A    between atoms: S1_4  and  C3_5 
REMARK    3  A    between atoms: C3_5  and  C4_6 
REMARK    4  A    between atoms: C4_6  and  N1_7 
REMARK       I    between atoms: N1_7  and  C5_8 
REMARK    5  A    between atoms: C5_8  and  C6_10 
REMARK    6  A    between atoms: C6_10  and  C7_11 
REMARK    7  A    between atoms: C7_11  and  N2_12 
REMARK       I    between atoms: N2_12  and  C8_13 
REMARK    8  A    between atoms: C8_13  and  C9_15 
REMARK    9  A    between atoms: C9_15  and  C10_16 
REMARK   10  A    between atoms: C9_15  and  O17_54 
REMARK   11  A    between atoms: C10_16  and  C13_19 
REMARK   12  A    between atoms: C13_19  and  O4_20 
REMARK   13  A    between atoms: O4_20  and  P1_21 
REMARK   14  A    between atoms: P1_21  and  O6_23 
REMARK   15  A    between atoms: P1_21  and  O7_24 
REMARK   16  A    between atoms: O7_24  and  P2_25 
REMARK   17  A    between atoms: P2_25  and  O9_27 
REMARK   18  A    between atoms: P2_25  and  O10_28 
REMARK   19  A    between atoms: O10_28  and  C14_29 
REMARK   20  A    between atoms: C14_29  and  C15_30 
REMARK   21  A    between atoms: C16_31  and  O13_49 
REMARK   22  A    between atoms: C17_32  and  O12_48 
REMARK   23  A    between atoms: C18_33  and  N3_35 
REMARK   24  A    between atoms: C21_40  and  N7_47 
REMARK   25  A    between atoms: O13_49  and  P3_50 
REMARK   26  A    between atoms: P3_50  and  O15_52 
REMARK   27  A    between atoms: P3_50  and  O16_53 
ROOT
HETATM    1  C1  UNL     1      -2.119  20.735  -4.177  1.00  0.00     0.104 C 
HETATM    2  C2  UNL     1      -1.944  19.287  -4.518  1.00  0.00     0.182 C 
HETATM    3  O1  UNL     1      -2.156  18.376  -3.721  1.00  0.00    -0.286 OA
ENDROOT
BRANCH   2   4
HETATM    4  S1  UNL     1      -1.367  18.992  -6.153  1.00  0.00    -0.091 SA
BRANCH   4   5
HETATM    5  C3  UNL     1      -0.040  20.237  -6.257  1.00  0.00     0.102 C 
BRANCH   5   6
HETATM    6  C4  UNL     1       1.195  19.694  -6.979  1.00  0.00     0.133 C 
BRANCH   6   7
HETATM    7  N1  UNL     1       1.170  18.253  -7.124  1.00  0.00    -0.360 N 
HETATM    8  C5  UNL     1       2.026  17.596  -7.977  1.00  0.00     0.219 C 
HETATM    9  O2  UNL     1       2.800  18.188  -8.720  1.00  0.00    -0.274 OA
HETATM   10  H8  UNL     1       0.508  17.720  -6.576  1.00  0.00     0.162 HD
BRANCH   8  11
HETATM   11  C6  UNL     1       1.873  16.091  -7.938  1.00  0.00     0.122 C 
BRANCH  11  12
HETATM   12  C7  UNL     1       0.432  15.671  -7.653  1.00  0.00     0.132 C 
BRANCH  12  13
HETATM   13  N2  UNL     1       0.339  14.500  -6.807  1.00  0.00    -0.358 N 
HETATM   14  C8  UNL     1      -0.264  14.584  -5.565  1.00  0.00     0.247 C 
HETATM   15  O3  UNL     1      -0.629  15.652  -5.089  1.00  0.00    -0.271 OA
HETATM   16  H13 UNL     1       0.275  13.609  -7.296  1.00  0.00     0.162 HD
BRANCH  14  17
HETATM   17  C9  UNL     1      -0.455  13.239  -4.849  1.00  0.00     0.219 C 
BRANCH  17  18
HETATM   18  C10 UNL     1      -1.843  12.584  -5.070  1.00  0.00     0.009 C 
HETATM   19  C11 UNL     1      -2.224  12.524  -6.557  1.00  0.00     0.020 C 
HETATM   20  C12 UNL     1      -1.886  11.147  -4.511  1.00  0.00     0.020 C 
BRANCH  18  21
HETATM   21  C13 UNL     1      -2.863  13.475  -4.305  1.00  0.00     0.192 C 
BRANCH  21  22
HETATM   22  O4  UNL     1      -3.559  12.759  -3.304  1.00  0.00    -0.296 OA
BRANCH  22  23
HETATM   23  P1  UNL     1      -4.646  13.441  -2.343  1.00  0.00     0.401 P 
HETATM   24  O5  UNL     1      -4.750  12.808  -0.991  1.00  0.00    -0.631 OA
BRANCH  23  25
HETATM   25  O6  UNL     1      -6.035  13.469  -3.156  1.00  0.00    -0.307 OA
HETATM   26  H23 UNL     1      -6.676  12.841  -2.798  1.00  0.00     0.222 HD
ENDBRANCH  23  25
BRANCH  23  27
HETATM   27  O7  UNL     1      -4.267  14.986  -2.326  1.00  0.00    -0.195 OA
BRANCH  27  28
HETATM   28  P2  UNL     1      -5.402  16.054  -1.993  1.00  0.00     0.401 P 
HETATM   29  O8  UNL     1      -6.303  16.456  -3.114  1.00  0.00    -0.631 OA
BRANCH  28  30
HETATM   30  O9  UNL     1      -6.162  15.404  -0.748  1.00  0.00    -0.307 OA
HETATM   31  H24 UNL     1      -5.669  15.471   0.106  1.00  0.00     0.222 HD
ENDBRANCH  28  30
BRANCH  28  32
HETATM   32  O10 UNL     1      -4.616  17.241  -1.270  1.00  0.00    -0.294 OA
BRANCH  32  33
HETATM   33  C14 UNL     1      -4.609  17.328   0.131  1.00  0.00     0.215 C 
BRANCH  33  34
HETATM   34  C15 UNL     1      -3.543  16.347   0.614  1.00  0.00     0.180 C 
HETATM   35  C16 UNL     1      -3.774  16.017   2.083  1.00  0.00     0.197 C 
HETATM   36  C17 UNL     1      -2.528  16.515   2.790  1.00  0.00     0.199 C 
HETATM   37  C18 UNL     1      -1.483  16.471   1.673  1.00  0.00     0.262 C 
HETATM   38  O11 UNL     1      -2.212  16.860   0.487  1.00  0.00    -0.353 OA
BRANCH  35  39
HETATM   39  O13 UNL     1      -3.929  14.606   2.199  1.00  0.00    -0.286 OA
BRANCH  39  40
HETATM   40  P3  UNL     1      -5.275  14.116   2.909  1.00  0.00     0.391 P 
HETATM   41  O14 UNL     1      -5.624  12.692   2.621  1.00  0.00    -0.632 OA
BRANCH  40  42
HETATM   42  O15 UNL     1      -6.299  15.244   2.420  1.00  0.00    -0.307 OA
HETATM   43  H36 UNL     1      -6.470  15.162   1.451  1.00  0.00     0.222 HD
ENDBRANCH  40  42
BRANCH  40  44
HETATM   44  O16 UNL     1      -4.995  14.515   4.423  1.00  0.00    -0.307 OA
HETATM   45  H37 UNL     1      -4.109  14.258   4.722  1.00  0.00     0.222 HD
ENDBRANCH  40  44
ENDBRANCH  39  40
ENDBRANCH  35  39
BRANCH  36  46
HETATM   46  O12 UNL     1      -2.274  15.731   3.959  1.00  0.00    -0.388 OA
HETATM   47  H35 UNL     1      -3.156  15.465   4.312  1.00  0.00     0.210 HD
ENDBRANCH  36  46
BRANCH  37  48
HETATM   48  N3  UNL     1      -0.401  17.411   1.885  1.00  0.00    -0.297 N 
HETATM   49  C19 UNL     1      -0.258  18.656   1.316  1.00  0.00     0.188 A 
HETATM   50  N4  UNL     1       0.767  19.315   1.811  1.00  0.00    -0.346 N 
HETATM   51  C20 UNL     1       1.313  18.457   2.749  1.00  0.00     0.116 A 
HETATM   52  H4  UNL     1       1.088  20.249   1.559  1.00  0.00     0.167 HD
HETATM   53  C21 UNL     1       2.391  18.584   3.643  1.00  0.00     0.109 A 
HETATM   54  C23 UNL     1       0.623  17.259   2.777  1.00  0.00     0.142 A 
HETATM   55  N5  UNL     1       2.693  17.537   4.449  1.00  0.00    -0.341 N 
HETATM   56  C22 UNL     1       1.945  16.419   4.350  1.00  0.00     0.183 A 
HETATM   57  H5  UNL     1       3.465  17.593   5.112  1.00  0.00     0.167 HD
HETATM   58  N6  UNL     1       0.890  16.186   3.543  1.00  0.00    -0.336 N 
HETATM   59  H6  UNL     1       0.364  15.312   3.517  1.00  0.00     0.168 HD
BRANCH  53  60
HETATM   60  N7  UNL     1       3.172  19.725   3.738  1.00  0.00    -0.287 NA
HETATM   61  H33 UNL     1       3.980  19.732   3.120  1.00  0.00     0.125 HD
HETATM   62  H34 UNL     1       3.326  20.019   4.693  1.00  0.00     0.125 HD
ENDBRANCH  53  60
ENDBRANCH  37  48
ENDBRANCH  33  34
ENDBRANCH  32  33
ENDBRANCH  28  32
ENDBRANCH  27  28
ENDBRANCH  23  27
ENDBRANCH  22  23
ENDBRANCH  21  22
ENDBRANCH  18  21
ENDBRANCH  17  18
BRANCH  17  63
HETATM   63  O17 UNL     1       0.556  12.313  -5.262  1.00  0.00    -0.385 OA
HETATM   64  H38 UNL     1       0.403  12.097  -6.197  1.00  0.00     0.210 HD
ENDBRANCH  17  63
ENDBRANCH  14  17
ENDBRANCH  12  13
ENDBRANCH  11  12
ENDBRANCH   8  11
ENDBRANCH   6   7
ENDBRANCH   5   6
ENDBRANCH   4   5
ENDBRANCH   2   4
TORSDOF 27
ENDMDL
MODEL 17
REMARK VINA RESULT:      -5.2      4.020      8.971
REMARK  27 active torsions:
REMARK  status: ('A' for Active; 'I' for Inactive)
REMARK    1  A    between atoms: C2_2  and  S1_4 
REMARK    2  A    between atoms: S1_4  and  C3_5 
REMARK    3  A    between atoms: C3_5  and  C4_6 
REMARK    4  A    between atoms: C4_6  and  N1_7 
REMARK       I    between atoms: N1_7  and  C5_8 
REMARK    5  A    between atoms: C5_8  and  C6_10 
REMARK    6  A    between atoms: C6_10  and  C7_11 
REMARK    7  A    between atoms: C7_11  and  N2_12 
REMARK       I    between atoms: N2_12  and  C8_13 
REMARK    8  A    between atoms: C8_13  and  C9_15 
REMARK    9  A    between atoms: C9_15  and  C10_16 
REMARK   10  A    between atoms: C9_15  and  O17_54 
REMARK   11  A    between atoms: C10_16  and  C13_19 
REMARK   12  A    between atoms: C13_19  and  O4_20 
REMARK   13  A    between atoms: O4_20  and  P1_21 
REMARK   14  A    between atoms: P1_21  and  O6_23 
REMARK   15  A    between atoms: P1_21  and  O7_24 
REMARK   16  A    between atoms: O7_24  and  P2_25 
REMARK   17  A    between atoms: P2_25  and  O9_27 
REMARK   18  A    between atoms: P2_25  and  O10_28 
REMARK   19  A    between atoms: O10_28  and  C14_29 
REMARK   20  A    between atoms: C14_29  and  C15_30 
REMARK   21  A    between atoms: C16_31  and  O13_49 
REMARK   22  A    between atoms: C17_32  and  O12_48 
REMARK   23  A    between atoms: C18_33  and  N3_35 
REMARK   24  A    between atoms: C21_40  and  N7_47 
REMARK   25  A    between atoms: O13_49  and  P3_50 
REMARK   26  A    between atoms: P3_50  and  O15_52 
REMARK   27  A    between atoms: P3_50  and  O16_53 
ROOT
HETATM    1  C1  UNL     1      -5.682  21.022  -5.547  1.00  0.00     0.104 C 
HETATM    2  C2  UNL     1      -4.462  21.046  -4.677  1.00  0.00     0.182 C 
HETATM    3  O1  UNL     1      -4.459  20.662  -3.510  1.00  0.00    -0.286 OA
ENDROOT
BRANCH   2   4
HETATM    4  S1  UNL     1      -3.031  21.709  -5.453  1.00  0.00    -0.091 SA
BRANCH   4   5
HETATM    5  C3  UNL     1      -2.347  22.695  -4.082  1.00  0.00     0.102 C 
BRANCH   5   6
HETATM    6  C4  UNL     1      -1.139  22.014  -3.437  1.00  0.00     0.133 C 
BRANCH   6   7
HETATM    7  N1  UNL     1      -1.496  21.227  -2.274  1.00  0.00    -0.360 N 
HETATM    8  C5  UNL     1      -1.426  19.853  -2.280  1.00  0.00     0.219 C 
HETATM    9  O2  UNL     1      -1.139  19.211  -3.283  1.00  0.00    -0.274 OA
HETATM   10  H8  UNL     1      -1.796  21.707  -1.436  1.00  0.00     0.162 HD
BRANCH   8  11
HETATM   11  C6  UNL     1      -1.788  19.229  -0.949  1.00  0.00     0.122 C 
BRANCH  11  12
HETATM   12  C7  UNL     1      -3.216  18.685  -0.943  1.00  0.00     0.132 C 
BRANCH  12  13
HETATM   13  N2  UNL     1      -3.588  18.055  -2.192  1.00  0.00    -0.358 N 
HETATM   14  C8  UNL     1      -3.990  16.732  -2.212  1.00  0.00     0.247 C 
HETATM   15  O3  UNL     1      -3.935  16.019  -1.218  1.00  0.00    -0.271 OA
HETATM   16  H13 UNL     1      -3.991  18.674  -2.892  1.00  0.00     0.162 HD
BRANCH  14  17
HETATM   17  C9  UNL     1      -4.525  16.242  -3.565  1.00  0.00     0.219 C 
BRANCH  17  18
HETATM   18  C10 UNL     1      -3.520  15.390  -4.384  1.00  0.00     0.009 C 
HETATM   19  C11 UNL     1      -3.550  15.737  -5.880  1.00  0.00     0.020 C 
HETATM   20  C12 UNL     1      -2.075  15.583  -3.881  1.00  0.00     0.020 C 
BRANCH  18  21
HETATM   21  C13 UNL     1      -3.951  13.909  -4.182  1.00  0.00     0.192 C 
BRANCH  21  22
HETATM   22  O4  UNL     1      -3.339  13.318  -3.054  1.00  0.00    -0.296 OA
BRANCH  22  23
HETATM   23  P1  UNL     1      -4.139  12.406  -2.006  1.00  0.00     0.401 P 
HETATM   24  O5  UNL     1      -3.894  10.938  -2.160  1.00  0.00    -0.631 OA
BRANCH  23  25
HETATM   25  O6  UNL     1      -5.690  12.822  -2.118  1.00  0.00    -0.307 OA
HETATM   26  H23 UNL     1      -6.240  12.088  -2.422  1.00  0.00     0.222 HD
ENDBRANCH  23  25
BRANCH  23  27
HETATM   27  O7  UNL     1      -3.764  12.996  -0.577  1.00  0.00    -0.195 OA
BRANCH  27  28
HETATM   28  P2  UNL     1      -4.695  12.650   0.668  1.00  0.00     0.401 P 
HETATM   29  O8  UNL     1      -6.113  13.116   0.602  1.00  0.00    -0.631 OA
BRANCH  28  30
HETATM   30  O9  UNL     1      -4.536  11.068   0.816  1.00  0.00    -0.307 OA
HETATM   31  H24 UNL     1      -4.656  10.736   1.739  1.00  0.00     0.222 HD
ENDBRANCH  28  30
BRANCH  28  32
HETATM   32  O10 UNL     1      -3.854  13.150   1.930  1.00  0.00    -0.294 OA
BRANCH  32  33
HETATM   33  C14 UNL     1      -2.701  13.927   1.743  1.00  0.00     0.215 C 
BRANCH  33  34
HETATM   34  C15 UNL     1      -2.710  14.979   2.851  1.00  0.00     0.180 C 
HETATM   35  C16 UNL     1      -3.412  16.238   2.361  1.00  0.00     0.197 C 
HETATM   36  C17 UNL     1      -2.346  17.317   2.412  1.00  0.00     0.199 C 
HETATM   37  C18 UNL     1      -1.396  16.781   3.485  1.00  0.00     0.262 C 
HETATM   38  O11 UNL     1      -1.395  15.351   3.279  1.00  0.00    -0.353 OA
BRANCH  35  39
HETATM   39  O13 UNL     1      -4.495  16.511   3.244  1.00  0.00    -0.286 OA
BRANCH  39  40
HETATM   40  P3  UNL     1      -5.955  16.293   2.631  1.00  0.00     0.391 P 
HETATM   41  O14 UNL     1      -6.939  17.345   3.030  1.00  0.00    -0.632 OA
BRANCH  40  42
HETATM   42  O15 UNL     1      -6.251  14.790   3.090  1.00  0.00    -0.307 OA
HETATM   43  H36 UNL     1      -7.189  14.692   3.382  1.00  0.00     0.222 HD
ENDBRANCH  40  42
BRANCH  40  44
HETATM   44  O16 UNL     1      -5.628  16.140   1.082  1.00  0.00    -0.307 OA
HETATM   45  H37 UNL     1      -5.208  16.931   0.707  1.00  0.00     0.222 HD
ENDBRANCH  40  44
ENDBRANCH  39  40
ENDBRANCH  35  39
BRANCH  36  46
HETATM   46  O12 UNL     1      -2.945  18.594   2.643  1.00  0.00    -0.388 OA
HETATM   47  H35 UNL     1      -2.644  19.180   1.908  1.00  0.00     0.210 HD
ENDBRANCH  36  46
BRANCH  37  48
HETATM   48  N3  UNL     1      -0.043  17.276   3.327  1.00  0.00    -0.297 N 
HETATM   49  C19 UNL     1       0.565  18.279   4.046  1.00  0.00     0.188 A 
HETATM   50  N4  UNL     1       1.839  18.405   3.747  1.00  0.00    -0.346 N 
HETATM   51  C20 UNL     1       2.071  17.431   2.791  1.00  0.00     0.116 A 
HETATM   52  H4  UNL     1       2.508  19.070   4.134  1.00  0.00     0.167 HD
HETATM   53  C21 UNL     1       3.230  17.026   2.106  1.00  0.00     0.109 A 
HETATM   54  C23 UNL     1       0.905  16.751   2.493  1.00  0.00     0.142 A 
HETATM   55  N5  UNL     1       3.130  16.023   1.199  1.00  0.00    -0.341 N 
HETATM   56  C22 UNL     1       1.920  15.467   0.994  1.00  0.00     0.183 A 
HETATM   57  H5  UNL     1       3.949  15.699   0.685  1.00  0.00     0.167 HD
HETATM   58  N6  UNL     1       0.748  15.764   1.593  1.00  0.00    -0.336 N 
HETATM   59  H6  UNL     1      -0.138  15.301   1.391  1.00  0.00     0.168 HD
BRANCH  53  60
HETATM   60  N7  UNL     1       4.473  17.605   2.302  1.00  0.00    -0.287 NA
HETATM   61  H33 UNL     1       5.257  16.970   2.166  1.00  0.00     0.125 HD
HETATM   62  H34 UNL     1       4.507  18.201   3.118  1.00  0.00     0.125 HD
ENDBRANCH  53  60
ENDBRANCH  37  48
ENDBRANCH  33  34
ENDBRANCH  32  33
ENDBRANCH  28  32
ENDBRANCH  27  28
ENDBRANCH  23  27
ENDBRANCH  22  23
ENDBRANCH  21  22
ENDBRANCH  18  21
ENDBRANCH  17  18
BRANCH  17  63
HETATM   63  O17 UNL     1      -5.720  15.476  -3.375  1.00  0.00    -0.385 OA
HETATM   64  H38 UNL     1      -6.388  15.797  -4.004  1.00  0.00     0.210 HD
ENDBRANCH  17  63
ENDBRANCH  14  17
ENDBRANCH  12  13
ENDBRANCH  11  12
ENDBRANCH   8  11
ENDBRANCH   6   7
ENDBRANCH   5   6
ENDBRANCH   4   5
ENDBRANCH   2   4
TORSDOF 27
ENDMDL
MODEL 18
REMARK VINA RESULT:      -5.2      3.696      7.126
REMARK  27 active torsions:
REMARK  status: ('A' for Active; 'I' for Inactive)
REMARK    1  A    between atoms: C2_2  and  S1_4 
REMARK    2  A    between atoms: S1_4  and  C3_5 
REMARK    3  A    between atoms: C3_5  and  C4_6 
REMARK    4  A    between atoms: C4_6  and  N1_7 
REMARK       I    between atoms: N1_7  and  C5_8 
REMARK    5  A    between atoms: C5_8  and  C6_10 
REMARK    6  A    between atoms: C6_10  and  C7_11 
REMARK    7  A    between atoms: C7_11  and  N2_12 
REMARK       I    between atoms: N2_12  and  C8_13 
REMARK    8  A    between atoms: C8_13  and  C9_15 
REMARK    9  A    between atoms: C9_15  and  C10_16 
REMARK   10  A    between atoms: C9_15  and  O17_54 
REMARK   11  A    between atoms: C10_16  and  C13_19 
REMARK   12  A    between atoms: C13_19  and  O4_20 
REMARK   13  A    between atoms: O4_20  and  P1_21 
REMARK   14  A    between atoms: P1_21  and  O6_23 
REMARK   15  A    between atoms: P1_21  and  O7_24 
REMARK   16  A    between atoms: O7_24  and  P2_25 
REMARK   17  A    between atoms: P2_25  and  O9_27 
REMARK   18  A    between atoms: P2_25  and  O10_28 
REMARK   19  A    between atoms: O10_28  and  C14_29 
REMARK   20  A    between atoms: C14_29  and  C15_30 
REMARK   21  A    between atoms: C16_31  and  O13_49 
REMARK   22  A    between atoms: C17_32  and  O12_48 
REMARK   23  A    between atoms: C18_33  and  N3_35 
REMARK   24  A    between atoms: C21_40  and  N7_47 
REMARK   25  A    between atoms: O13_49  and  P3_50 
REMARK   26  A    between atoms: P3_50  and  O15_52 
REMARK   27  A    between atoms: P3_50  and  O16_53 
ROOT
HETATM    1  C1  UNL     1       2.154  17.691  -8.744  1.00  0.00     0.104 C 
HETATM    2  C2  UNL     1       0.823  18.350  -8.549  1.00  0.00     0.182 C 
HETATM    3  O1  UNL     1      -0.017  18.452  -9.440  1.00  0.00    -0.286 OA
ENDROOT
BRANCH   2   4
HETATM    4  S1  UNL     1       0.571  19.011  -6.939  1.00  0.00    -0.091 SA
BRANCH   4   5
HETATM    5  C3  UNL     1      -1.250  19.054  -6.888  1.00  0.00     0.102 C 
BRANCH   5   6
HETATM    6  C4  UNL     1      -1.772  20.317  -6.200  1.00  0.00     0.133 C 
BRANCH   6   7
HETATM    7  N1  UNL     1      -2.711  20.027  -5.136  1.00  0.00    -0.360 N 
HETATM    8  C5  UNL     1      -2.310  19.929  -3.824  1.00  0.00     0.219 C 
HETATM    9  O2  UNL     1      -1.135  20.001  -3.485  1.00  0.00    -0.274 OA
HETATM   10  H8  UNL     1      -3.686  19.900  -5.370  1.00  0.00     0.162 HD
BRANCH   8  11
HETATM   11  C6  UNL     1      -3.454  19.676  -2.866  1.00  0.00     0.122 C 
BRANCH  11  12
HETATM   12  C7  UNL     1      -2.968  19.516  -1.426  1.00  0.00     0.132 C 
BRANCH  12  13
HETATM   13  N2  UNL     1      -3.242  18.205  -0.877  1.00  0.00    -0.358 N 
HETATM   14  C8  UNL     1      -2.260  17.520  -0.185  1.00  0.00     0.247 C 
HETATM   15  O3  UNL     1      -1.108  17.930  -0.112  1.00  0.00    -0.271 OA
HETATM   16  H13 UNL     1      -4.208  18.038  -0.601  1.00  0.00     0.162 HD
BRANCH  14  17
HETATM   17  C9  UNL     1      -2.733  16.226   0.494  1.00  0.00     0.219 C 
BRANCH  17  18
HETATM   18  C10 UNL     1      -2.384  16.127   2.003  1.00  0.00     0.009 C 
HETATM   19  C11 UNL     1      -0.887  15.877   2.234  1.00  0.00     0.020 C 
HETATM   20  C12 UNL     1      -2.773  17.413   2.759  1.00  0.00     0.020 C 
BRANCH  18  21
HETATM   21  C13 UNL     1      -3.206  14.926   2.553  1.00  0.00     0.192 C 
BRANCH  21  22
HETATM   22  O4  UNL     1      -2.863  13.707   1.925  1.00  0.00    -0.296 OA
BRANCH  22  23
HETATM   23  P1  UNL     1      -3.952  12.724   1.277  1.00  0.00     0.401 P 
HETATM   24  O5  UNL     1      -5.248  12.671   2.023  1.00  0.00    -0.631 OA
BRANCH  23  25
HETATM   25  O6  UNL     1      -3.241  11.290   1.107  1.00  0.00    -0.307 OA
HETATM   26  H23 UNL     1      -3.851  10.561   1.280  1.00  0.00     0.222 HD
ENDBRANCH  23  25
BRANCH  23  27
HETATM   27  O7  UNL     1      -4.075  13.190  -0.238  1.00  0.00    -0.195 OA
BRANCH  27  28
HETATM   28  P2  UNL     1      -4.942  12.312  -1.246  1.00  0.00     0.401 P 
HETATM   29  O8  UNL     1      -4.424  10.950  -1.575  1.00  0.00    -0.631 OA
BRANCH  28  30
HETATM   30  O9  UNL     1      -6.393  12.312  -0.578  1.00  0.00    -0.307 OA
HETATM   31  H24 UNL     1      -6.537  11.583   0.073  1.00  0.00     0.222 HD
ENDBRANCH  28  30
BRANCH  28  32
HETATM   32  O10 UNL     1      -5.191  13.283  -2.489  1.00  0.00    -0.294 OA
BRANCH  32  33
HETATM   33  C14 UNL     1      -6.116  14.334  -2.385  1.00  0.00     0.215 C 
BRANCH  33  34
HETATM   34  C15 UNL     1      -5.316  15.625  -2.548  1.00  0.00     0.180 C 
HETATM   35  C16 UNL     1      -5.774  16.361  -3.800  1.00  0.00     0.197 C 
HETATM   36  C17 UNL     1      -4.547  16.403  -4.691  1.00  0.00     0.199 C 
HETATM   37  C18 UNL     1      -3.406  16.302  -3.675  1.00  0.00     0.262 C 
HETATM   38  O11 UNL     1      -3.907  15.398  -2.666  1.00  0.00    -0.353 OA
BRANCH  35  39
HETATM   39  O13 UNL     1      -6.202  17.663  -3.414  1.00  0.00    -0.286 OA
BRANCH  39  40
HETATM   40  P3  UNL     1      -7.705  18.039  -3.809  1.00  0.00     0.391 P 
HETATM   41  O14 UNL     1      -8.689  16.946  -3.546  1.00  0.00    -0.632 OA
BRANCH  40  42
HETATM   42  O15 UNL     1      -7.507  18.508  -5.326  1.00  0.00    -0.307 OA
HETATM   43  H36 UNL     1      -6.548  18.549  -5.556  1.00  0.00     0.222 HD
ENDBRANCH  40  42
BRANCH  40  44
HETATM   44  O16 UNL     1      -7.902  19.411  -3.029  1.00  0.00    -0.307 OA
HETATM   45  H37 UNL     1      -7.971  20.175  -3.623  1.00  0.00     0.222 HD
ENDBRANCH  40  44
ENDBRANCH  39  40
ENDBRANCH  35  39
BRANCH  36  46
HETATM   46  O12 UNL     1      -4.581  17.563  -5.527  1.00  0.00    -0.388 OA
HETATM   47  H35 UNL     1      -4.669  18.338  -4.923  1.00  0.00     0.210 HD
ENDBRANCH  36  46
BRANCH  37  48
HETATM   48  N3  UNL     1      -2.200  15.740  -4.248  1.00  0.00    -0.297 N 
HETATM   49  C19 UNL     1      -1.049  16.413  -4.588  1.00  0.00     0.188 A 
HETATM   50  N4  UNL     1      -0.088  15.599  -4.965  1.00  0.00    -0.346 N 
HETATM   51  C20 UNL     1      -0.641  14.335  -4.861  1.00  0.00     0.116 A 
HETATM   52  H4  UNL     1       0.854  15.844  -5.268  1.00  0.00     0.167 HD
HETATM   53  C21 UNL     1      -0.122  13.047  -5.077  1.00  0.00     0.109 A 
HETATM   54  C23 UNL     1      -1.961  14.410  -4.455  1.00  0.00     0.142 A 
HETATM   55  N5  UNL     1      -0.937  11.979  -4.896  1.00  0.00    -0.341 N 
HETATM   56  C22 UNL     1      -2.212  12.206  -4.521  1.00  0.00     0.183 A 
HETATM   57  H5  UNL     1      -0.595  11.029  -5.040  1.00  0.00     0.167 HD
HETATM   58  N6  UNL     1      -2.815  13.387  -4.277  1.00  0.00    -0.336 N 
HETATM   59  H6  UNL     1      -3.790  13.491  -3.994  1.00  0.00     0.168 HD
BRANCH  53  60
HETATM   60  N7  UNL     1       1.184  12.808  -5.477  1.00  0.00    -0.287 NA
HETATM   61  H33 UNL     1       1.653  13.618  -5.877  1.00  0.00     0.125 HD
HETATM   62  H34 UNL     1       1.292  11.931  -5.967  1.00  0.00     0.125 HD
ENDBRANCH  53  60
ENDBRANCH  37  48
ENDBRANCH  33  34
ENDBRANCH  32  33
ENDBRANCH  28  32
ENDBRANCH  27  28
ENDBRANCH  23  27
ENDBRANCH  22  23
ENDBRANCH  21  22
ENDBRANCH  18  21
ENDBRANCH  17  18
BRANCH  17  63
HETATM   63  O17 UNL     1      -4.150  16.081   0.345  1.00  0.00    -0.385 OA
HETATM   64  H38 UNL     1      -4.319  15.253  -0.134  1.00  0.00     0.210 HD
ENDBRANCH  17  63
ENDBRANCH  14  17
ENDBRANCH  12  13
ENDBRANCH  11  12
ENDBRANCH   8  11
ENDBRANCH   6   7
ENDBRANCH   5   6
ENDBRANCH   4   5
ENDBRANCH   2   4
TORSDOF 27
ENDMDL
MODEL 19
REMARK VINA RESULT:      -5.1      3.850      7.687
REMARK  27 active torsions:
REMARK  status: ('A' for Active; 'I' for Inactive)
REMARK    1  A    between atoms: C2_2  and  S1_4 
REMARK    2  A    between atoms: S1_4  and  C3_5 
REMARK    3  A    between atoms: C3_5  and  C4_6 
REMARK    4  A    between atoms: C4_6  and  N1_7 
REMARK       I    between atoms: N1_7  and  C5_8 
REMARK    5  A    between atoms: C5_8  and  C6_10 
REMARK    6  A    between atoms: C6_10  and  C7_11 
REMARK    7  A    between atoms: C7_11  and  N2_12 
REMARK       I    between atoms: N2_12  and  C8_13 
REMARK    8  A    between atoms: C8_13  and  C9_15 
REMARK    9  A    between atoms: C9_15  and  C10_16 
REMARK   10  A    between atoms: C9_15  and  O17_54 
REMARK   11  A    between atoms: C10_16  and  C13_19 
REMARK   12  A    between atoms: C13_19  and  O4_20 
REMARK   13  A    between atoms: O4_20  and  P1_21 
REMARK   14  A    between atoms: P1_21  and  O6_23 
REMARK   15  A    between atoms: P1_21  and  O7_24 
REMARK   16  A    between atoms: O7_24  and  P2_25 
REMARK   17  A    between atoms: P2_25  and  O9_27 
REMARK   18  A    between atoms: P2_25  and  O10_28 
REMARK   19  A    between atoms: O10_28  and  C14_29 
REMARK   20  A    between atoms: C14_29  and  C15_30 
REMARK   21  A    between atoms: C16_31  and  O13_49 
REMARK   22  A    between atoms: C17_32  and  O12_48 
REMARK   23  A    between atoms: C18_33  and  N3_35 
REMARK   24  A    between atoms: C21_40  and  N7_47 
REMARK   25  A    between atoms: O13_49  and  P3_50 
REMARK   26  A    between atoms: P3_50  and  O15_52 
REMARK   27  A    between atoms: P3_50  and  O16_53 
ROOT
HETATM    1  C1  UNL     1      -5.285  21.689   1.269  1.00  0.00     0.104 C 
HETATM    2  C2  UNL     1      -6.434  21.489   2.209  1.00  0.00     0.182 C 
HETATM    3  O1  UNL     1      -6.787  22.330   3.032  1.00  0.00    -0.286 OA
ENDROOT
BRANCH   2   4
HETATM    4  S1  UNL     1      -7.223  19.924   2.067  1.00  0.00    -0.091 SA
BRANCH   4   5
HETATM    5  C3  UNL     1      -5.799  18.884   1.607  1.00  0.00     0.102 C 
BRANCH   5   6
HETATM    6  C4  UNL     1      -6.072  17.400   1.859  1.00  0.00     0.133 C 
BRANCH   6   7
HETATM    7  N1  UNL     1      -7.054  16.849   0.948  1.00  0.00    -0.360 N 
HETATM    8  C5  UNL     1      -7.831  15.766   1.288  1.00  0.00     0.219 C 
HETATM    9  O2  UNL     1      -7.685  15.155   2.340  1.00  0.00    -0.274 OA
HETATM   10  H8  UNL     1      -7.173  17.282   0.042  1.00  0.00     0.162 HD
BRANCH   8  11
HETATM   11  C6  UNL     1      -8.830  15.385   0.218  1.00  0.00     0.122 C 
BRANCH  11  12
HETATM   12  C7  UNL     1      -8.900  13.872   0.014  1.00  0.00     0.132 C 
BRANCH  12  13
HETATM   13  N2  UNL     1      -7.610  13.277  -0.267  1.00  0.00    -0.358 N 
HETATM   14  C8  UNL     1      -7.167  12.194   0.469  1.00  0.00     0.247 C 
HETATM   15  O3  UNL     1      -7.777  11.777   1.445  1.00  0.00    -0.271 OA
HETATM   16  H13 UNL     1      -7.300  13.341  -1.235  1.00  0.00     0.162 HD
BRANCH  14  17
HETATM   17  C9  UNL     1      -5.870  11.552  -0.046  1.00  0.00     0.219 C 
BRANCH  17  18
HETATM   18  C10 UNL     1      -4.580  12.066   0.646  1.00  0.00     0.009 C 
HETATM   19  C11 UNL     1      -4.889  12.926   1.880  1.00  0.00     0.020 C 
HETATM   20  C12 UNL     1      -3.676  10.900   1.093  1.00  0.00     0.020 C 
BRANCH  18  21
HETATM   21  C13 UNL     1      -3.839  12.926  -0.418  1.00  0.00     0.192 C 
BRANCH  21  22
HETATM   22  O4  UNL     1      -4.731  13.571  -1.305  1.00  0.00    -0.296 OA
BRANCH  22  23
HETATM   23  P1  UNL     1      -4.412  13.777  -2.863  1.00  0.00     0.401 P 
HETATM   24  O5  UNL     1      -5.626  13.973  -3.715  1.00  0.00    -0.631 OA
BRANCH  23  25
HETATM   25  O6  UNL     1      -3.493  12.536  -3.318  1.00  0.00    -0.307 OA
HETATM   26  H23 UNL     1      -2.557  12.693  -3.136  1.00  0.00     0.222 HD
ENDBRANCH  23  25
BRANCH  23  27
HETATM   27  O7  UNL     1      -3.364  14.973  -2.913  1.00  0.00    -0.195 OA
BRANCH  27  28
HETATM   28  P2  UNL     1      -3.858  16.445  -2.557  1.00  0.00     0.401 P 
HETATM   29  O8  UNL     1      -4.048  17.390  -3.699  1.00  0.00    -0.631 OA
BRANCH  28  30
HETATM   30  O9  UNL     1      -5.178  16.191  -1.696  1.00  0.00    -0.307 OA
HETATM   31  H24 UNL     1      -5.987  16.021  -2.238  1.00  0.00     0.222 HD
ENDBRANCH  28  30
BRANCH  28  32
HETATM   32  O10 UNL     1      -2.850  16.925  -1.415  1.00  0.00    -0.294 OA
BRANCH  32  33
HETATM   33  C14 UNL     1      -3.019  16.477  -0.096  1.00  0.00     0.215 C 
BRANCH  33  34
HETATM   34  C15 UNL     1      -2.504  17.599   0.805  1.00  0.00     0.180 C 
HETATM   35  C16 UNL     1      -1.562  18.500   0.018  1.00  0.00     0.197 C 
HETATM   36  C17 UNL     1      -0.226  18.371   0.727  1.00  0.00     0.199 C 
HETATM   37  C18 UNL     1      -0.649  17.978   2.144  1.00  0.00     0.262 C 
HETATM   38  O11 UNL     1      -1.791  17.115   1.949  1.00  0.00    -0.353 OA
BRANCH  35  39
HETATM   39  O13 UNL     1      -2.073  19.828   0.073  1.00  0.00    -0.286 OA
BRANCH  39  40
HETATM   40  P3  UNL     1      -2.214  20.570  -1.336  1.00  0.00     0.391 P 
HETATM   41  O14 UNL     1      -3.618  20.953  -1.677  1.00  0.00    -0.632 OA
BRANCH  40  42
HETATM   42  O15 UNL     1      -1.475  19.529  -2.299  1.00  0.00    -0.307 OA
HETATM   43  H36 UNL     1      -1.822  19.598  -3.220  1.00  0.00     0.222 HD
ENDBRANCH  40  42
BRANCH  40  44
HETATM   44  O16 UNL     1      -1.148  21.741  -1.183  1.00  0.00    -0.307 OA
HETATM   45  H37 UNL     1      -0.669  21.706  -0.340  1.00  0.00     0.222 HD
ENDBRANCH  40  44
ENDBRANCH  39  40
ENDBRANCH  35  39
BRANCH  36  46
HETATM   46  O12 UNL     1       0.532  19.575   0.578  1.00  0.00    -0.388 OA
HETATM   47  H35 UNL     1       0.383  19.884  -0.347  1.00  0.00     0.210 HD
ENDBRANCH  36  46
BRANCH  37  48
HETATM   48  N3  UNL     1       0.380  17.238   2.847  1.00  0.00    -0.297 N 
HETATM   49  C19 UNL     1       0.660  15.896   2.738  1.00  0.00     0.188 A 
HETATM   50  N4  UNL     1       1.736  15.556   3.412  1.00  0.00    -0.346 N 
HETATM   51  C20 UNL     1       2.179  16.736   3.983  1.00  0.00     0.116 A 
HETATM   52  H4  UNL     1       2.153  14.628   3.496  1.00  0.00     0.167 HD
HETATM   53  C21 UNL     1       3.294  17.050   4.779  1.00  0.00     0.109 A 
HETATM   54  C23 UNL     1       1.325  17.779   3.673  1.00  0.00     0.142 A 
HETATM   55  N5  UNL     1       3.451  18.329   5.201  1.00  0.00    -0.341 N 
HETATM   56  C22 UNL     1       2.524  19.238   4.839  1.00  0.00     0.183 A 
HETATM   57  H5  UNL     1       4.250  18.595   5.776  1.00  0.00     0.167 HD
HETATM   58  N6  UNL     1       1.426  19.058   4.078  1.00  0.00    -0.336 N 
HETATM   59  H6  UNL     1       0.760  19.793   3.840  1.00  0.00     0.168 HD
BRANCH  53  60
HETATM   60  N7  UNL     1       4.242  16.116   5.165  1.00  0.00    -0.287 NA
HETATM   61  H33 UNL     1       4.000  15.154   4.938  1.00  0.00     0.125 HD
HETATM   62  H34 UNL     1       4.609  16.286   6.092  1.00  0.00     0.125 HD
ENDBRANCH  53  60
ENDBRANCH  37  48
ENDBRANCH  33  34
ENDBRANCH  32  33
ENDBRANCH  28  32
ENDBRANCH  27  28
ENDBRANCH  23  27
ENDBRANCH  22  23
ENDBRANCH  21  22
ENDBRANCH  18  21
ENDBRANCH  17  18
BRANCH  17  63
HETATM   63  O17 UNL     1      -5.931  10.130   0.105  1.00  0.00    -0.385 OA
HETATM   64  H38 UNL     1      -5.921   9.732  -0.782  1.00  0.00     0.210 HD
ENDBRANCH  17  63
ENDBRANCH  14  17
ENDBRANCH  12  13
ENDBRANCH  11  12
ENDBRANCH   8  11
ENDBRANCH   6   7
ENDBRANCH   5   6
ENDBRANCH   4   5
ENDBRANCH   2   4
TORSDOF 27
ENDMDL
MODEL 20
REMARK VINA RESULT:      -5.1      2.735      4.798
REMARK  27 active torsions:
REMARK  status: ('A' for Active; 'I' for Inactive)
REMARK    1  A    between atoms: C2_2  and  S1_4 
REMARK    2  A    between atoms: S1_4  and  C3_5 
REMARK    3  A    between atoms: C3_5  and  C4_6 
REMARK    4  A    between atoms: C4_6  and  N1_7 
REMARK       I    between atoms: N1_7  and  C5_8 
REMARK    5  A    between atoms: C5_8  and  C6_10 
REMARK    6  A    between atoms: C6_10  and  C7_11 
REMARK    7  A    between atoms: C7_11  and  N2_12 
REMARK       I    between atoms: N2_12  and  C8_13 
REMARK    8  A    between atoms: C8_13  and  C9_15 
REMARK    9  A    between atoms: C9_15  and  C10_16 
REMARK   10  A    between atoms: C9_15  and  O17_54 
REMARK   11  A    between atoms: C10_16  and  C13_19 
REMARK   12  A    between atoms: C13_19  and  O4_20 
REMARK   13  A    between atoms: O4_20  and  P1_21 
REMARK   14  A    between atoms: P1_21  and  O6_23 
REMARK   15  A    between atoms: P1_21  and  O7_24 
REMARK   16  A    between atoms: O7_24  and  P2_25 
REMARK   17  A    between atoms: P2_25  and  O9_27 
REMARK   18  A    between atoms: P2_25  and  O10_28 
REMARK   19  A    between atoms: O10_28  and  C14_29 
REMARK   20  A    between atoms: C14_29  and  C15_30 
REMARK   21  A    between atoms: C16_31  and  O13_49 
REMARK   22  A    between atoms: C17_32  and  O12_48 
REMARK   23  A    between atoms: C18_33  and  N3_35 
REMARK   24  A    between atoms: C21_40  and  N7_47 
REMARK   25  A    between atoms: O13_49  and  P3_50 
REMARK   26  A    between atoms: P3_50  and  O15_52 
REMARK   27  A    between atoms: P3_50  and  O16_53 
ROOT
HETATM    1  C1  UNL     1      -6.606  18.563   1.261  1.00  0.00     0.104 C 
HETATM    2  C2  UNL     1      -5.697  17.512   1.820  1.00  0.00     0.182 C 
HETATM    3  O1  UNL     1      -4.526  17.727   2.126  1.00  0.00    -0.286 OA
ENDROOT
BRANCH   2   4
HETATM    4  S1  UNL     1      -6.431  15.922   1.969  1.00  0.00    -0.091 SA
BRANCH   4   5
HETATM    5  C3  UNL     1      -5.995  15.524   3.693  1.00  0.00     0.102 C 
BRANCH   5   6
HETATM    6  C4  UNL     1      -4.777  14.602   3.774  1.00  0.00     0.133 C 
BRANCH   6   7
HETATM    7  N1  UNL     1      -3.526  15.331   3.827  1.00  0.00    -0.360 N 
HETATM    8  C5  UNL     1      -2.549  15.163   2.874  1.00  0.00     0.219 C 
HETATM    9  O2  UNL     1      -2.640  14.336   1.974  1.00  0.00    -0.274 OA
HETATM   10  H8  UNL     1      -3.376  15.985   4.584  1.00  0.00     0.162 HD
BRANCH   8  11
HETATM   11  C6  UNL     1      -1.347  16.058   3.083  1.00  0.00     0.122 C 
BRANCH  11  12
HETATM   12  C7  UNL     1      -0.785  16.578   1.760  1.00  0.00     0.132 C 
BRANCH  12  13
HETATM   13  N2  UNL     1      -1.815  16.927   0.804  1.00  0.00    -0.358 N 
HETATM   14  C8  UNL     1      -1.764  18.137   0.136  1.00  0.00     0.247 C 
HETATM   15  O3  UNL     1      -0.934  18.995   0.405  1.00  0.00    -0.271 OA
HETATM   16  H13 UNL     1      -2.243  16.143   0.316  1.00  0.00     0.162 HD
BRANCH  14  17
HETATM   17  C9  UNL     1      -2.813  18.304  -0.973  1.00  0.00     0.219 C 
BRANCH  17  18
HETATM   18  C10 UNL     1      -2.227  18.354  -2.409  1.00  0.00     0.009 C 
HETATM   19  C11 UNL     1      -1.239  19.516  -2.590  1.00  0.00     0.020 C 
HETATM   20  C12 UNL     1      -1.493  17.046  -2.766  1.00  0.00     0.020 C 
BRANCH  18  21
HETATM   21  C13 UNL     1      -3.443  18.550  -3.359  1.00  0.00     0.192 C 
BRANCH  21  22
HETATM   22  O4  UNL     1      -3.212  19.552  -4.329  1.00  0.00    -0.296 OA
BRANCH  22  23
HETATM   23  P1  UNL     1      -3.593  19.371  -5.876  1.00  0.00     0.401 P 
HETATM   24  O5  UNL     1      -3.274  20.559  -6.728  1.00  0.00    -0.631 OA
BRANCH  23  25
HETATM   25  O6  UNL     1      -5.141  18.933  -5.926  1.00  0.00    -0.307 OA
HETATM   26  H23 UNL     1      -5.665  19.519  -6.487  1.00  0.00     0.222 HD
ENDBRANCH  23  25
BRANCH  23  27
HETATM   27  O7  UNL     1      -2.876  18.022  -6.320  1.00  0.00    -0.195 OA
BRANCH  27  28
HETATM   28  P2  UNL     1      -3.572  17.107  -7.423  1.00  0.00     0.401 P 
HETATM   29  O8  UNL     1      -4.036  17.785  -8.670  1.00  0.00    -0.631 OA
BRANCH  28  30
HETATM   30  O9  UNL     1      -2.498  15.951  -7.671  1.00  0.00    -0.307 OA
HETATM   31  H24 UNL     1      -2.640  15.441  -8.505  1.00  0.00     0.222 HD
ENDBRANCH  28  30
BRANCH  28  32
HETATM   32  O10 UNL     1      -4.687  16.303  -6.610  1.00  0.00    -0.294 OA
BRANCH  32  33
HETATM   33  C14 UNL     1      -4.478  14.955  -6.277  1.00  0.00     0.215 C 
BRANCH  33  34
HETATM   34  C15 UNL     1      -3.829  14.953  -4.894  1.00  0.00     0.180 C 
HETATM   35  C16 UNL     1      -3.061  13.654  -4.687  1.00  0.00     0.197 C 
HETATM   36  C17 UNL     1      -3.748  12.984  -3.512  1.00  0.00     0.199 C 
HETATM   37  C18 UNL     1      -4.363  14.177  -2.775  1.00  0.00     0.262 C 
HETATM   38  O11 UNL     1      -4.780  15.071  -3.830  1.00  0.00    -0.353 OA
BRANCH  35  39
HETATM   39  O13 UNL     1      -1.706  13.983  -4.400  1.00  0.00    -0.286 OA
BRANCH  39  40
HETATM   40  P3  UNL     1      -0.615  13.292  -5.342  1.00  0.00     0.391 P 
HETATM   41  O14 UNL     1       0.721  13.961  -5.308  1.00  0.00    -0.632 OA
BRANCH  40  42
HETATM   42  O15 UNL     1      -1.396  13.268  -6.738  1.00  0.00    -0.307 OA
HETATM   43  H36 UNL     1      -2.260  13.738  -6.662  1.00  0.00     0.222 HD
ENDBRANCH  40  42
BRANCH  40  44
HETATM   44  O16 UNL     1      -0.693  11.779  -4.858  1.00  0.00    -0.307 OA
HETATM   45  H37 UNL     1      -0.385  11.152  -5.532  1.00  0.00     0.222 HD
ENDBRANCH  40  44
ENDBRANCH  39  40
ENDBRANCH  35  39
BRANCH  36  46
HETATM   46  O12 UNL     1      -2.817  12.174  -2.789  1.00  0.00    -0.388 OA
HETATM   47  H35 UNL     1      -2.017  12.094  -3.360  1.00  0.00     0.210 HD
ENDBRANCH  36  46
BRANCH  37  48
HETATM   48  N3  UNL     1      -5.523  13.807  -1.990  1.00  0.00    -0.297 N 
HETATM   49  C19 UNL     1      -6.845  13.989  -2.324  1.00  0.00     0.188 A 
HETATM   50  N4  UNL     1      -7.660  13.431  -1.457  1.00  0.00    -0.346 N 
HETATM   51  C20 UNL     1      -6.826  12.854  -0.515  1.00  0.00     0.116 A 
HETATM   52  H4  UNL     1      -8.680  13.424  -1.473  1.00  0.00     0.167 HD
HETATM   53  C21 UNL     1      -7.075  12.081   0.632  1.00  0.00     0.109 A 
HETATM   54  C23 UNL     1      -5.501  13.114  -0.812  1.00  0.00     0.142 A 
HETATM   55  N5  UNL     1      -6.020  11.662   1.373  1.00  0.00    -0.341 N 
HETATM   56  C22 UNL     1      -4.781  12.012   0.975  1.00  0.00     0.183 A 
HETATM   57  H5  UNL     1      -6.161  11.097   2.211  1.00  0.00     0.167 HD
HETATM   58  N6  UNL     1      -4.421  12.736  -0.104  1.00  0.00    -0.336 N 
HETATM   59  H6  UNL     1      -3.459  12.967  -0.351  1.00  0.00     0.168 HD
BRANCH  53  60
HETATM   60  N7  UNL     1      -8.347  11.732   1.055  1.00  0.00    -0.287 NA
HETATM   61  H33 UNL     1      -8.879  12.498   1.461  1.00  0.00     0.125 HD
HETATM   62  H34 UNL     1      -8.371  10.849   1.548  1.00  0.00     0.125 HD
ENDBRANCH  53  60
ENDBRANCH  37  48
ENDBRANCH  33  34
ENDBRANCH  32  33
ENDBRANCH  28  32
ENDBRANCH  27  28
ENDBRANCH  23  27
ENDBRANCH  22  23
ENDBRANCH  21  22
ENDBRANCH  18  21
ENDBRANCH  17  18
BRANCH  17  63
HETATM   63  O17 UNL     1      -3.771  17.241  -0.911  1.00  0.00    -0.385 OA
HETATM   64  H38 UNL     1      -4.490  17.518  -0.319  1.00  0.00     0.210 HD
ENDBRANCH  17  63
ENDBRANCH  14  17
ENDBRANCH  12  13
ENDBRANCH  11  12
ENDBRANCH   8  11
ENDBRANCH   6   7
ENDBRANCH   5   6
ENDBRANCH   4   5
ENDBRANCH   2   4
TORSDOF 27
ENDMDL
