MODEL 1
REMARK VINA RESULT:      -4.5      0.000      0.000
REMARK  2 active torsions:
REMARK  status: ('A' for Active; 'I' for Inactive)
REMARK    1  A    between atoms: C3_3  and  O1_8 
REMARK    2  A    between atoms: C6_6  and  N1_7 
ROOT
HETATM    1  C1  UNL     1      11.851  -1.533   0.733  1.00  0.00     0.026 A 
HETATM    2  C2  UNL     1      12.417  -2.202  -0.355  1.00  0.00     0.038 A 
HETATM    3  C3  UNL     1      12.106  -3.535  -0.580  1.00  0.00     0.065 A 
HETATM    4  C4  UNL     1      11.222  -4.207   0.258  1.00  0.00     0.038 A 
HETATM    5  C5  UNL     1      10.660  -3.531   1.345  1.00  0.00     0.026 A 
HETATM    6  C6  UNL     1      11.007  -2.205   1.622  1.00  0.00     0.005 A 
ENDROOT
BRANCH   6   7
HETATM    7  N1  UNL     1      10.350  -1.502   2.639  1.00  0.00    -0.303 NA
HETATM    8  H5  UNL     1       9.583  -0.926   2.307  1.00  0.00     0.124 HD
HETATM    9  H6  UNL     1      10.975  -0.995   3.257  1.00  0.00     0.124 HD
ENDBRANCH   6   7
BRANCH   3  10
HETATM   10  O1  UNL     1      12.677  -4.151  -1.653  1.00  0.00    -0.361 OA
HETATM   11  H7  UNL     1      13.287  -4.834  -1.329  1.00  0.00     0.217 HD
ENDBRANCH   3  10
TORSDOF 2
ENDMDL
MODEL 2
REMARK VINA RESULT:      -4.4      2.780      3.681
REMARK  2 active torsions:
REMARK  status: ('A' for Active; 'I' for Inactive)
REMARK    1  A    between atoms: C3_3  and  O1_8 
REMARK    2  A    between atoms: C6_6  and  N1_7 
ROOT
HETATM    1  C1  UNL     1      11.292  -4.133   0.402  1.00  0.00     0.026 A 
HETATM    2  C2  UNL     1      10.686  -3.420   1.440  1.00  0.00     0.038 A 
HETATM    3  C3  UNL     1      10.987  -2.077   1.618  1.00  0.00     0.065 A 
HETATM    4  C4  UNL     1      11.873  -1.431   0.764  1.00  0.00     0.038 A 
HETATM    5  C5  UNL     1      12.476  -2.151  -0.271  1.00  0.00     0.026 A 
HETATM    6  C6  UNL     1      12.231  -3.519  -0.431  1.00  0.00     0.005 A 
ENDROOT
BRANCH   6   7
HETATM    7  N1  UNL     1      12.745  -4.202  -1.539  1.00  0.00    -0.303 NA
HETATM    8  H5  UNL     1      12.825  -3.627  -2.372  1.00  0.00     0.124 HD
HETATM    9  H6  UNL     1      12.287  -5.088  -1.724  1.00  0.00     0.124 HD
ENDBRANCH   6   7
BRANCH   3  10
HETATM   10  O1  UNL     1      10.374  -1.416   2.640  1.00  0.00    -0.361 OA
HETATM   11  H7  UNL     1      10.325  -0.474   2.414  1.00  0.00     0.217 HD
ENDBRANCH   3  10
TORSDOF 2
ENDMDL
MODEL 3
REMARK VINA RESULT:      -4.4      2.779      3.264
REMARK  2 active torsions:
REMARK  status: ('A' for Active; 'I' for Inactive)
REMARK    1  A    between atoms: C3_3  and  O1_8 
REMARK    2  A    between atoms: C6_6  and  N1_7 
ROOT
HETATM    1  C1  UNL     1      12.348  -2.116  -0.271  1.00  0.00     0.026 A 
HETATM    2  C2  UNL     1      11.723  -1.442   0.780  1.00  0.00     0.038 A 
HETATM    3  C3  UNL     1      10.865  -2.131   1.626  1.00  0.00     0.065 A 
HETATM    4  C4  UNL     1      10.635  -3.491   1.446  1.00  0.00     0.038 A 
HETATM    5  C5  UNL     1      11.264  -4.158   0.391  1.00  0.00     0.026 A 
HETATM    6  C6  UNL     1      12.085  -3.469  -0.507  1.00  0.00     0.005 A 
ENDROOT
BRANCH   6   7
HETATM    7  N1  UNL     1      12.802  -4.167  -1.485  1.00  0.00    -0.303 NA
HETATM    8  H5  UNL     1      12.215  -4.594  -2.195  1.00  0.00     0.124 HD
HETATM    9  H6  UNL     1      13.486  -4.814  -1.109  1.00  0.00     0.124 HD
ENDBRANCH   6   7
BRANCH   3  10
HETATM   10  O1  UNL     1      10.276  -1.439   2.641  1.00  0.00    -0.361 OA
HETATM   11  H7  UNL     1      10.873  -0.725   2.916  1.00  0.00     0.217 HD
ENDBRANCH   3  10
TORSDOF 2
ENDMDL
MODEL 4
REMARK VINA RESULT:      -3.8      8.146      8.994
REMARK  2 active torsions:
REMARK  status: ('A' for Active; 'I' for Inactive)
REMARK    1  A    between atoms: C3_3  and  O1_8 
REMARK    2  A    between atoms: C6_6  and  N1_7 
ROOT
HETATM    1  C1  UNL     1      12.093  -8.965  -3.693  1.00  0.00     0.026 A 
HETATM    2  C2  UNL     1      11.598  -9.713  -2.622  1.00  0.00     0.038 A 
HETATM    3  C3  UNL     1      10.857 -10.860  -2.869  1.00  0.00     0.065 A 
HETATM    4  C4  UNL     1      10.616 -11.281  -4.172  1.00  0.00     0.038 A 
HETATM    5  C5  UNL     1      11.113 -10.526  -5.239  1.00  0.00     0.026 A 
HETATM    6  C6  UNL     1      11.812  -9.336  -5.012  1.00  0.00     0.005 A 
ENDROOT
BRANCH   6   7
HETATM    7  N1  UNL     1      12.406  -8.653  -6.079  1.00  0.00    -0.303 NA
HETATM    8  H5  UNL     1      13.392  -8.863  -6.199  1.00  0.00     0.124 HD
HETATM    9  H6  UNL     1      12.220  -7.656  -6.082  1.00  0.00     0.124 HD
ENDBRANCH   6   7
BRANCH   3  10
HETATM   10  O1  UNL     1      10.395 -11.564  -1.798  1.00  0.00    -0.361 OA
HETATM   11  H7  UNL     1      11.141 -11.756  -1.208  1.00  0.00     0.217 HD
ENDBRANCH   3  10
TORSDOF 2
ENDMDL
MODEL 5
REMARK VINA RESULT:      -3.8      8.122      9.082
REMARK  2 active torsions:
REMARK  status: ('A' for Active; 'I' for Inactive)
REMARK    1  A    between atoms: C3_3  and  O1_8 
REMARK    2  A    between atoms: C6_6  and  N1_7 
ROOT
HETATM    1  C1  UNL     1      11.166 -10.560  -5.211  1.00  0.00     0.026 A 
HETATM    2  C2  UNL     1      10.649 -11.281  -4.132  1.00  0.00     0.038 A 
HETATM    3  C3  UNL     1      10.871 -10.834  -2.837  1.00  0.00     0.065 A 
HETATM    4  C4  UNL     1      11.588  -9.666  -2.604  1.00  0.00     0.038 A 
HETATM    5  C5  UNL     1      12.103  -8.950  -3.689  1.00  0.00     0.026 A 
HETATM    6  C6  UNL     1      11.941  -9.416  -4.998  1.00  0.00     0.005 A 
ENDROOT
BRANCH   6   7
HETATM    7  N1  UNL     1      12.355  -8.633  -6.081  1.00  0.00    -0.303 NA
HETATM    8  H5  UNL     1      11.594  -8.157  -6.555  1.00  0.00     0.124 HD
HETATM    9  H6  UNL     1      12.969  -9.118  -6.727  1.00  0.00     0.124 HD
ENDBRANCH   6   7
BRANCH   3  10
HETATM   10  O1  UNL     1      10.349 -11.564  -1.811  1.00  0.00    -0.361 OA
HETATM   11  H7  UNL     1      10.465 -11.066  -0.986  1.00  0.00     0.217 HD
ENDBRANCH   3  10
TORSDOF 2
ENDMDL
MODEL 6
REMARK VINA RESULT:      -3.7      7.720      8.689
REMARK  2 active torsions:
REMARK  status: ('A' for Active; 'I' for Inactive)
REMARK    1  A    between atoms: C3_3  and  O1_8 
REMARK    2  A    between atoms: C6_6  and  N1_7 
ROOT
HETATM    1  C1  UNL     1      10.943 -11.243  -4.203  1.00  0.00     0.026 A 
HETATM    2  C2  UNL     1      11.342 -10.442  -5.276  1.00  0.00     0.038 A 
HETATM    3  C3  UNL     1      11.743  -9.133  -5.045  1.00  0.00     0.065 A 
HETATM    4  C4  UNL     1      11.766  -8.617  -3.754  1.00  0.00     0.038 A 
HETATM    5  C5  UNL     1      11.364  -9.424  -2.686  1.00  0.00     0.026 A 
HETATM    6  C6  UNL     1      10.901 -10.726  -2.905  1.00  0.00     0.005 A 
ENDROOT
BRANCH   6   7
HETATM    7  N1  UNL     1      10.615 -11.564  -1.821  1.00  0.00    -0.303 NA
HETATM    8  H5  UNL     1      10.337 -11.065  -0.982  1.00  0.00     0.124 HD
HETATM    9  H6  UNL     1      11.333 -12.258  -1.638  1.00  0.00     0.124 HD
ENDBRANCH   6   7
BRANCH   3  10
HETATM   10  O1  UNL     1      12.127  -8.385  -6.117  1.00  0.00    -0.361 OA
HETATM   11  H7  UNL     1      11.384  -8.329  -6.738  1.00  0.00     0.217 HD
ENDBRANCH   3  10
TORSDOF 2
ENDMDL
MODEL 7
REMARK VINA RESULT:      -3.5      7.547      8.500
REMARK  2 active torsions:
REMARK  status: ('A' for Active; 'I' for Inactive)
REMARK    1  A    between atoms: C3_3  and  O1_8 
REMARK    2  A    between atoms: C6_6  and  N1_7 
ROOT
HETATM    1  C1  UNL     1      11.252  -9.247  -5.449  1.00  0.00     0.026 A 
HETATM    2  C2  UNL     1      11.067  -8.065  -4.728  1.00  0.00     0.038 A 
HETATM    3  C3  UNL     1      11.363  -8.032  -3.373  1.00  0.00     0.065 A 
HETATM    4  C4  UNL     1      11.858  -9.161  -2.729  1.00  0.00     0.038 A 
HETATM    5  C5  UNL     1      12.039 -10.341  -3.456  1.00  0.00     0.026 A 
HETATM    6  C6  UNL     1      11.691 -10.410  -4.809  1.00  0.00     0.005 A 
ENDROOT
BRANCH   6   7
HETATM    7  N1  UNL     1      11.988 -11.557  -5.555  1.00  0.00    -0.303 NA
HETATM    8  H5  UNL     1      12.539 -12.243  -5.048  1.00  0.00     0.124 HD
HETATM    9  H6  UNL     1      12.367 -11.361  -6.475  1.00  0.00     0.124 HD
ENDBRANCH   6   7
BRANCH   3  10
HETATM   10  O1  UNL     1      11.171  -6.860  -2.706  1.00  0.00    -0.361 OA
HETATM   11  H7  UNL     1      11.431  -6.985  -1.779  1.00  0.00     0.217 HD
ENDBRANCH   3  10
TORSDOF 2
ENDMDL
MODEL 8
REMARK VINA RESULT:      -3.4      8.012      8.783
REMARK  2 active torsions:
REMARK  status: ('A' for Active; 'I' for Inactive)
REMARK    1  A    between atoms: C3_3  and  O1_8 
REMARK    2  A    between atoms: C6_6  and  N1_7 
ROOT
HETATM    1  C1  UNL     1      11.276 -11.155  -2.631  1.00  0.00     0.026 A 
HETATM    2  C2  UNL     1      10.660 -11.248  -3.881  1.00  0.00     0.038 A 
HETATM    3  C3  UNL     1      10.985 -10.339  -4.878  1.00  0.00     0.065 A 
HETATM    4  C4  UNL     1      11.932  -9.346  -4.649  1.00  0.00     0.038 A 
HETATM    5  C5  UNL     1      12.543  -9.259  -3.395  1.00  0.00     0.026 A 
HETATM    6  C6  UNL     1      12.186 -10.129  -2.360  1.00  0.00     0.005 A 
ENDROOT
BRANCH   6   7
HETATM    7  N1  UNL     1      12.887 -10.110  -1.149  1.00  0.00    -0.303 NA
HETATM    8  H5  UNL     1      12.829 -10.980  -0.630  1.00  0.00     0.124 HD
HETATM    9  H6  UNL     1      12.686  -9.301  -0.570  1.00  0.00     0.124 HD
ENDBRANCH   6   7
BRANCH   3  10
HETATM   10  O1  UNL     1      10.364 -10.464  -6.084  1.00  0.00    -0.361 OA
HETATM   11  H7  UNL     1       9.600  -9.866  -6.103  1.00  0.00     0.217 HD
ENDBRANCH   3  10
TORSDOF 2
ENDMDL
MODEL 9
REMARK VINA RESULT:      -2.7      7.291      8.020
REMARK  2 active torsions:
REMARK  status: ('A' for Active; 'I' for Inactive)
REMARK    1  A    between atoms: C3_3  and  O1_8 
REMARK    2  A    between atoms: C6_6  and  N1_7 
ROOT
HETATM    1  C1  UNL     1      11.892  -8.520  -3.429  1.00  0.00     0.026 A 
HETATM    2  C2  UNL     1      11.120  -9.408  -4.182  1.00  0.00     0.038 A 
HETATM    3  C3  UNL     1      11.002 -10.730  -3.778  1.00  0.00     0.065 A 
HETATM    4  C4  UNL     1      11.631 -11.176  -2.620  1.00  0.00     0.038 A 
HETATM    5  C5  UNL     1      12.403 -10.282  -1.872  1.00  0.00     0.026 A 
HETATM    6  C6  UNL     1      12.582  -8.961  -2.295  1.00  0.00     0.005 A 
ENDROOT
BRANCH   6   7
HETATM    7  N1  UNL     1      13.257  -8.045  -1.479  1.00  0.00    -0.303 NA
HETATM    8  H5  UNL     1      13.154  -7.080  -1.778  1.00  0.00     0.124 HD
HETATM    9  H6  UNL     1      14.224  -8.292  -1.297  1.00  0.00     0.124 HD
ENDBRANCH   6   7
BRANCH   3  10
HETATM   10  O1  UNL     1      10.238 -11.564  -4.538  1.00  0.00    -0.361 OA
HETATM   11  H7  UNL     1       9.331 -11.219  -4.561  1.00  0.00     0.217 HD
ENDBRANCH   3  10
TORSDOF 2
ENDMDL
MODEL 10
REMARK VINA RESULT:      -2.7      2.027      2.721
REMARK  2 active torsions:
REMARK  status: ('A' for Active; 'I' for Inactive)
REMARK    1  A    between atoms: C3_3  and  O1_8 
REMARK    2  A    between atoms: C6_6  and  N1_7 
ROOT
HETATM    1  C1  UNL     1      11.522  -2.729  -0.123  1.00  0.00     0.026 A 
HETATM    2  C2  UNL     1      10.894  -3.816  -0.734  1.00  0.00     0.038 A 
HETATM    3  C3  UNL     1      11.641  -4.705  -1.494  1.00  0.00     0.065 A 
HETATM    4  C4  UNL     1      13.013  -4.531  -1.639  1.00  0.00     0.038 A 
HETATM    5  C5  UNL     1      13.635  -3.440  -1.026  1.00  0.00     0.026 A 
HETATM    6  C6  UNL     1      12.889  -2.502  -0.305  1.00  0.00     0.005 A 
ENDROOT
BRANCH   6   7
HETATM    7  N1  UNL     1      13.535  -1.482   0.403  1.00  0.00    -0.303 NA
HETATM    8  H5  UNL     1      13.209  -0.550   0.165  1.00  0.00     0.124 HD
HETATM    9  H6  UNL     1      14.547  -1.552   0.392  1.00  0.00     0.124 HD
ENDBRANCH   6   7
BRANCH   3  10
HETATM   10  O1  UNL     1      10.992  -5.754  -2.072  1.00  0.00    -0.361 OA
HETATM   11  H7  UNL     1      11.514  -6.062  -2.830  1.00  0.00     0.217 HD
ENDBRANCH   3  10
TORSDOF 2
ENDMDL
MODEL 11
REMARK VINA RESULT:      -2.7      6.647      7.572
REMARK  2 active torsions:
REMARK  status: ('A' for Active; 'I' for Inactive)
REMARK    1  A    between atoms: C3_3  and  O1_8 
REMARK    2  A    between atoms: C6_6  and  N1_7 
ROOT
HETATM    1  C1  UNL     1      13.336  -9.158  -1.362  1.00  0.00     0.026 A 
HETATM    2  C2  UNL     1      12.683  -7.998  -1.784  1.00  0.00     0.038 A 
HETATM    3  C3  UNL     1      11.725  -8.074  -2.785  1.00  0.00     0.065 A 
HETATM    4  C4  UNL     1      11.397  -9.297  -3.360  1.00  0.00     0.038 A 
HETATM    5  C5  UNL     1      12.056 -10.454  -2.933  1.00  0.00     0.026 A 
HETATM    6  C6  UNL     1      13.066 -10.389  -1.967  1.00  0.00     0.005 A 
ENDROOT
BRANCH   6   7
HETATM    7  N1  UNL     1      13.634 -11.564  -1.462  1.00  0.00    -0.303 NA
HETATM    8  H5  UNL     1      14.158 -11.427  -0.603  1.00  0.00     0.124 HD
HETATM    9  H6  UNL     1      14.154 -12.098  -2.150  1.00  0.00     0.124 HD
ENDBRANCH   6   7
BRANCH   3  10
HETATM   10  O1  UNL     1      11.109  -6.921  -3.168  1.00  0.00    -0.361 OA
HETATM   11  H7  UNL     1      11.426  -6.198  -2.603  1.00  0.00     0.217 HD
ENDBRANCH   3  10
TORSDOF 2
ENDMDL
MODEL 12
REMARK VINA RESULT:      -2.5      3.183      3.600
REMARK  2 active torsions:
REMARK  status: ('A' for Active; 'I' for Inactive)
REMARK    1  A    between atoms: C3_3  and  O1_8 
REMARK    2  A    between atoms: C6_6  and  N1_7 
ROOT
HETATM    1  C1  UNL     1      13.253  -4.215  -0.709  1.00  0.00     0.026 A 
HETATM    2  C2  UNL     1      12.664  -2.948  -0.714  1.00  0.00     0.038 A 
HETATM    3  C3  UNL     1      11.326  -2.813  -1.056  1.00  0.00     0.065 A 
HETATM    4  C4  UNL     1      10.562  -3.929  -1.378  1.00  0.00     0.038 A 
HETATM    5  C5  UNL     1      11.158  -5.194  -1.372  1.00  0.00     0.026 A 
HETATM    6  C6  UNL     1      12.519  -5.343  -1.087  1.00  0.00     0.005 A 
ENDROOT
BRANCH   6   7
HETATM    7  N1  UNL     1      13.078  -6.621  -0.967  1.00  0.00    -0.303 NA
HETATM    8  H5  UNL     1      12.669  -7.176  -0.222  1.00  0.00     0.124 HD
HETATM    9  H6  UNL     1      14.092  -6.625  -0.940  1.00  0.00     0.124 HD
ENDBRANCH   6   7
BRANCH   3  10
HETATM   10  O1  UNL     1      10.788  -1.562  -1.047  1.00  0.00    -0.361 OA
HETATM   11  H7  UNL     1      10.786  -1.219  -1.955  1.00  0.00     0.217 HD
ENDBRANCH   3  10
TORSDOF 2
ENDMDL
MODEL 13
REMARK VINA RESULT:       0.8      6.581      7.293
REMARK  2 active torsions:
REMARK  status: ('A' for Active; 'I' for Inactive)
REMARK    1  A    between atoms: C3_3  and  O1_8 
REMARK    2  A    between atoms: C6_6  and  N1_7 
ROOT
HETATM    1  C1  UNL     1       6.160  -0.846   0.436  1.00  0.00     0.026 A 
HETATM    2  C2  UNL     1       4.765  -0.775   0.430  1.00  0.00     0.038 A 
HETATM    3  C3  UNL     1       4.098  -0.262   1.534  1.00  0.00     0.065 A 
HETATM    4  C4  UNL     1       4.806   0.196   2.639  1.00  0.00     0.038 A 
HETATM    5  C5  UNL     1       6.202   0.119   2.639  1.00  0.00     0.026 A 
HETATM    6  C6  UNL     1       6.889  -0.447   1.561  1.00  0.00     0.005 A 
ENDROOT
BRANCH   6   7
HETATM    7  N1  UNL     1       8.287  -0.410   1.518  1.00  0.00    -0.303 NA
HETATM    8  H5  UNL     1       8.723  -1.320   1.631  1.00  0.00     0.124 HD
HETATM    9  H6  UNL     1       8.698   0.292   2.124  1.00  0.00     0.124 HD
ENDBRANCH   6   7
BRANCH   3  10
HETATM   10  O1  UNL     1       2.737  -0.207   1.488  1.00  0.00    -0.361 OA
HETATM   11  H7  UNL     1       2.396  -1.101   1.324  1.00  0.00     0.217 HD
ENDBRANCH   3  10
TORSDOF 2
ENDMDL
