MODEL 1
REMARK VINA RESULT:      -4.5      0.000      0.000
REMARK  2 active torsions:
REMARK  status: ('A' for Active; 'I' for Inactive)
REMARK    1  A    between atoms: C3_3  and  O1_8 
REMARK    2  A    between atoms: C6_6  and  N1_7 
ROOT
HETATM    1  C1  UNL     1       8.583  -3.153  -4.951  1.00  0.00     0.026 A 
HETATM    2  C2  UNL     1       7.355  -3.323  -4.308  1.00  0.00     0.038 A 
HETATM    3  C3  UNL     1       6.411  -4.186  -4.845  1.00  0.00     0.065 A 
HETATM    4  C4  UNL     1       6.683  -4.897  -6.009  1.00  0.00     0.038 A 
HETATM    5  C5  UNL     1       7.914  -4.720  -6.648  1.00  0.00     0.026 A 
HETATM    6  C6  UNL     1       8.854  -3.811  -6.154  1.00  0.00     0.005 A 
ENDROOT
BRANCH   6   7
HETATM    7  N1  UNL     1      10.127  -3.730  -6.731  1.00  0.00    -0.303 NA
HETATM    8  H5  UNL     1      10.705  -4.546  -6.560  1.00  0.00     0.124 HD
HETATM    9  H6  UNL     1      10.614  -2.863  -6.530  1.00  0.00     0.124 HD
ENDBRANCH   6   7
BRANCH   3  10
HETATM   10  O1  UNL     1       5.226  -4.327  -4.187  1.00  0.00    -0.361 OA
HETATM   11  H7  UNL     1       4.974  -5.264  -4.199  1.00  0.00     0.217 HD
ENDBRANCH   3  10
TORSDOF 2
ENDMDL
MODEL 2
REMARK VINA RESULT:      -4.4      2.779      3.264
REMARK  2 active torsions:
REMARK  status: ('A' for Active; 'I' for Inactive)
REMARK    1  A    between atoms: C3_3  and  O1_8 
REMARK    2  A    between atoms: C6_6  and  N1_7 
ROOT
HETATM    1  C1  UNL     1       7.481  -3.306  -4.316  1.00  0.00     0.026 A 
HETATM    2  C2  UNL     1       8.697  -3.130  -4.980  1.00  0.00     0.038 A 
HETATM    3  C3  UNL     1       8.933  -3.801  -6.172  1.00  0.00     0.065 A 
HETATM    4  C4  UNL     1       7.964  -4.634  -6.719  1.00  0.00     0.038 A 
HETATM    5  C5  UNL     1       6.750  -4.807  -6.048  1.00  0.00     0.026 A 
HETATM    6  C6  UNL     1       6.516  -4.185  -4.817  1.00  0.00     0.005 A 
ENDROOT
BRANCH   6   7
HETATM    7  N1  UNL     1       5.256  -4.269  -4.214  1.00  0.00    -0.303 NA
HETATM    8  H5  UNL     1       5.148  -3.659  -3.409  1.00  0.00     0.124 HD
HETATM    9  H6  UNL     1       4.955  -5.218  -4.022  1.00  0.00     0.124 HD
ENDBRANCH   6   7
BRANCH   3  10
HETATM   10  O1  UNL     1      10.130  -3.600  -6.791  1.00  0.00    -0.361 OA
HETATM   11  H7  UNL     1      10.055  -2.824  -7.368  1.00  0.00     0.217 HD
ENDBRANCH   3  10
TORSDOF 2
ENDMDL
MODEL 3
REMARK VINA RESULT:      -4.4      2.781      3.683
REMARK  2 active torsions:
REMARK  status: ('A' for Active; 'I' for Inactive)
REMARK    1  A    between atoms: C3_3  and  O1_8 
REMARK    2  A    between atoms: C6_6  and  N1_7 
ROOT
HETATM    1  C1  UNL     1       6.794  -4.792  -6.073  1.00  0.00     0.026 A 
HETATM    2  C2  UNL     1       8.028  -4.638  -6.709  1.00  0.00     0.038 A 
HETATM    3  C3  UNL     1       8.976  -3.779  -6.172  1.00  0.00     0.065 A 
HETATM    4  C4  UNL     1       8.715  -3.081  -4.998  1.00  0.00     0.038 A 
HETATM    5  C5  UNL     1       7.477  -3.238  -4.368  1.00  0.00     0.026 A 
HETATM    6  C6  UNL     1       6.488  -4.055  -4.925  1.00  0.00     0.005 A 
ENDROOT
BRANCH   6   7
HETATM    7  N1  UNL     1       5.300  -4.298  -4.226  1.00  0.00    -0.303 NA
HETATM    8  H5  UNL     1       4.744  -5.052  -4.618  1.00  0.00     0.124 HD
HETATM    9  H6  UNL     1       4.750  -3.465  -4.048  1.00  0.00     0.124 HD
ENDBRANCH   6   7
BRANCH   3  10
HETATM   10  O1  UNL     1      10.169  -3.659  -6.821  1.00  0.00    -0.361 OA
HETATM   11  H7  UNL     1      10.170  -4.262  -7.581  1.00  0.00     0.217 HD
ENDBRANCH   3  10
TORSDOF 2
ENDMDL
MODEL 4
REMARK VINA RESULT:      -4.2      1.787      1.982
REMARK  2 active torsions:
REMARK  status: ('A' for Active; 'I' for Inactive)
REMARK    1  A    between atoms: C3_3  and  O1_8 
REMARK    2  A    between atoms: C6_6  and  N1_7 
ROOT
HETATM    1  C1  UNL     1       8.970  -5.561  -3.560  1.00  0.00     0.026 A 
HETATM    2  C2  UNL     1       7.599  -5.412  -3.338  1.00  0.00     0.038 A 
HETATM    3  C3  UNL     1       6.881  -4.479  -4.073  1.00  0.00     0.065 A 
HETATM    4  C4  UNL     1       7.510  -3.703  -5.039  1.00  0.00     0.038 A 
HETATM    5  C5  UNL     1       8.883  -3.857  -5.255  1.00  0.00     0.026 A 
HETATM    6  C6  UNL     1       9.635  -4.749  -4.484  1.00  0.00     0.005 A 
ENDROOT
BRANCH   6   7
HETATM    7  N1  UNL     1      10.981  -4.982  -4.788  1.00  0.00    -0.303 NA
HETATM    8  H5  UNL     1      11.521  -5.335  -4.004  1.00  0.00     0.124 HD
HETATM    9  H6  UNL     1      11.437  -4.204  -5.251  1.00  0.00     0.124 HD
ENDBRANCH   6   7
BRANCH   3  10
HETATM   10  O1  UNL     1       5.545  -4.366  -3.828  1.00  0.00    -0.361 OA
HETATM   11  H7  UNL     1       5.402  -4.398  -2.869  1.00  0.00     0.217 HD
ENDBRANCH   3  10
TORSDOF 2
ENDMDL
MODEL 5
REMARK VINA RESULT:      -4.2      3.105      3.733
REMARK  2 active torsions:
REMARK  status: ('A' for Active; 'I' for Inactive)
REMARK    1  A    between atoms: C3_3  and  O1_8 
REMARK    2  A    between atoms: C6_6  and  N1_7 
ROOT
HETATM    1  C1  UNL     1       7.780  -4.306  -5.991  1.00  0.00     0.026 A 
HETATM    2  C2  UNL     1       9.123  -3.925  -6.033  1.00  0.00     0.038 A 
HETATM    3  C3  UNL     1      10.039  -4.708  -6.721  1.00  0.00     0.065 A 
HETATM    4  C4  UNL     1       9.630  -5.860  -7.383  1.00  0.00     0.038 A 
HETATM    5  C5  UNL     1       8.284  -6.236  -7.336  1.00  0.00     0.026 A 
HETATM    6  C6  UNL     1       7.357  -5.492  -6.599  1.00  0.00     0.005 A 
ENDROOT
BRANCH   6   7
HETATM    7  N1  UNL     1       5.995  -5.809  -6.656  1.00  0.00    -0.303 NA
HETATM    8  H5  UNL     1       5.576  -5.972  -5.745  1.00  0.00     0.124 HD
HETATM    9  H6  UNL     1       5.771  -6.542  -7.320  1.00  0.00     0.124 HD
ENDBRANCH   6   7
BRANCH   3  10
HETATM   10  O1  UNL     1      11.339  -4.300  -6.741  1.00  0.00    -0.361 OA
HETATM   11  H7  UNL     1      11.419  -3.550  -7.351  1.00  0.00     0.217 HD
ENDBRANCH   3  10
TORSDOF 2
ENDMDL
MODEL 6
REMARK VINA RESULT:      -4.1      2.383      2.769
REMARK  2 active torsions:
REMARK  status: ('A' for Active; 'I' for Inactive)
REMARK    1  A    between atoms: C3_3  and  O1_8 
REMARK    2  A    between atoms: C6_6  and  N1_7 
ROOT
HETATM    1  C1  UNL     1       9.558  -5.131  -3.858  1.00  0.00     0.026 A 
HETATM    2  C2  UNL     1       8.745  -3.997  -3.925  1.00  0.00     0.038 A 
HETATM    3  C3  UNL     1       8.680  -3.266  -5.102  1.00  0.00     0.065 A 
HETATM    4  C4  UNL     1       9.404  -3.661  -6.222  1.00  0.00     0.038 A 
HETATM    5  C5  UNL     1      10.216  -4.797  -6.147  1.00  0.00     0.026 A 
HETATM    6  C6  UNL     1      10.340  -5.513  -4.952  1.00  0.00     0.005 A 
ENDROOT
BRANCH   6   7
HETATM    7  N1  UNL     1      11.059  -6.713  -4.921  1.00  0.00    -0.303 NA
HETATM    8  H5  UNL     1      11.287  -7.028  -3.983  1.00  0.00     0.124 HD
HETATM    9  H6  UNL     1      11.864  -6.725  -5.539  1.00  0.00     0.124 HD
ENDBRANCH   6   7
BRANCH   3  10
HETATM   10  O1  UNL     1       7.874  -2.168  -5.128  1.00  0.00    -0.361 OA
HETATM   11  H7  UNL     1       8.130  -1.613  -5.883  1.00  0.00     0.217 HD
ENDBRANCH   3  10
TORSDOF 2
ENDMDL
MODEL 7
REMARK VINA RESULT:      -4.1      3.003      3.535
REMARK  2 active torsions:
REMARK  status: ('A' for Active; 'I' for Inactive)
REMARK    1  A    between atoms: C3_3  and  O1_8 
REMARK    2  A    between atoms: C6_6  and  N1_7 
ROOT
HETATM    1  C1  UNL     1       8.748  -4.272  -3.950  1.00  0.00     0.026 A 
HETATM    2  C2  UNL     1       9.583  -5.391  -3.921  1.00  0.00     0.038 A 
HETATM    3  C3  UNL     1      10.375  -5.687  -5.022  1.00  0.00     0.065 A 
HETATM    4  C4  UNL     1      10.356  -4.870  -6.147  1.00  0.00     0.038 A 
HETATM    5  C5  UNL     1       9.516  -3.752  -6.169  1.00  0.00     0.026 A 
HETATM    6  C6  UNL     1       8.668  -3.471  -5.093  1.00  0.00     0.005 A 
ENDROOT
BRANCH   6   7
HETATM    7  N1  UNL     1       7.921  -2.288  -5.075  1.00  0.00    -0.303 NA
HETATM    8  H5  UNL     1       7.137  -2.291  -5.720  1.00  0.00     0.124 HD
HETATM    9  H6  UNL     1       8.483  -1.447  -5.154  1.00  0.00     0.124 HD
ENDBRANCH   6   7
BRANCH   3  10
HETATM   10  O1  UNL     1      11.178  -6.785  -4.954  1.00  0.00    -0.361 OA
HETATM   11  H7  UNL     1      11.238  -7.180  -5.838  1.00  0.00     0.217 HD
ENDBRANCH   3  10
TORSDOF 2
ENDMDL
MODEL 8
REMARK VINA RESULT:      -4.1      2.456      3.060
REMARK  2 active torsions:
REMARK  status: ('A' for Active; 'I' for Inactive)
REMARK    1  A    between atoms: C3_3  and  O1_8 
REMARK    2  A    between atoms: C6_6  and  N1_7 
ROOT
HETATM    1  C1  UNL     1       7.138  -5.335  -5.864  1.00  0.00     0.026 A 
HETATM    2  C2  UNL     1       7.666  -4.183  -5.278  1.00  0.00     0.038 A 
HETATM    3  C3  UNL     1       8.793  -3.587  -5.826  1.00  0.00     0.065 A 
HETATM    4  C4  UNL     1       9.391  -4.118  -6.964  1.00  0.00     0.038 A 
HETATM    5  C5  UNL     1       8.857  -5.272  -7.544  1.00  0.00     0.026 A 
HETATM    6  C6  UNL     1       7.758  -5.920  -6.972  1.00  0.00     0.005 A 
ENDROOT
BRANCH   6   7
HETATM    7  N1  UNL     1       7.160  -7.003  -7.626  1.00  0.00    -0.303 NA
HETATM    8  H5  UNL     1       7.709  -7.857  -7.587  1.00  0.00     0.124 HD
HETATM    9  H6  UNL     1       6.841  -6.791  -8.565  1.00  0.00     0.124 HD
ENDBRANCH   6   7
BRANCH   3  10
HETATM   10  O1  UNL     1       9.276  -2.463  -5.227  1.00  0.00    -0.361 OA
HETATM   11  H7  UNL     1       9.972  -2.720  -4.601  1.00  0.00     0.217 HD
ENDBRANCH   3  10
TORSDOF 2
ENDMDL
MODEL 9
REMARK VINA RESULT:      -4.1      1.735      2.206
REMARK  2 active torsions:
REMARK  status: ('A' for Active; 'I' for Inactive)
REMARK    1  A    between atoms: C3_3  and  O1_8 
REMARK    2  A    between atoms: C6_6  and  N1_7 
ROOT
HETATM    1  C1  UNL     1       8.939  -3.986  -6.221  1.00  0.00     0.026 A 
HETATM    2  C2  UNL     1       7.604  -4.397  -6.203  1.00  0.00     0.038 A 
HETATM    3  C3  UNL     1       7.256  -5.628  -6.741  1.00  0.00     0.065 A 
HETATM    4  C4  UNL     1       8.227  -6.463  -7.283  1.00  0.00     0.038 A 
HETATM    5  C5  UNL     1       9.561  -6.044  -7.299  1.00  0.00     0.026 A 
HETATM    6  C6  UNL     1       9.922  -4.783  -6.815  1.00  0.00     0.005 A 
ENDROOT
BRANCH   6   7
HETATM    7  N1  UNL     1      11.271  -4.422  -6.726  1.00  0.00    -0.303 NA
HETATM    8  H5  UNL     1      11.872  -5.170  -6.394  1.00  0.00     0.124 HD
HETATM    9  H6  UNL     1      11.431  -3.550  -6.233  1.00  0.00     0.124 HD
ENDBRANCH   6   7
BRANCH   3  10
HETATM   10  O1  UNL     1       5.945  -5.995  -6.702  1.00  0.00    -0.361 OA
HETATM   11  H7  UNL     1       5.462  -5.492  -7.378  1.00  0.00     0.217 HD
ENDBRANCH   3  10
TORSDOF 2
ENDMDL
MODEL 10
REMARK VINA RESULT:      -4.1      2.442      3.171
REMARK  2 active torsions:
REMARK  status: ('A' for Active; 'I' for Inactive)
REMARK    1  A    between atoms: C3_3  and  O1_8 
REMARK    2  A    between atoms: C6_6  and  N1_7 
ROOT
HETATM    1  C1  UNL     1       7.445  -4.525  -6.368  1.00  0.00     0.026 A 
HETATM    2  C2  UNL     1       8.450  -3.962  -5.578  1.00  0.00     0.038 A 
HETATM    3  C3  UNL     1       8.140  -3.474  -4.316  1.00  0.00     0.065 A 
HETATM    4  C4  UNL     1       6.841  -3.555  -3.825  1.00  0.00     0.038 A 
HETATM    5  C5  UNL     1       5.841  -4.119  -4.622  1.00  0.00     0.026 A 
HETATM    6  C6  UNL     1       6.122  -4.563  -5.918  1.00  0.00     0.005 A 
ENDROOT
BRANCH   6   7
HETATM    7  N1  UNL     1       5.143  -5.232  -6.662  1.00  0.00    -0.303 NA
HETATM    8  H5  UNL     1       4.327  -4.664  -6.867  1.00  0.00     0.124 HD
HETATM    9  H6  UNL     1       4.896  -6.143  -6.288  1.00  0.00     0.124 HD
ENDBRANCH   6   7
BRANCH   3  10
HETATM   10  O1  UNL     1       9.148  -2.934  -3.575  1.00  0.00    -0.361 OA
HETATM   11  H7  UNL     1       9.990  -3.313  -3.875  1.00  0.00     0.217 HD
ENDBRANCH   3  10
TORSDOF 2
ENDMDL
MODEL 11
REMARK VINA RESULT:      -4.0      2.450      2.974
REMARK  2 active torsions:
REMARK  status: ('A' for Active; 'I' for Inactive)
REMARK    1  A    between atoms: C3_3  and  O1_8 
REMARK    2  A    between atoms: C6_6  and  N1_7 
ROOT
HETATM    1  C1  UNL     1       5.856  -4.082  -4.596  1.00  0.00     0.026 A 
HETATM    2  C2  UNL     1       6.891  -3.536  -3.834  1.00  0.00     0.038 A 
HETATM    3  C3  UNL     1       8.179  -3.498  -4.351  1.00  0.00     0.065 A 
HETATM    4  C4  UNL     1       8.444  -3.984  -5.626  1.00  0.00     0.038 A 
HETATM    5  C5  UNL     1       7.403  -4.531  -6.382  1.00  0.00     0.026 A 
HETATM    6  C6  UNL     1       6.111  -4.631  -5.856  1.00  0.00     0.005 A 
ENDROOT
BRANCH   6   7
HETATM    7  N1  UNL     1       5.054  -5.069  -6.662  1.00  0.00    -0.303 NA
HETATM    8  H5  UNL     1       4.900  -6.072  -6.623  1.00  0.00     0.124 HD
HETATM    9  H6  UNL     1       5.093  -4.721  -7.614  1.00  0.00     0.124 HD
ENDBRANCH   6   7
BRANCH   3  10
HETATM   10  O1  UNL     1       9.161  -2.955  -3.578  1.00  0.00    -0.361 OA
HETATM   11  H7  UNL     1       9.649  -2.305  -4.109  1.00  0.00     0.217 HD
ENDBRANCH   3  10
TORSDOF 2
ENDMDL
MODEL 12
REMARK VINA RESULT:      -4.0      2.441      3.164
REMARK  2 active torsions:
REMARK  status: ('A' for Active; 'I' for Inactive)
REMARK    1  A    between atoms: C3_3  and  O1_8 
REMARK    2  A    between atoms: C6_6  and  N1_7 
ROOT
HETATM    1  C1  UNL     1       8.971  -5.288  -7.507  1.00  0.00     0.026 A 
HETATM    2  C2  UNL     1       9.462  -4.142  -6.878  1.00  0.00     0.038 A 
HETATM    3  C3  UNL     1       8.768  -3.594  -5.809  1.00  0.00     0.065 A 
HETATM    4  C4  UNL     1       7.596  -4.184  -5.348  1.00  0.00     0.038 A 
HETATM    5  C5  UNL     1       7.110  -5.330  -5.984  1.00  0.00     0.026 A 
HETATM    6  C6  UNL     1       7.764  -5.863  -7.100  1.00  0.00     0.005 A 
ENDROOT
BRANCH   6   7
HETATM    7  N1  UNL     1       7.337  -7.075  -7.654  1.00  0.00    -0.303 NA
HETATM    8  H5  UNL     1       8.069  -7.579  -8.146  1.00  0.00     0.124 HD
HETATM    9  H6  UNL     1       6.486  -6.999  -8.201  1.00  0.00     0.124 HD
ENDBRANCH   6   7
BRANCH   3  10
HETATM   10  O1  UNL     1       9.281  -2.477  -5.219  1.00  0.00    -0.361 OA
HETATM   11  H7  UNL     1       9.120  -1.718  -5.802  1.00  0.00     0.217 HD
ENDBRANCH   3  10
TORSDOF 2
ENDMDL
MODEL 13
REMARK VINA RESULT:      -4.0      2.095      2.684
REMARK  2 active torsions:
REMARK  status: ('A' for Active; 'I' for Inactive)
REMARK    1  A    between atoms: C3_3  and  O1_8 
REMARK    2  A    between atoms: C6_6  and  N1_7 
ROOT
HETATM    1  C1  UNL     1       7.445  -4.247  -5.444  1.00  0.00     0.026 A 
HETATM    2  C2  UNL     1       6.963  -5.422  -6.026  1.00  0.00     0.038 A 
HETATM    3  C3  UNL     1       7.630  -5.976  -7.109  1.00  0.00     0.065 A 
HETATM    4  C4  UNL     1       8.783  -5.382  -7.610  1.00  0.00     0.038 A 
HETATM    5  C5  UNL     1       9.258  -4.205  -7.023  1.00  0.00     0.026 A 
HETATM    6  C6  UNL     1       8.567  -3.599  -5.969  1.00  0.00     0.005 A 
ENDROOT
BRANCH   6   7
HETATM    7  N1  UNL     1       9.114  -2.491  -5.313  1.00  0.00    -0.303 NA
HETATM    8  H5  UNL     1       9.851  -2.029  -5.837  1.00  0.00     0.124 HD
HETATM    9  H6  UNL     1       9.380  -2.674  -4.351  1.00  0.00     0.124 HD
ENDBRANCH   6   7
BRANCH   3  10
HETATM   10  O1  UNL     1       7.131  -7.124  -7.647  1.00  0.00    -0.361 OA
HETATM   11  H7  UNL     1       6.512  -6.890  -8.357  1.00  0.00     0.217 HD
ENDBRANCH   3  10
TORSDOF 2
ENDMDL
MODEL 14
REMARK VINA RESULT:      -3.9      2.217      2.985
REMARK  2 active torsions:
REMARK  status: ('A' for Active; 'I' for Inactive)
REMARK    1  A    between atoms: C3_3  and  O1_8 
REMARK    2  A    between atoms: C6_6  and  N1_7 
ROOT
HETATM    1  C1  UNL     1       9.399  -4.827  -7.157  1.00  0.00     0.026 A 
HETATM    2  C2  UNL     1       8.816  -5.982  -7.682  1.00  0.00     0.038 A 
HETATM    3  C3  UNL     1       7.544  -6.358  -7.273  1.00  0.00     0.065 A 
HETATM    4  C4  UNL     1       6.839  -5.586  -6.357  1.00  0.00     0.038 A 
HETATM    5  C5  UNL     1       7.429  -4.431  -5.835  1.00  0.00     0.026 A 
HETATM    6  C6  UNL     1       8.733  -4.069  -6.190  1.00  0.00     0.005 A 
ENDROOT
BRANCH   6   7
HETATM    7  N1  UNL     1       9.269  -2.852  -5.755  1.00  0.00    -0.303 NA
HETATM    8  H5  UNL     1       8.647  -2.060  -5.891  1.00  0.00     0.124 HD
HETATM    9  H6  UNL     1      10.206  -2.670  -6.098  1.00  0.00     0.124 HD
ENDBRANCH   6   7
BRANCH   3  10
HETATM   10  O1  UNL     1       7.009  -7.490  -7.811  1.00  0.00    -0.361 OA
HETATM   11  H7  UNL     1       7.147  -7.471  -8.772  1.00  0.00     0.217 HD
ENDBRANCH   3  10
TORSDOF 2
ENDMDL
MODEL 15
REMARK VINA RESULT:      -3.8      3.227      3.990
REMARK  2 active torsions:
REMARK  status: ('A' for Active; 'I' for Inactive)
REMARK    1  A    between atoms: C3_3  and  O1_8 
REMARK    2  A    between atoms: C6_6  and  N1_7 
ROOT
HETATM    1  C1  UNL     1       8.016  -6.390  -7.061  1.00  0.00     0.026 A 
HETATM    2  C2  UNL     1       9.336  -6.554  -6.636  1.00  0.00     0.038 A 
HETATM    3  C3  UNL     1       9.728  -6.061  -5.400  1.00  0.00     0.065 A 
HETATM    4  C4  UNL     1       8.813  -5.419  -4.572  1.00  0.00     0.038 A 
HETATM    5  C5  UNL     1       7.494  -5.257  -5.004  1.00  0.00     0.026 A 
HETATM    6  C6  UNL     1       7.095  -5.695  -6.271  1.00  0.00     0.005 A 
ENDROOT
BRANCH   6   7
HETATM    7  N1  UNL     1       5.748  -5.636  -6.645  1.00  0.00    -0.303 NA
HETATM    8  H5  UNL     1       5.516  -4.824  -7.209  1.00  0.00     0.124 HD
HETATM    9  H6  UNL     1       5.101  -5.768  -5.875  1.00  0.00     0.124 HD
ENDBRANCH   6   7
BRANCH   3  10
HETATM   10  O1  UNL     1      11.024  -6.243  -5.021  1.00  0.00    -0.361 OA
HETATM   11  H7  UNL     1      11.118  -5.968  -4.095  1.00  0.00     0.217 HD
ENDBRANCH   3  10
TORSDOF 2
ENDMDL
MODEL 16
REMARK VINA RESULT:      -3.6      3.402      4.114
REMARK  2 active torsions:
REMARK  status: ('A' for Active; 'I' for Inactive)
REMARK    1  A    between atoms: C3_3  and  O1_8 
REMARK    2  A    between atoms: C6_6  and  N1_7 
ROOT
HETATM    1  C1  UNL     1       9.945  -5.336  -7.630  1.00  0.00     0.026 A 
HETATM    2  C2  UNL     1       8.611  -5.678  -7.397  1.00  0.00     0.038 A 
HETATM    3  C3  UNL     1       8.128  -6.902  -7.836  1.00  0.00     0.065 A 
HETATM    4  C4  UNL     1       8.964  -7.799  -8.491  1.00  0.00     0.038 A 
HETATM    5  C5  UNL     1      10.298  -7.450  -8.721  1.00  0.00     0.026 A 
HETATM    6  C6  UNL     1      10.788  -6.198  -8.339  1.00  0.00     0.005 A 
ENDROOT
BRANCH   6   7
HETATM    7  N1  UNL     1      12.150  -5.905  -8.466  1.00  0.00    -0.303 NA
HETATM    8  H5  UNL     1      12.373  -4.925  -8.318  1.00  0.00     0.124 HD
HETATM    9  H6  UNL     1      12.572  -6.273  -9.312  1.00  0.00     0.124 HD
ENDBRANCH   6   7
BRANCH   3  10
HETATM   10  O1  UNL     1       6.821  -7.199  -7.588  1.00  0.00    -0.361 OA
HETATM   11  H7  UNL     1       6.528  -7.866  -8.230  1.00  0.00     0.217 HD
ENDBRANCH   3  10
TORSDOF 2
ENDMDL
MODEL 17
REMARK VINA RESULT:      -3.6      2.331      2.761
REMARK  2 active torsions:
REMARK  status: ('A' for Active; 'I' for Inactive)
REMARK    1  A    between atoms: C3_3  and  O1_8 
REMARK    2  A    between atoms: C6_6  and  N1_7 
ROOT
HETATM    1  C1  UNL     1       9.325  -4.953  -5.107  1.00  0.00     0.026 A 
HETATM    2  C2  UNL     1       8.604  -4.570  -6.241  1.00  0.00     0.038 A 
HETATM    3  C3  UNL     1       7.222  -4.471  -6.175  1.00  0.00     0.065 A 
HETATM    4  C4  UNL     1       6.548  -4.734  -4.987  1.00  0.00     0.038 A 
HETATM    5  C5  UNL     1       7.277  -5.118  -3.857  1.00  0.00     0.026 A 
HETATM    6  C6  UNL     1       8.664  -5.280  -3.919  1.00  0.00     0.005 A 
ENDROOT
BRANCH   6   7
HETATM    7  N1  UNL     1       9.395  -5.548  -2.756  1.00  0.00    -0.303 NA
HETATM    8  H5  UNL     1       9.875  -4.736  -2.380  1.00  0.00     0.124 HD
HETATM    9  H6  UNL     1      10.003  -6.356  -2.831  1.00  0.00     0.124 HD
ENDBRANCH   6   7
BRANCH   3  10
HETATM   10  O1  UNL     1       6.555  -4.092  -7.302  1.00  0.00    -0.361 OA
HETATM   11  H7  UNL     1       6.258  -4.889  -7.769  1.00  0.00     0.217 HD
ENDBRANCH   3  10
TORSDOF 2
ENDMDL
MODEL 18
REMARK VINA RESULT:      -3.6      2.073      2.397
REMARK  2 active torsions:
REMARK  status: ('A' for Active; 'I' for Inactive)
REMARK    1  A    between atoms: C3_3  and  O1_8 
REMARK    2  A    between atoms: C6_6  and  N1_7 
ROOT
HETATM    1  C1  UNL     1       9.598  -4.498  -6.257  1.00  0.00     0.026 A 
HETATM    2  C2  UNL     1       9.747  -4.863  -4.917  1.00  0.00     0.038 A 
HETATM    3  C3  UNL     1       8.633  -5.228  -4.176  1.00  0.00     0.065 A 
HETATM    4  C4  UNL     1       7.370  -5.249  -4.758  1.00  0.00     0.038 A 
HETATM    5  C5  UNL     1       7.228  -4.880  -6.100  1.00  0.00     0.026 A 
HETATM    6  C6  UNL     1       8.331  -4.454  -6.847  1.00  0.00     0.005 A 
ENDROOT
BRANCH   6   7
HETATM    7  N1  UNL     1       8.199  -4.202  -8.217  1.00  0.00    -0.303 NA
HETATM    8  H5  UNL     1       8.744  -3.410  -8.541  1.00  0.00     0.124 HD
HETATM    9  H6  UNL     1       7.237  -4.165  -8.537  1.00  0.00     0.124 HD
ENDBRANCH   6   7
BRANCH   3  10
HETATM   10  O1  UNL     1       8.820  -5.580  -2.873  1.00  0.00    -0.361 OA
HETATM   11  H7  UNL     1       8.037  -5.315  -2.364  1.00  0.00     0.217 HD
ENDBRANCH   3  10
TORSDOF 2
ENDMDL
MODEL 19
REMARK VINA RESULT:      -3.3      2.960      3.383
REMARK  2 active torsions:
REMARK  status: ('A' for Active; 'I' for Inactive)
REMARK    1  A    between atoms: C3_3  and  O1_8 
REMARK    2  A    between atoms: C6_6  and  N1_7 
ROOT
HETATM    1  C1  UNL     1       7.945  -4.024  -4.061  1.00  0.00     0.026 A 
HETATM    2  C2  UNL     1       8.232  -3.389  -5.271  1.00  0.00     0.038 A 
HETATM    3  C3  UNL     1       9.121  -3.975  -6.161  1.00  0.00     0.065 A 
HETATM    4  C4  UNL     1       9.717  -5.196  -5.866  1.00  0.00     0.038 A 
HETATM    5  C5  UNL     1       9.426  -5.825  -4.652  1.00  0.00     0.026 A 
HETATM    6  C6  UNL     1       8.578  -5.223  -3.717  1.00  0.00     0.005 A 
ENDROOT
BRANCH   6   7
HETATM    7  N1  UNL     1       8.200  -5.914  -2.560  1.00  0.00    -0.303 NA
HETATM    8  H5  UNL     1       7.865  -5.310  -1.816  1.00  0.00     0.124 HD
HETATM    9  H6  UNL     1       8.893  -6.580  -2.235  1.00  0.00     0.124 HD
ENDBRANCH   6   7
BRANCH   3  10
HETATM   10  O1  UNL     1       9.373  -3.325  -7.332  1.00  0.00    -0.361 OA
HETATM   11  H7  UNL     1       9.406  -3.980  -8.048  1.00  0.00     0.217 HD
ENDBRANCH   3  10
TORSDOF 2
ENDMDL
MODEL 20
REMARK VINA RESULT:      -3.3      3.248      4.084
REMARK  2 active torsions:
REMARK  status: ('A' for Active; 'I' for Inactive)
REMARK    1  A    between atoms: C3_3  and  O1_8 
REMARK    2  A    between atoms: C6_6  and  N1_7 
ROOT
HETATM    1  C1  UNL     1       7.921  -6.639  -7.181  1.00  0.00     0.026 A 
HETATM    2  C2  UNL     1       7.999  -5.247  -7.092  1.00  0.00     0.038 A 
HETATM    3  C3  UNL     1       9.237  -4.633  -6.971  1.00  0.00     0.065 A 
HETATM    4  C4  UNL     1      10.403  -5.391  -6.953  1.00  0.00     0.038 A 
HETATM    5  C5  UNL     1      10.318  -6.783  -7.041  1.00  0.00     0.026 A 
HETATM    6  C6  UNL     1       9.076  -7.423  -7.105  1.00  0.00     0.005 A 
ENDROOT
BRANCH   6   7
HETATM    7  N1  UNL     1       9.005  -8.805  -7.312  1.00  0.00    -0.303 NA
HETATM    8  H5  UNL     1       9.879  -9.216  -7.623  1.00  0.00     0.124 HD
HETATM    9  H6  UNL     1       8.217  -9.095  -7.882  1.00  0.00     0.124 HD
ENDBRANCH   6   7
BRANCH   3  10
HETATM   10  O1  UNL     1       9.271  -3.274  -6.890  1.00  0.00    -0.361 OA
HETATM   11  H7  UNL     1       9.529  -3.023  -5.988  1.00  0.00     0.217 HD
ENDBRANCH   3  10
TORSDOF 2
ENDMDL
