MODEL 1
REMARK VINA RESULT:      -4.4      0.000      0.000
REMARK  2 active torsions:
REMARK  status: ('A' for Active; 'I' for Inactive)
REMARK    1  A    between atoms: C3_3  and  O1_8 
REMARK    2  A    between atoms: C6_6  and  N1_7 
ROOT
HETATM    1  C1  UNL     1       3.344  11.592  -5.379  1.00  0.00     0.026 A 
HETATM    2  C2  UNL     1       4.572  11.635  -6.043  1.00  0.00     0.038 A 
HETATM    3  C3  UNL     1       5.064  10.490  -6.654  1.00  0.00     0.065 A 
HETATM    4  C4  UNL     1       4.338   9.304  -6.625  1.00  0.00     0.038 A 
HETATM    5  C5  UNL     1       3.110   9.269  -5.957  1.00  0.00     0.026 A 
HETATM    6  C6  UNL     1       2.626  10.396  -5.286  1.00  0.00     0.005 A 
ENDROOT
BRANCH   6   7
HETATM    7  N1  UNL     1       1.344  10.385  -4.723  1.00  0.00    -0.303 NA
HETATM    8  H5  UNL     1       1.171   9.588  -4.118  1.00  0.00     0.124 HD
HETATM    9  H6  UNL     1       0.599  10.528  -5.397  1.00  0.00     0.124 HD
ENDBRANCH   6   7
BRANCH   3  10
HETATM   10  O1  UNL     1       6.264  10.573  -7.294  1.00  0.00    -0.361 OA
HETATM   11  H7  UNL     1       6.115  10.462  -8.247  1.00  0.00     0.217 HD
ENDBRANCH   3  10
TORSDOF 2
ENDMDL
MODEL 2
REMARK VINA RESULT:      -4.4      2.781      3.266
REMARK  2 active torsions:
REMARK  status: ('A' for Active; 'I' for Inactive)
REMARK    1  A    between atoms: C3_3  and  O1_8 
REMARK    2  A    between atoms: C6_6  and  N1_7 
ROOT
HETATM    1  C1  UNL     1       4.436  11.602  -5.952  1.00  0.00     0.026 A 
HETATM    2  C2  UNL     1       3.192  11.574  -5.317  1.00  0.00     0.038 A 
HETATM    3  C3  UNL     1       2.459  10.396  -5.292  1.00  0.00     0.065 A 
HETATM    4  C4  UNL     1       2.958   9.239  -5.878  1.00  0.00     0.038 A 
HETATM    5  C5  UNL     1       4.204   9.274  -6.513  1.00  0.00     0.026 A 
HETATM    6  C6  UNL     1       4.930  10.466  -6.600  1.00  0.00     0.005 A 
ENDROOT
BRANCH   6   7
HETATM    7  N1  UNL     1       6.226  10.464  -7.130  1.00  0.00    -0.303 NA
HETATM    8  H5  UNL     1       6.882   9.899  -6.601  1.00  0.00     0.124 HD
HETATM    9  H6  UNL     1       6.588  11.390  -7.332  1.00  0.00     0.124 HD
ENDBRANCH   6   7
BRANCH   3  10
HETATM   10  O1  UNL     1       1.251  10.410  -4.661  1.00  0.00    -0.361 OA
HETATM   11  H7  UNL     1       1.149  11.260  -4.204  1.00  0.00     0.217 HD
ENDBRANCH   3  10
TORSDOF 2
ENDMDL
MODEL 3
REMARK VINA RESULT:      -3.9      3.836      4.726
REMARK  2 active torsions:
REMARK  status: ('A' for Active; 'I' for Inactive)
REMARK    1  A    between atoms: C3_3  and  O1_8 
REMARK    2  A    between atoms: C6_6  and  N1_7 
ROOT
HETATM    1  C1  UNL     1       4.754  11.602  -9.499  1.00  0.00     0.026 A 
HETATM    2  C2  UNL     1       3.816  11.445  -8.476  1.00  0.00     0.038 A 
HETATM    3  C3  UNL     1       4.042  12.033  -7.240  1.00  0.00     0.065 A 
HETATM    4  C4  UNL     1       5.185  12.793  -7.015  1.00  0.00     0.038 A 
HETATM    5  C5  UNL     1       6.120  12.945  -8.044  1.00  0.00     0.026 A 
HETATM    6  C6  UNL     1       5.938  12.311  -9.278  1.00  0.00     0.005 A 
ENDROOT
BRANCH   6   7
HETATM    7  N1  UNL     1       6.817  12.566 -10.337  1.00  0.00    -0.303 NA
HETATM    8  H5  UNL     1       7.525  11.849 -10.461  1.00  0.00     0.124 HD
HETATM    9  H6  UNL     1       7.211  13.500 -10.327  1.00  0.00     0.124 HD
ENDBRANCH   6   7
BRANCH   3  10
HETATM   10  O1  UNL     1       3.103  11.859  -6.268  1.00  0.00    -0.361 OA
HETATM   11  H7  UNL     1       2.842  12.730  -5.929  1.00  0.00     0.217 HD
ENDBRANCH   3  10
TORSDOF 2
ENDMDL
MODEL 4
REMARK VINA RESULT:      -3.9      3.792      4.439
REMARK  2 active torsions:
REMARK  status: ('A' for Active; 'I' for Inactive)
REMARK    1  A    between atoms: C3_3  and  O1_8 
REMARK    2  A    between atoms: C6_6  and  N1_7 
ROOT
HETATM    1  C1  UNL     1       6.083  12.945  -8.009  1.00  0.00     0.026 A 
HETATM    2  C2  UNL     1       5.194  12.691  -6.962  1.00  0.00     0.038 A 
HETATM    3  C3  UNL     1       4.083  11.889  -7.181  1.00  0.00     0.065 A 
HETATM    4  C4  UNL     1       3.855  11.322  -8.430  1.00  0.00     0.038 A 
HETATM    5  C5  UNL     1       4.748  11.582  -9.474  1.00  0.00     0.026 A 
HETATM    6  C6  UNL     1       5.841  12.434  -9.288  1.00  0.00     0.005 A 
ENDROOT
BRANCH   6   7
HETATM    7  N1  UNL     1       6.793  12.592 -10.302  1.00  0.00    -0.303 NA
HETATM    8  H5  UNL     1       6.391  12.813 -11.208  1.00  0.00     0.124 HD
HETATM    9  H6  UNL     1       7.467  11.836 -10.353  1.00  0.00     0.124 HD
ENDBRANCH   6   7
BRANCH   3  10
HETATM   10  O1  UNL     1       3.242  11.664  -6.134  1.00  0.00    -0.361 OA
HETATM   11  H7  UNL     1       2.332  11.837  -6.424  1.00  0.00     0.217 HD
ENDBRANCH   3  10
TORSDOF 2
ENDMDL
MODEL 5
REMARK VINA RESULT:      -3.9      2.965      3.408
REMARK  2 active torsions:
REMARK  status: ('A' for Active; 'I' for Inactive)
REMARK    1  A    between atoms: C3_3  and  O1_8 
REMARK    2  A    between atoms: C6_6  and  N1_7 
ROOT
HETATM    1  C1  UNL     1       6.571  11.390  -6.286  1.00  0.00     0.026 A 
HETATM    2  C2  UNL     1       5.548  12.323  -6.467  1.00  0.00     0.038 A 
HETATM    3  C3  UNL     1       4.311  11.904  -6.937  1.00  0.00     0.065 A 
HETATM    4  C4  UNL     1       4.075  10.562  -7.213  1.00  0.00     0.038 A 
HETATM    5  C5  UNL     1       5.105   9.634  -7.030  1.00  0.00     0.026 A 
HETATM    6  C6  UNL     1       6.375  10.045  -6.614  1.00  0.00     0.005 A 
ENDROOT
BRANCH   6   7
HETATM    7  N1  UNL     1       7.362   9.096  -6.321  1.00  0.00    -0.303 NA
HETATM    8  H5  UNL     1       7.627   8.524  -7.117  1.00  0.00     0.124 HD
HETATM    9  H6  UNL     1       7.164   8.541  -5.495  1.00  0.00     0.124 HD
ENDBRANCH   6   7
BRANCH   3  10
HETATM   10  O1  UNL     1       3.337  12.845  -7.097  1.00  0.00    -0.361 OA
HETATM   11  H7  UNL     1       2.882  12.678  -7.938  1.00  0.00     0.217 HD
ENDBRANCH   3  10
TORSDOF 2
ENDMDL
MODEL 6
REMARK VINA RESULT:      -3.8      2.781      3.240
REMARK  2 active torsions:
REMARK  status: ('A' for Active; 'I' for Inactive)
REMARK    1  A    between atoms: C3_3  and  O1_8 
REMARK    2  A    between atoms: C6_6  and  N1_7 
ROOT
HETATM    1  C1  UNL     1       5.274  12.667  -7.093  1.00  0.00     0.026 A 
HETATM    2  C2  UNL     1       6.185  12.862  -8.133  1.00  0.00     0.038 A 
HETATM    3  C3  UNL     1       5.928  12.318  -9.384  1.00  0.00     0.065 A 
HETATM    4  C4  UNL     1       4.764  11.594  -9.615  1.00  0.00     0.038 A 
HETATM    5  C5  UNL     1       3.857  11.401  -8.568  1.00  0.00     0.026 A 
HETATM    6  C6  UNL     1       4.127  11.892  -7.287  1.00  0.00     0.005 A 
ENDROOT
BRANCH   6   7
HETATM    7  N1  UNL     1       3.161  11.797  -6.278  1.00  0.00    -0.303 NA
HETATM    8  H5  UNL     1       3.406  12.298  -5.430  1.00  0.00     0.124 HD
HETATM    9  H6  UNL     1       2.854  10.849  -6.092  1.00  0.00     0.124 HD
ENDBRANCH   6   7
BRANCH   3  10
HETATM   10  O1  UNL     1       6.840  12.533 -10.373  1.00  0.00    -0.361 OA
HETATM   11  H7  UNL     1       6.364  12.724 -11.197  1.00  0.00     0.217 HD
ENDBRANCH   3  10
TORSDOF 2
ENDMDL
MODEL 7
REMARK VINA RESULT:      -3.8      3.333      3.933
REMARK  2 active torsions:
REMARK  status: ('A' for Active; 'I' for Inactive)
REMARK    1  A    between atoms: C3_3  and  O1_8 
REMARK    2  A    between atoms: C6_6  and  N1_7 
ROOT
HETATM    1  C1  UNL     1       5.757  10.454  -7.098  1.00  0.00     0.026 A 
HETATM    2  C2  UNL     1       4.671  10.565  -7.968  1.00  0.00     0.038 A 
HETATM    3  C3  UNL     1       4.095  11.807  -8.194  1.00  0.00     0.065 A 
HETATM    4  C4  UNL     1       4.600  12.945  -7.575  1.00  0.00     0.038 A 
HETATM    5  C5  UNL     1       5.686  12.826  -6.703  1.00  0.00     0.026 A 
HETATM    6  C6  UNL     1       6.243  11.575  -6.417  1.00  0.00     0.005 A 
ENDROOT
BRANCH   6   7
HETATM    7  N1  UNL     1       7.403  11.481  -5.640  1.00  0.00    -0.303 NA
HETATM    8  H5  UNL     1       7.547  12.276  -5.025  1.00  0.00     0.124 HD
HETATM    9  H6  UNL     1       8.235  11.246  -6.170  1.00  0.00     0.124 HD
ENDBRANCH   6   7
BRANCH   3  10
HETATM   10  O1  UNL     1       3.039  11.874  -9.053  1.00  0.00    -0.361 OA
HETATM   11  H7  UNL     1       2.225  11.689  -8.557  1.00  0.00     0.217 HD
ENDBRANCH   3  10
TORSDOF 2
ENDMDL
MODEL 8
REMARK VINA RESULT:      -3.7      2.838      2.940
REMARK  2 active torsions:
REMARK  status: ('A' for Active; 'I' for Inactive)
REMARK    1  A    between atoms: C3_3  and  O1_8 
REMARK    2  A    between atoms: C6_6  and  N1_7 
ROOT
HETATM    1  C1  UNL     1       4.661  12.933  -7.744  1.00  0.00     0.026 A 
HETATM    2  C2  UNL     1       5.749  12.849  -6.872  1.00  0.00     0.038 A 
HETATM    3  C3  UNL     1       6.262  11.606  -6.531  1.00  0.00     0.065 A 
HETATM    4  C4  UNL     1       5.713  10.443  -7.061  1.00  0.00     0.038 A 
HETATM    5  C5  UNL     1       4.624  10.535  -7.932  1.00  0.00     0.026 A 
HETATM    6  C6  UNL     1       4.056  11.775  -8.242  1.00  0.00     0.005 A 
ENDROOT
BRANCH   6   7
HETATM    7  N1  UNL     1       3.045  11.866  -9.206  1.00  0.00    -0.303 NA
HETATM    8  H5  UNL     1       3.391  11.892 -10.160  1.00  0.00     0.124 HD
HETATM    9  H6  UNL     1       2.367  12.597  -9.021  1.00  0.00     0.124 HD
ENDBRANCH   6   7
BRANCH   3  10
HETATM   10  O1  UNL     1       7.325  11.566  -5.679  1.00  0.00    -0.361 OA
HETATM   11  H7  UNL     1       8.078  11.166  -6.143  1.00  0.00     0.217 HD
ENDBRANCH   3  10
TORSDOF 2
ENDMDL
MODEL 9
REMARK VINA RESULT:      -3.7      2.263      2.960
REMARK  2 active torsions:
REMARK  status: ('A' for Active; 'I' for Inactive)
REMARK    1  A    between atoms: C3_3  and  O1_8 
REMARK    2  A    between atoms: C6_6  and  N1_7 
ROOT
HETATM    1  C1  UNL     1       4.092  10.595  -7.253  1.00  0.00     0.026 A 
HETATM    2  C2  UNL     1       5.012   9.589  -6.947  1.00  0.00     0.038 A 
HETATM    3  C3  UNL     1       6.290   9.931  -6.529  1.00  0.00     0.065 A 
HETATM    4  C4  UNL     1       6.659  11.265  -6.398  1.00  0.00     0.038 A 
HETATM    5  C5  UNL     1       5.733  12.266  -6.708  1.00  0.00     0.026 A 
HETATM    6  C6  UNL     1       4.460  11.942  -7.186  1.00  0.00     0.005 A 
ENDROOT
BRANCH   6   7
HETATM    7  N1  UNL     1       3.503  12.945  -7.380  1.00  0.00    -0.303 NA
HETATM    8  H5  UNL     1       3.010  12.873  -8.264  1.00  0.00     0.124 HD
HETATM    9  H6  UNL     1       3.850  13.882  -7.206  1.00  0.00     0.124 HD
ENDBRANCH   6   7
BRANCH   3  10
HETATM   10  O1  UNL     1       7.158   8.922  -6.237  1.00  0.00    -0.361 OA
HETATM   11  H7  UNL     1       7.071   8.233  -6.915  1.00  0.00     0.217 HD
ENDBRANCH   3  10
TORSDOF 2
ENDMDL
MODEL 10
REMARK VINA RESULT:      -3.5      2.376      2.753
REMARK  2 active torsions:
REMARK  status: ('A' for Active; 'I' for Inactive)
REMARK    1  A    between atoms: C3_3  and  O1_8 
REMARK    2  A    between atoms: C6_6  and  N1_7 
ROOT
HETATM    1  C1  UNL     1       5.696  12.543  -5.872  1.00  0.00     0.026 A 
HETATM    2  C2  UNL     1       6.901  11.957  -5.477  1.00  0.00     0.038 A 
HETATM    3  C3  UNL     1       7.200  10.663  -5.879  1.00  0.00     0.065 A 
HETATM    4  C4  UNL     1       6.319   9.950  -6.685  1.00  0.00     0.038 A 
HETATM    5  C5  UNL     1       5.114  10.543  -7.075  1.00  0.00     0.026 A 
HETATM    6  C6  UNL     1       4.769  11.824  -6.632  1.00  0.00     0.005 A 
ENDROOT
BRANCH   6   7
HETATM    7  N1  UNL     1       3.620  12.454  -7.123  1.00  0.00    -0.303 NA
HETATM    8  H5  UNL     1       3.780  12.992  -7.969  1.00  0.00     0.124 HD
HETATM    9  H6  UNL     1       3.107  12.978  -6.422  1.00  0.00     0.124 HD
ENDBRANCH   6   7
BRANCH   3  10
HETATM   10  O1  UNL     1       8.386  10.127  -5.475  1.00  0.00    -0.361 OA
HETATM   11  H7  UNL     1       8.837   9.754  -6.250  1.00  0.00     0.217 HD
ENDBRANCH   3  10
TORSDOF 2
ENDMDL
MODEL 11
REMARK VINA RESULT:      -3.5      3.603      4.294
REMARK  2 active torsions:
REMARK  status: ('A' for Active; 'I' for Inactive)
REMARK    1  A    between atoms: C3_3  and  O1_8 
REMARK    2  A    between atoms: C6_6  and  N1_7 
ROOT
HETATM    1  C1  UNL     1       6.099  12.687  -8.797  1.00  0.00     0.026 A 
HETATM    2  C2  UNL     1       4.928  12.378  -9.493  1.00  0.00     0.038 A 
HETATM    3  C3  UNL     1       3.809  11.945  -8.797  1.00  0.00     0.065 A 
HETATM    4  C4  UNL     1       3.837  11.830  -7.411  1.00  0.00     0.038 A 
HETATM    5  C5  UNL     1       5.013  12.140  -6.722  1.00  0.00     0.026 A 
HETATM    6  C6  UNL     1       6.169  12.522  -7.410  1.00  0.00     0.005 A 
ENDROOT
BRANCH   6   7
HETATM    7  N1  UNL     1       7.302  12.944  -6.706  1.00  0.00    -0.303 NA
HETATM    8  H5  UNL     1       7.688  13.821  -7.041  1.00  0.00     0.124 HD
HETATM    9  H6  UNL     1       8.010  12.225  -6.599  1.00  0.00     0.124 HD
ENDBRANCH   6   7
BRANCH   3  10
HETATM   10  O1  UNL     1       2.685  11.656  -9.511  1.00  0.00    -0.361 OA
HETATM   11  H7  UNL     1       2.167  10.998  -9.021  1.00  0.00     0.217 HD
ENDBRANCH   3  10
TORSDOF 2
ENDMDL
MODEL 12
REMARK VINA RESULT:      -3.3      3.036      3.628
REMARK  2 active torsions:
REMARK  status: ('A' for Active; 'I' for Inactive)
REMARK    1  A    between atoms: C3_3  and  O1_8 
REMARK    2  A    between atoms: C6_6  and  N1_7 
ROOT
HETATM    1  C1  UNL     1       5.543  12.129  -5.607  1.00  0.00     0.026 A 
HETATM    2  C2  UNL     1       4.394  11.379  -5.348  1.00  0.00     0.038 A 
HETATM    3  C3  UNL     1       3.737  10.744  -6.392  1.00  0.00     0.065 A 
HETATM    4  C4  UNL     1       4.221  10.834  -7.692  1.00  0.00     0.038 A 
HETATM    5  C5  UNL     1       5.371  11.588  -7.945  1.00  0.00     0.026 A 
HETATM    6  C6  UNL     1       6.013  12.283  -6.915  1.00  0.00     0.005 A 
ENDROOT
BRANCH   6   7
HETATM    7  N1  UNL     1       7.227  12.936  -7.156  1.00  0.00    -0.303 NA
HETATM    8  H5  UNL     1       7.451  13.648  -6.468  1.00  0.00     0.124 HD
HETATM    9  H6  UNL     1       7.331  13.272  -8.107  1.00  0.00     0.124 HD
ENDBRANCH   6   7
BRANCH   3  10
HETATM   10  O1  UNL     1       2.621  10.019  -6.097  1.00  0.00    -0.361 OA
HETATM   11  H7  UNL     1       2.809   9.461  -5.325  1.00  0.00     0.217 HD
ENDBRANCH   3  10
TORSDOF 2
ENDMDL
MODEL 13
REMARK VINA RESULT:      -3.3      3.224      3.663
REMARK  2 active torsions:
REMARK  status: ('A' for Active; 'I' for Inactive)
REMARK    1  A    between atoms: C3_3  and  O1_8 
REMARK    2  A    between atoms: C6_6  and  N1_7 
ROOT
HETATM    1  C1  UNL     1       6.392  12.667  -5.895  1.00  0.00     0.026 A 
HETATM    2  C2  UNL     1       5.185  12.925  -6.549  1.00  0.00     0.038 A 
HETATM    3  C3  UNL     1       4.519  11.893  -7.195  1.00  0.00     0.065 A 
HETATM    4  C4  UNL     1       5.033  10.601  -7.183  1.00  0.00     0.038 A 
HETATM    5  C5  UNL     1       6.243  10.351  -6.528  1.00  0.00     0.026 A 
HETATM    6  C6  UNL     1       6.958  11.388  -5.922  1.00  0.00     0.005 A 
ENDROOT
BRANCH   6   7
HETATM    7  N1  UNL     1       8.104  11.108  -5.168  1.00  0.00    -0.303 NA
HETATM    8  H5  UNL     1       8.740  10.458  -5.620  1.00  0.00     0.124 HD
HETATM    9  H6  UNL     1       7.910  10.853  -4.206  1.00  0.00     0.124 HD
ENDBRANCH   6   7
BRANCH   3  10
HETATM   10  O1  UNL     1       3.343  12.184  -7.818  1.00  0.00    -0.361 OA
HETATM   11  H7  UNL     1       3.426  11.957  -8.758  1.00  0.00     0.217 HD
ENDBRANCH   3  10
TORSDOF 2
ENDMDL
MODEL 14
REMARK VINA RESULT:      -2.7      3.456      4.316
REMARK  2 active torsions:
REMARK  status: ('A' for Active; 'I' for Inactive)
REMARK    1  A    between atoms: C3_3  and  O1_8 
REMARK    2  A    between atoms: C6_6  and  N1_7 
ROOT
HETATM    1  C1  UNL     1       6.370  11.440  -7.907  1.00  0.00     0.026 A 
HETATM    2  C2  UNL     1       5.659  11.100  -6.753  1.00  0.00     0.038 A 
HETATM    3  C3  UNL     1       4.395  11.630  -6.543  1.00  0.00     0.065 A 
HETATM    4  C4  UNL     1       3.821  12.485  -7.477  1.00  0.00     0.038 A 
HETATM    5  C5  UNL     1       4.538  12.823  -8.628  1.00  0.00     0.026 A 
HETATM    6  C6  UNL     1       5.837  12.345  -8.830  1.00  0.00     0.005 A 
ENDROOT
BRANCH   6   7
HETATM    7  N1  UNL     1       6.499  12.591 -10.038  1.00  0.00    -0.303 NA
HETATM    8  H5  UNL     1       7.404  13.038  -9.924  1.00  0.00     0.124 HD
HETATM    9  H6  UNL     1       5.924  13.055 -10.734  1.00  0.00     0.124 HD
ENDBRANCH   6   7
BRANCH   3  10
HETATM   10  O1  UNL     1       3.733  11.272  -5.407  1.00  0.00    -0.361 OA
HETATM   11  H7  UNL     1       3.408  10.363  -5.511  1.00  0.00     0.217 HD
ENDBRANCH   3  10
TORSDOF 2
ENDMDL
MODEL 15
REMARK VINA RESULT:      -1.1     12.307     13.033
REMARK  2 active torsions:
REMARK  status: ('A' for Active; 'I' for Inactive)
REMARK    1  A    between atoms: C3_3  and  O1_8 
REMARK    2  A    between atoms: C6_6  and  N1_7 
ROOT
HETATM    1  C1  UNL     1      13.199   0.447  -2.210  1.00  0.00     0.026 A 
HETATM    2  C2  UNL     1      13.277   1.177  -3.398  1.00  0.00     0.038 A 
HETATM    3  C3  UNL     1      12.307   2.126  -3.688  1.00  0.00     0.065 A 
HETATM    4  C4  UNL     1      11.265   2.367  -2.799  1.00  0.00     0.038 A 
HETATM    5  C5  UNL     1      11.192   1.632  -1.613  1.00  0.00     0.026 A 
HETATM    6  C6  UNL     1      12.128   0.631  -1.331  1.00  0.00     0.005 A 
ENDROOT
BRANCH   6   7
HETATM    7  N1  UNL     1      12.115  -0.015  -0.089  1.00  0.00    -0.303 NA
HETATM    8  H5  UNL     1      11.184  -0.154   0.289  1.00  0.00     0.124 HD
HETATM    9  H6  UNL     1      12.752   0.388   0.590  1.00  0.00     0.124 HD
ENDBRANCH   6   7
BRANCH   3  10
HETATM   10  O1  UNL     1      12.420   2.819  -4.856  1.00  0.00    -0.361 OA
HETATM   11  H7  UNL     1      13.244   3.332  -4.833  1.00  0.00     0.217 HD
ENDBRANCH   3  10
TORSDOF 2
ENDMDL
MODEL 16
REMARK VINA RESULT:      -1.0      5.381      6.128
REMARK  2 active torsions:
REMARK  status: ('A' for Active; 'I' for Inactive)
REMARK    1  A    between atoms: C3_3  and  O1_8 
REMARK    2  A    between atoms: C6_6  and  N1_7 
ROOT
HETATM    1  C1  UNL     1       1.264   7.444  -2.311  1.00  0.00     0.026 A 
HETATM    2  C2  UNL     1       1.442   6.443  -1.354  1.00  0.00     0.038 A 
HETATM    3  C3  UNL     1       2.558   5.621  -1.417  1.00  0.00     0.065 A 
HETATM    4  C4  UNL     1       3.509   5.795  -2.416  1.00  0.00     0.038 A 
HETATM    5  C5  UNL     1       3.324   6.798  -3.372  1.00  0.00     0.026 A 
HETATM    6  C6  UNL     1       2.177   7.598  -3.359  1.00  0.00     0.005 A 
ENDROOT
BRANCH   6   7
HETATM    7  N1  UNL     1       2.058   8.674  -4.246  1.00  0.00    -0.303 NA
HETATM    8  H5  UNL     1       2.246   9.576  -3.820  1.00  0.00     0.124 HD
HETATM    9  H6  UNL     1       1.196   8.672  -4.781  1.00  0.00     0.124 HD
ENDBRANCH   6   7
BRANCH   3  10
HETATM   10  O1  UNL     1       2.696   4.658  -0.463  1.00  0.00    -0.361 OA
HETATM   11  H7  UNL     1       2.151   4.900   0.303  1.00  0.00     0.217 HD
ENDBRANCH   3  10
TORSDOF 2
ENDMDL
MODEL 17
REMARK VINA RESULT:      -0.9     12.504     13.221
REMARK  2 active torsions:
REMARK  status: ('A' for Active; 'I' for Inactive)
REMARK    1  A    between atoms: C3_3  and  O1_8 
REMARK    2  A    between atoms: C6_6  and  N1_7 
ROOT
HETATM    1  C1  UNL     1      11.286   2.314  -2.694  1.00  0.00     0.026 A 
HETATM    2  C2  UNL     1      11.236   1.584  -1.505  1.00  0.00     0.038 A 
HETATM    3  C3  UNL     1      12.199   0.618  -1.250  1.00  0.00     0.065 A 
HETATM    4  C4  UNL     1      13.223   0.381  -2.160  1.00  0.00     0.038 A 
HETATM    5  C5  UNL     1      13.266   1.115  -3.349  1.00  0.00     0.026 A 
HETATM    6  C6  UNL     1      12.272   2.052  -3.650  1.00  0.00     0.005 A 
ENDROOT
BRANCH   6   7
HETATM    7  N1  UNL     1      12.389   2.864  -4.784  1.00  0.00    -0.303 NA
HETATM    8  H5  UNL     1      11.502   3.228  -5.118  1.00  0.00     0.124 HD
HETATM    9  H6  UNL     1      12.942   2.452  -5.528  1.00  0.00     0.124 HD
ENDBRANCH   6   7
BRANCH   3  10
HETATM   10  O1  UNL     1      12.117  -0.072  -0.077  1.00  0.00    -0.361 OA
HETATM   11  H7  UNL     1      12.588  -0.914  -0.179  1.00  0.00     0.217 HD
ENDBRANCH   3  10
TORSDOF 2
ENDMDL
MODEL 18
REMARK VINA RESULT:      -0.8      5.200      5.906
REMARK  2 active torsions:
REMARK  status: ('A' for Active; 'I' for Inactive)
REMARK    1  A    between atoms: C3_3  and  O1_8 
REMARK    2  A    between atoms: C6_6  and  N1_7 
ROOT
HETATM    1  C1  UNL     1       1.518   6.425  -1.377  1.00  0.00     0.026 A 
HETATM    2  C2  UNL     1       1.313   7.458  -2.295  1.00  0.00     0.038 A 
HETATM    3  C3  UNL     1       2.226   7.658  -3.320  1.00  0.00     0.065 A 
HETATM    4  C4  UNL     1       3.335   6.829  -3.452  1.00  0.00     0.038 A 
HETATM    5  C5  UNL     1       3.534   5.798  -2.529  1.00  0.00     0.026 A 
HETATM    6  C6  UNL     1       2.656   5.618  -1.455  1.00  0.00     0.005 A 
ENDROOT
BRANCH   6   7
HETATM    7  N1  UNL     1       2.797   4.513  -0.607  1.00  0.00    -0.303 NA
HETATM    8  H5  UNL     1       3.694   4.474  -0.134  1.00  0.00     0.124 HD
HETATM    9  H6  UNL     1       2.550   3.629  -1.041  1.00  0.00     0.124 HD
ENDBRANCH   6   7
BRANCH   3  10
HETATM   10  O1  UNL     1       1.990   8.674  -4.197  1.00  0.00    -0.361 OA
HETATM   11  H7  UNL     1       2.020   9.514  -3.712  1.00  0.00     0.217 HD
ENDBRANCH   3  10
TORSDOF 2
ENDMDL
MODEL 19
REMARK VINA RESULT:       0.6     12.028     12.764
REMARK  2 active torsions:
REMARK  status: ('A' for Active; 'I' for Inactive)
REMARK    1  A    between atoms: C3_3  and  O1_8 
REMARK    2  A    between atoms: C6_6  and  N1_7 
ROOT
HETATM    1  C1  UNL     1      10.798   2.048  -1.955  1.00  0.00     0.026 A 
HETATM    2  C2  UNL     1      10.817   0.653  -2.003  1.00  0.00     0.038 A 
HETATM    3  C3  UNL     1      11.797   0.003  -2.739  1.00  0.00     0.065 A 
HETATM    4  C4  UNL     1      12.771   0.729  -3.417  1.00  0.00     0.038 A 
HETATM    5  C5  UNL     1      12.744   2.126  -3.366  1.00  0.00     0.026 A 
HETATM    6  C6  UNL     1      11.730   2.799  -2.677  1.00  0.00     0.005 A 
ENDROOT
BRANCH   6   7
HETATM    7  N1  UNL     1      11.780   4.190  -2.533  1.00  0.00    -0.303 NA
HETATM    8  H5  UNL     1      11.143   4.550  -1.829  1.00  0.00     0.124 HD
HETATM    9  H6  UNL     1      11.714   4.697  -3.409  1.00  0.00     0.124 HD
ENDBRANCH   6   7
BRANCH   3  10
HETATM   10  O1  UNL     1      11.784  -1.359  -2.759  1.00  0.00    -0.361 OA
HETATM   11  H7  UNL     1      10.879  -1.663  -2.579  1.00  0.00     0.217 HD
ENDBRANCH   3  10
TORSDOF 2
ENDMDL
MODEL 20
REMARK VINA RESULT:       0.6     11.992     12.719
REMARK  2 active torsions:
REMARK  status: ('A' for Active; 'I' for Inactive)
REMARK    1  A    between atoms: C3_3  and  O1_8 
REMARK    2  A    between atoms: C6_6  and  N1_7 
ROOT
HETATM    1  C1  UNL     1      10.892   0.820  -1.945  1.00  0.00     0.026 A 
HETATM    2  C2  UNL     1      10.923   2.216  -1.936  1.00  0.00     0.038 A 
HETATM    3  C3  UNL     1      11.882   2.887  -2.682  1.00  0.00     0.065 A 
HETATM    4  C4  UNL     1      12.801   2.183  -3.452  1.00  0.00     0.038 A 
HETATM    5  C5  UNL     1      12.764   0.786  -3.455  1.00  0.00     0.026 A 
HETATM    6  C6  UNL     1      11.843   0.090  -2.664  1.00  0.00     0.005 A 
ENDROOT
BRANCH   6   7
HETATM    7  N1  UNL     1      11.736  -1.301  -2.766  1.00  0.00    -0.303 NA
HETATM    8  H5  UNL     1      10.833  -1.617  -3.108  1.00  0.00     0.124 HD
HETATM    9  H6  UNL     1      12.028  -1.798  -1.931  1.00  0.00     0.124 HD
ENDBRANCH   6   7
BRANCH   3  10
HETATM   10  O1  UNL     1      11.878   4.250  -2.648  1.00  0.00    -0.361 OA
HETATM   11  H7  UNL     1      11.957   4.582  -3.557  1.00  0.00     0.217 HD
ENDBRANCH   3  10
TORSDOF 2
ENDMDL
