MODEL 1
REMARK VINA RESULT:      -4.5      0.000      0.000
REMARK  2 active torsions:
REMARK  status: ('A' for Active; 'I' for Inactive)
REMARK    1  A    between atoms: C3_3  and  O1_8 
REMARK    2  A    between atoms: C6_6  and  N1_7 
ROOT
HETATM    1  C1  UNL     1       9.970   5.439  -4.284  1.00  0.00     0.026 A 
HETATM    2  C2  UNL     1       9.550   6.024  -5.481  1.00  0.00     0.038 A 
HETATM    3  C3  UNL     1      10.246   5.768  -6.653  1.00  0.00     0.065 A 
HETATM    4  C4  UNL     1      11.348   4.921  -6.652  1.00  0.00     0.038 A 
HETATM    5  C5  UNL     1      11.764   4.339  -5.450  1.00  0.00     0.026 A 
HETATM    6  C6  UNL     1      11.111   4.632  -4.248  1.00  0.00     0.005 A 
ENDROOT
BRANCH   6   7
HETATM    7  N1  UNL     1      11.459   3.954  -3.074  1.00  0.00    -0.303 NA
HETATM    8  H5  UNL     1      12.393   4.170  -2.740  1.00  0.00     0.124 HD
HETATM    9  H6  UNL     1      11.284   2.955  -3.110  1.00  0.00     0.124 HD
ENDBRANCH   6   7
BRANCH   3  10
HETATM   10  O1  UNL     1       9.802   6.356  -7.800  1.00  0.00    -0.361 OA
HETATM   11  H7  UNL     1       8.916   6.717  -7.640  1.00  0.00     0.217 HD
ENDBRANCH   3  10
TORSDOF 2
ENDMDL
MODEL 2
REMARK VINA RESULT:      -4.5      1.006      1.902
REMARK  2 active torsions:
REMARK  status: ('A' for Active; 'I' for Inactive)
REMARK    1  A    between atoms: C3_3  and  O1_8 
REMARK    2  A    between atoms: C6_6  and  N1_7 
ROOT
HETATM    1  C1  UNL     1      12.292   5.626  -5.671  1.00  0.00     0.026 A 
HETATM    2  C2  UNL     1      11.834   6.235  -6.842  1.00  0.00     0.038 A 
HETATM    3  C3  UNL     1      10.498   6.590  -6.955  1.00  0.00     0.065 A 
HETATM    4  C4  UNL     1       9.613   6.362  -5.907  1.00  0.00     0.038 A 
HETATM    5  C5  UNL     1      10.078   5.751  -4.738  1.00  0.00     0.026 A 
HETATM    6  C6  UNL     1      11.408   5.332  -4.628  1.00  0.00     0.005 A 
ENDROOT
BRANCH   6   7
HETATM    7  N1  UNL     1      11.891   4.832  -3.414  1.00  0.00    -0.303 NA
HETATM    8  H5  UNL     1      12.904   4.805  -3.358  1.00  0.00     0.124 HD
HETATM    9  H6  UNL     1      11.465   3.955  -3.133  1.00  0.00     0.124 HD
ENDBRANCH   6   7
BRANCH   3  10
HETATM   10  O1  UNL     1      10.091   7.184  -8.112  1.00  0.00    -0.361 OA
HETATM   11  H7  UNL     1      10.472   8.076  -8.153  1.00  0.00     0.217 HD
ENDBRANCH   3  10
TORSDOF 2
ENDMDL
MODEL 3
REMARK VINA RESULT:      -4.5      2.916      3.380
REMARK  2 active torsions:
REMARK  status: ('A' for Active; 'I' for Inactive)
REMARK    1  A    between atoms: C3_3  and  O1_8 
REMARK    2  A    between atoms: C6_6  and  N1_7 
ROOT
HETATM    1  C1  UNL     1       9.617   6.025  -5.742  1.00  0.00     0.026 A 
HETATM    2  C2  UNL     1      10.122   5.511  -4.546  1.00  0.00     0.038 A 
HETATM    3  C3  UNL     1      11.489   5.323  -4.400  1.00  0.00     0.065 A 
HETATM    4  C4  UNL     1      12.363   5.658  -5.429  1.00  0.00     0.038 A 
HETATM    5  C5  UNL     1      11.850   6.171  -6.624  1.00  0.00     0.026 A 
HETATM    6  C6  UNL     1      10.471   6.312  -6.811  1.00  0.00     0.005 A 
ENDROOT
BRANCH   6   7
HETATM    7  N1  UNL     1       9.976   6.936  -7.962  1.00  0.00    -0.303 NA
HETATM    8  H5  UNL     1       9.885   6.311  -8.757  1.00  0.00     0.124 HD
HETATM    9  H6  UNL     1      10.456   7.798  -8.200  1.00  0.00     0.124 HD
ENDBRANCH   6   7
BRANCH   3  10
HETATM   10  O1  UNL     1      11.943   4.822  -3.217  1.00  0.00    -0.361 OA
HETATM   11  H7  UNL     1      11.346   4.112  -2.933  1.00  0.00     0.217 HD
ENDBRANCH   3  10
TORSDOF 2
ENDMDL
MODEL 4
REMARK VINA RESULT:      -4.4      2.781      3.680
REMARK  2 active torsions:
REMARK  status: ('A' for Active; 'I' for Inactive)
REMARK    1  A    between atoms: C3_3  and  O1_8 
REMARK    2  A    between atoms: C6_6  and  N1_7 
ROOT
HETATM    1  C1  UNL     1      11.345   4.929  -6.515  1.00  0.00     0.026 A 
HETATM    2  C2  UNL     1      11.672   4.236  -5.347  1.00  0.00     0.038 A 
HETATM    3  C3  UNL     1      10.906   4.415  -4.204  1.00  0.00     0.065 A 
HETATM    4  C4  UNL     1       9.805   5.265  -4.215  1.00  0.00     0.038 A 
HETATM    5  C5  UNL     1       9.484   5.955  -5.387  1.00  0.00     0.026 A 
HETATM    6  C6  UNL     1      10.279   5.834  -6.532  1.00  0.00     0.005 A 
ENDROOT
BRANCH   6   7
HETATM    7  N1  UNL     1       9.883   6.434  -7.732  1.00  0.00    -0.303 NA
HETATM    8  H5  UNL     1      10.046   7.436  -7.760  1.00  0.00     0.124 HD
HETATM    9  H6  UNL     1       8.943   6.188  -8.024  1.00  0.00     0.124 HD
ENDBRANCH   6   7
BRANCH   3  10
HETATM   10  O1  UNL     1      11.256   3.719  -3.086  1.00  0.00    -0.361 OA
HETATM   11  H7  UNL     1      11.062   2.780  -3.232  1.00  0.00     0.217 HD
ENDBRANCH   3  10
TORSDOF 2
ENDMDL
MODEL 5
REMARK VINA RESULT:      -4.3      2.083      2.439
REMARK  2 active torsions:
REMARK  status: ('A' for Active; 'I' for Inactive)
REMARK    1  A    between atoms: C3_3  and  O1_8 
REMARK    2  A    between atoms: C6_6  and  N1_7 
ROOT
HETATM    1  C1  UNL     1      12.778   6.973  -5.954  1.00  0.00     0.026 A 
HETATM    2  C2  UNL     1      11.613   6.685  -6.668  1.00  0.00     0.038 A 
HETATM    3  C3  UNL     1      10.923   5.508  -6.414  1.00  0.00     0.065 A 
HETATM    4  C4  UNL     1      11.373   4.620  -5.443  1.00  0.00     0.038 A 
HETATM    5  C5  UNL     1      12.540   4.915  -4.733  1.00  0.00     0.026 A 
HETATM    6  C6  UNL     1      13.281   6.067  -5.016  1.00  0.00     0.005 A 
ENDROOT
BRANCH   6   7
HETATM    7  N1  UNL     1      14.379   6.412  -4.220  1.00  0.00    -0.303 NA
HETATM    8  H5  UNL     1      14.124   6.858  -3.344  1.00  0.00     0.124 HD
HETATM    9  H6  UNL     1      15.102   6.922  -4.717  1.00  0.00     0.124 HD
ENDBRANCH   6   7
BRANCH   3  10
HETATM   10  O1  UNL     1       9.790   5.265  -7.130  1.00  0.00    -0.361 OA
HETATM   11  H7  UNL     1       9.082   5.015  -6.514  1.00  0.00     0.217 HD
ENDBRANCH   3  10
TORSDOF 2
ENDMDL
MODEL 6
REMARK VINA RESULT:      -4.2      2.105      2.461
REMARK  2 active torsions:
REMARK  status: ('A' for Active; 'I' for Inactive)
REMARK    1  A    between atoms: C3_3  and  O1_8 
REMARK    2  A    between atoms: C6_6  and  N1_7 
ROOT
HETATM    1  C1  UNL     1      12.466   4.988  -4.698  1.00  0.00     0.026 A 
HETATM    2  C2  UNL     1      11.260   4.763  -5.365  1.00  0.00     0.038 A 
HETATM    3  C3  UNL     1      10.902   5.574  -6.432  1.00  0.00     0.065 A 
HETATM    4  C4  UNL     1      11.741   6.599  -6.855  1.00  0.00     0.038 A 
HETATM    5  C5  UNL     1      12.947   6.820  -6.182  1.00  0.00     0.026 A 
HETATM    6  C6  UNL     1      13.297   6.050  -5.067  1.00  0.00     0.005 A 
ENDROOT
BRANCH   6   7
HETATM    7  N1  UNL     1      14.556   6.200  -4.475  1.00  0.00    -0.303 NA
HETATM    8  H5  UNL     1      14.566   5.996  -3.481  1.00  0.00     0.124 HD
HETATM    9  H6  UNL     1      15.010   7.080  -4.694  1.00  0.00     0.124 HD
ENDBRANCH   6   7
BRANCH   3  10
HETATM   10  O1  UNL     1       9.719   5.320  -7.059  1.00  0.00    -0.361 OA
HETATM   11  H7  UNL     1       9.260   4.612  -6.579  1.00  0.00     0.217 HD
ENDBRANCH   3  10
TORSDOF 2
ENDMDL
MODEL 7
REMARK VINA RESULT:      -4.2      1.504      2.367
REMARK  2 active torsions:
REMARK  status: ('A' for Active; 'I' for Inactive)
REMARK    1  A    between atoms: C3_3  and  O1_8 
REMARK    2  A    between atoms: C6_6  and  N1_7 
ROOT
HETATM    1  C1  UNL     1      10.198   4.949  -4.367  1.00  0.00     0.026 A 
HETATM    2  C2  UNL     1      10.564   5.399  -5.638  1.00  0.00     0.038 A 
HETATM    3  C3  UNL     1       9.607   5.963  -6.469  1.00  0.00     0.065 A 
HETATM    4  C4  UNL     1       8.290   6.099  -6.043  1.00  0.00     0.038 A 
HETATM    5  C5  UNL     1       7.931   5.644  -4.771  1.00  0.00     0.026 A 
HETATM    6  C6  UNL     1       8.868   5.020  -3.941  1.00  0.00     0.005 A 
ENDROOT
BRANCH   6   7
HETATM    7  N1  UNL     1       8.529   4.678  -2.628  1.00  0.00    -0.303 NA
HETATM    8  H5  UNL     1       9.320   4.670  -1.991  1.00  0.00     0.124 HD
HETATM    9  H6  UNL     1       7.966   3.837  -2.555  1.00  0.00     0.124 HD
ENDBRANCH   6   7
BRANCH   3  10
HETATM   10  O1  UNL     1      10.004   6.393  -7.700  1.00  0.00    -0.361 OA
HETATM   11  H7  UNL     1      10.105   5.621  -8.280  1.00  0.00     0.217 HD
ENDBRANCH   3  10
TORSDOF 2
ENDMDL
MODEL 8
REMARK VINA RESULT:      -4.2      2.048      2.245
REMARK  2 active torsions:
REMARK  status: ('A' for Active; 'I' for Inactive)
REMARK    1  A    between atoms: C3_3  and  O1_8 
REMARK    2  A    between atoms: C6_6  and  N1_7 
ROOT
HETATM    1  C1  UNL     1      11.079   5.444  -5.766  1.00  0.00     0.026 A 
HETATM    2  C2  UNL     1      11.125   6.045  -7.026  1.00  0.00     0.038 A 
HETATM    3  C3  UNL     1      12.198   6.859  -7.361  1.00  0.00     0.065 A 
HETATM    4  C4  UNL     1      13.236   7.068  -6.459  1.00  0.00     0.038 A 
HETATM    5  C5  UNL     1      13.183   6.464  -5.200  1.00  0.00     0.026 A 
HETATM    6  C6  UNL     1      12.082   5.688  -4.823  1.00  0.00     0.005 A 
ENDROOT
BRANCH   6   7
HETATM    7  N1  UNL     1      12.093   4.992  -3.609  1.00  0.00    -0.303 NA
HETATM    8  H5  UNL     1      11.709   4.054  -3.673  1.00  0.00     0.124 HD
HETATM    9  H6  UNL     1      11.706   5.516  -2.832  1.00  0.00     0.124 HD
ENDBRANCH   6   7
BRANCH   3  10
HETATM   10  O1  UNL     1      12.207   7.426  -8.600  1.00  0.00    -0.361 OA
HETATM   11  H7  UNL     1      12.362   6.729  -9.258  1.00  0.00     0.217 HD
ENDBRANCH   3  10
TORSDOF 2
ENDMDL
MODEL 9
REMARK VINA RESULT:      -4.2      2.970      3.544
REMARK  2 active torsions:
REMARK  status: ('A' for Active; 'I' for Inactive)
REMARK    1  A    between atoms: C3_3  and  O1_8 
REMARK    2  A    between atoms: C6_6  and  N1_7 
ROOT
HETATM    1  C1  UNL     1      11.650   6.644  -6.800  1.00  0.00     0.026 A 
HETATM    2  C2  UNL     1      12.879   6.724  -6.143  1.00  0.00     0.038 A 
HETATM    3  C3  UNL     1      13.106   5.953  -5.011  1.00  0.00     0.065 A 
HETATM    4  C4  UNL     1      12.126   5.089  -4.536  1.00  0.00     0.038 A 
HETATM    5  C5  UNL     1      10.897   5.015  -5.198  1.00  0.00     0.026 A 
HETATM    6  C6  UNL     1      10.629   5.827  -6.305  1.00  0.00     0.005 A 
ENDROOT
BRANCH   6   7
HETATM    7  N1  UNL     1       9.444   5.660  -7.031  1.00  0.00    -0.303 NA
HETATM    8  H5  UNL     1       9.373   4.759  -7.493  1.00  0.00     0.124 HD
HETATM    9  H6  UNL     1       9.233   6.431  -7.655  1.00  0.00     0.124 HD
ENDBRANCH   6   7
BRANCH   3  10
HETATM   10  O1  UNL     1      14.319   6.058  -4.400  1.00  0.00    -0.361 OA
HETATM   11  H7  UNL     1      15.013   6.003  -5.077  1.00  0.00     0.217 HD
ENDBRANCH   3  10
TORSDOF 2
ENDMDL
MODEL 10
REMARK VINA RESULT:      -4.2      2.937      3.509
REMARK  2 active torsions:
REMARK  status: ('A' for Active; 'I' for Inactive)
REMARK    1  A    between atoms: C3_3  and  O1_8 
REMARK    2  A    between atoms: C6_6  and  N1_7 
ROOT
HETATM    1  C1  UNL     1       8.348   6.389  -6.024  1.00  0.00     0.026 A 
HETATM    2  C2  UNL     1       7.997   5.909  -4.760  1.00  0.00     0.038 A 
HETATM    3  C3  UNL     1       8.939   5.240  -3.991  1.00  0.00     0.065 A 
HETATM    4  C4  UNL     1      10.235   5.057  -4.461  1.00  0.00     0.038 A 
HETATM    5  C5  UNL     1      10.579   5.539  -5.728  1.00  0.00     0.026 A 
HETATM    6  C6  UNL     1       9.628   6.163  -6.541  1.00  0.00     0.005 A 
ENDROOT
BRANCH   6   7
HETATM    7  N1  UNL     1      10.011   6.746  -7.754  1.00  0.00    -0.303 NA
HETATM    8  H5  UNL     1       9.233   7.114  -8.293  1.00  0.00     0.124 HD
HETATM    9  H6  UNL     1      10.627   6.165  -8.312  1.00  0.00     0.124 HD
ENDBRANCH   6   7
BRANCH   3  10
HETATM   10  O1  UNL     1       8.558   4.790  -2.763  1.00  0.00    -0.361 OA
HETATM   11  H7  UNL     1       8.037   5.484  -2.327  1.00  0.00     0.217 HD
ENDBRANCH   3  10
TORSDOF 2
ENDMDL
MODEL 11
REMARK VINA RESULT:      -4.2      4.444      5.118
REMARK  2 active torsions:
REMARK  status: ('A' for Active; 'I' for Inactive)
REMARK    1  A    between atoms: C3_3  and  O1_8 
REMARK    2  A    between atoms: C6_6  and  N1_7 
ROOT
HETATM    1  C1  UNL     1      14.333   7.920  -7.417  1.00  0.00     0.026 A 
HETATM    2  C2  UNL     1      14.794   7.576  -6.144  1.00  0.00     0.038 A 
HETATM    3  C3  UNL     1      13.994   6.813  -5.306  1.00  0.00     0.065 A 
HETATM    4  C4  UNL     1      12.743   6.375  -5.727  1.00  0.00     0.038 A 
HETATM    5  C5  UNL     1      12.287   6.725  -7.001  1.00  0.00     0.026 A 
HETATM    6  C6  UNL     1      13.054   7.542  -7.838  1.00  0.00     0.005 A 
ENDROOT
BRANCH   6   7
HETATM    7  N1  UNL     1      12.644   7.788  -9.153  1.00  0.00    -0.303 NA
HETATM    8  H5  UNL     1      13.408   7.999  -9.787  1.00  0.00     0.124 HD
HETATM    9  H6  UNL     1      11.884   8.456  -9.228  1.00  0.00     0.124 HD
ENDBRANCH   6   7
BRANCH   3  10
HETATM   10  O1  UNL     1      14.481   6.495  -4.073  1.00  0.00    -0.361 OA
HETATM   11  H7  UNL     1      15.382   6.846  -3.997  1.00  0.00     0.217 HD
ENDBRANCH   3  10
TORSDOF 2
ENDMDL
MODEL 12
REMARK VINA RESULT:      -4.1      1.530      1.767
REMARK  2 active torsions:
REMARK  status: ('A' for Active; 'I' for Inactive)
REMARK    1  A    between atoms: C3_3  and  O1_8 
REMARK    2  A    between atoms: C6_6  and  N1_7 
ROOT
HETATM    1  C1  UNL     1      10.924   5.326  -4.423  1.00  0.00     0.026 A 
HETATM    2  C2  UNL     1       9.634   5.421  -4.950  1.00  0.00     0.038 A 
HETATM    3  C3  UNL     1       9.452   5.904  -6.239  1.00  0.00     0.065 A 
HETATM    4  C4  UNL     1      10.542   6.277  -7.016  1.00  0.00     0.038 A 
HETATM    5  C5  UNL     1      11.830   6.181  -6.481  1.00  0.00     0.026 A 
HETATM    6  C6  UNL     1      12.030   5.753  -5.165  1.00  0.00     0.005 A 
ENDROOT
BRANCH   6   7
HETATM    7  N1  UNL     1      13.327   5.546  -4.680  1.00  0.00    -0.303 NA
HETATM    8  H5  UNL     1      13.996   6.243  -4.994  1.00  0.00     0.124 HD
HETATM    9  H6  UNL     1      13.667   4.599  -4.808  1.00  0.00     0.124 HD
ENDBRANCH   6   7
BRANCH   3  10
HETATM   10  O1  UNL     1       8.178   5.979  -6.718  1.00  0.00    -0.361 OA
HETATM   11  H7  UNL     1       7.979   5.159  -7.198  1.00  0.00     0.217 HD
ENDBRANCH   3  10
TORSDOF 2
ENDMDL
MODEL 13
REMARK VINA RESULT:      -4.0      3.253      3.552
REMARK  2 active torsions:
REMARK  status: ('A' for Active; 'I' for Inactive)
REMARK    1  A    between atoms: C3_3  and  O1_8 
REMARK    2  A    between atoms: C6_6  and  N1_7 
ROOT
HETATM    1  C1  UNL     1      13.225   5.924  -5.025  1.00  0.00     0.026 A 
HETATM    2  C2  UNL     1      12.265   6.168  -6.010  1.00  0.00     0.038 A 
HETATM    3  C3  UNL     1      12.544   7.060  -7.036  1.00  0.00     0.065 A 
HETATM    4  C4  UNL     1      13.776   7.701  -7.102  1.00  0.00     0.038 A 
HETATM    5  C5  UNL     1      14.731   7.453  -6.112  1.00  0.00     0.026 A 
HETATM    6  C6  UNL     1      14.447   6.603  -5.038  1.00  0.00     0.005 A 
ENDROOT
BRANCH   6   7
HETATM    7  N1  UNL     1      15.449   6.269  -4.119  1.00  0.00    -0.303 NA
HETATM    8  H5  UNL     1      16.068   5.531  -4.441  1.00  0.00     0.124 HD
HETATM    9  H6  UNL     1      15.105   6.103  -3.180  1.00  0.00     0.124 HD
ENDBRANCH   6   7
BRANCH   3  10
HETATM   10  O1  UNL     1      11.583   7.268  -7.979  1.00  0.00    -0.361 OA
HETATM   11  H7  UNL     1      10.748   7.477  -7.530  1.00  0.00     0.217 HD
ENDBRANCH   3  10
TORSDOF 2
ENDMDL
MODEL 14
REMARK VINA RESULT:      -4.0      2.581      3.086
REMARK  2 active torsions:
REMARK  status: ('A' for Active; 'I' for Inactive)
REMARK    1  A    between atoms: C3_3  and  O1_8 
REMARK    2  A    between atoms: C6_6  and  N1_7 
ROOT
HETATM    1  C1  UNL     1       9.389   5.332  -4.578  1.00  0.00     0.026 A 
HETATM    2  C2  UNL     1      10.491   4.534  -4.262  1.00  0.00     0.038 A 
HETATM    3  C3  UNL     1      11.460   4.287  -5.225  1.00  0.00     0.065 A 
HETATM    4  C4  UNL     1      11.352   4.841  -6.496  1.00  0.00     0.038 A 
HETATM    5  C5  UNL     1      10.245   5.638  -6.805  1.00  0.00     0.026 A 
HETATM    6  C6  UNL     1       9.230   5.849  -5.867  1.00  0.00     0.005 A 
ENDROOT
BRANCH   6   7
HETATM    7  N1  UNL     1       8.189   6.743  -6.145  1.00  0.00    -0.303 NA
HETATM    8  H5  UNL     1       8.225   7.595  -5.595  1.00  0.00     0.124 HD
HETATM    9  H6  UNL     1       7.268   6.316  -6.137  1.00  0.00     0.124 HD
ENDBRANCH   6   7
BRANCH   3  10
HETATM   10  O1  UNL     1      12.521   3.506  -4.877  1.00  0.00    -0.361 OA
HETATM   11  H7  UNL     1      12.881   3.097  -5.680  1.00  0.00     0.217 HD
ENDBRANCH   3  10
TORSDOF 2
ENDMDL
MODEL 15
REMARK VINA RESULT:      -3.9      2.462      2.924
REMARK  2 active torsions:
REMARK  status: ('A' for Active; 'I' for Inactive)
REMARK    1  A    between atoms: C3_3  and  O1_8 
REMARK    2  A    between atoms: C6_6  and  N1_7 
ROOT
HETATM    1  C1  UNL     1       9.999   6.016  -5.212  1.00  0.00     0.026 A 
HETATM    2  C2  UNL     1      11.385   6.185  -5.235  1.00  0.00     0.038 A 
HETATM    3  C3  UNL     1      12.200   5.276  -4.576  1.00  0.00     0.065 A 
HETATM    4  C4  UNL     1      11.650   4.187  -3.907  1.00  0.00     0.038 A 
HETATM    5  C5  UNL     1      10.261   4.025  -3.888  1.00  0.00     0.026 A 
HETATM    6  C6  UNL     1       9.421   4.963  -4.496  1.00  0.00     0.005 A 
ENDROOT
BRANCH   6   7
HETATM    7  N1  UNL     1       8.043   4.729  -4.574  1.00  0.00    -0.303 NA
HETATM    8  H5  UNL     1       7.492   5.341  -3.980  1.00  0.00     0.124 HD
HETATM    9  H6  UNL     1       7.786   3.754  -4.467  1.00  0.00     0.124 HD
ENDBRANCH   6   7
BRANCH   3  10
HETATM   10  O1  UNL     1      13.547   5.474  -4.624  1.00  0.00    -0.361 OA
HETATM   11  H7  UNL     1      13.988   4.695  -4.249  1.00  0.00     0.217 HD
ENDBRANCH   3  10
TORSDOF 2
ENDMDL
MODEL 16
REMARK VINA RESULT:      -3.9      3.352      3.655
REMARK  2 active torsions:
REMARK  status: ('A' for Active; 'I' for Inactive)
REMARK    1  A    between atoms: C3_3  and  O1_8 
REMARK    2  A    between atoms: C6_6  and  N1_7 
ROOT
HETATM    1  C1  UNL     1      14.483   7.766  -5.696  1.00  0.00     0.026 A 
HETATM    2  C2  UNL     1      13.358   8.277  -6.347  1.00  0.00     0.038 A 
HETATM    3  C3  UNL     1      12.157   7.583  -6.293  1.00  0.00     0.065 A 
HETATM    4  C4  UNL     1      12.060   6.392  -5.582  1.00  0.00     0.038 A 
HETATM    5  C5  UNL     1      13.190   5.886  -4.934  1.00  0.00     0.026 A 
HETATM    6  C6  UNL     1      14.423   6.540  -5.026  1.00  0.00     0.005 A 
ENDROOT
BRANCH   6   7
HETATM    7  N1  UNL     1      15.517   6.091  -4.278  1.00  0.00    -0.303 NA
HETATM    8  H5  UNL     1      15.266   5.743  -3.357  1.00  0.00     0.124 HD
HETATM    9  H6  UNL     1      16.289   6.747  -4.245  1.00  0.00     0.124 HD
ENDBRANCH   6   7
BRANCH   3  10
HETATM   10  O1  UNL     1      11.082   8.116  -6.939  1.00  0.00    -0.361 OA
HETATM   11  H7  UNL     1      10.285   7.932  -6.417  1.00  0.00     0.217 HD
ENDBRANCH   3  10
TORSDOF 2
ENDMDL
MODEL 17
REMARK VINA RESULT:      -3.9      2.782      3.515
REMARK  2 active torsions:
REMARK  status: ('A' for Active; 'I' for Inactive)
REMARK    1  A    between atoms: C3_3  and  O1_8 
REMARK    2  A    between atoms: C6_6  and  N1_7 
ROOT
HETATM    1  C1  UNL     1      10.593   5.386  -6.685  1.00  0.00     0.026 A 
HETATM    2  C2  UNL     1      11.894   5.891  -6.632  1.00  0.00     0.038 A 
HETATM    3  C3  UNL     1      12.096   7.259  -6.512  1.00  0.00     0.065 A 
HETATM    4  C4  UNL     1      11.015   8.130  -6.427  1.00  0.00     0.038 A 
HETATM    5  C5  UNL     1       9.716   7.617  -6.482  1.00  0.00     0.026 A 
HETATM    6  C6  UNL     1       9.492   6.248  -6.662  1.00  0.00     0.005 A 
ENDROOT
BRANCH   6   7
HETATM    7  N1  UNL     1       8.193   5.731  -6.596  1.00  0.00    -0.303 NA
HETATM    8  H5  UNL     1       7.624   5.952  -7.408  1.00  0.00     0.124 HD
HETATM    9  H6  UNL     1       7.715   5.932  -5.724  1.00  0.00     0.124 HD
ENDBRANCH   6   7
BRANCH   3  10
HETATM   10  O1  UNL     1      13.380   7.712  -6.461  1.00  0.00    -0.361 OA
HETATM   11  H7  UNL     1      13.490   8.240  -5.654  1.00  0.00     0.217 HD
ENDBRANCH   3  10
TORSDOF 2
ENDMDL
MODEL 18
REMARK VINA RESULT:      -3.8      2.921      3.468
REMARK  2 active torsions:
REMARK  status: ('A' for Active; 'I' for Inactive)
REMARK    1  A    between atoms: C3_3  and  O1_8 
REMARK    2  A    between atoms: C6_6  and  N1_7 
ROOT
HETATM    1  C1  UNL     1      13.194   6.267  -5.133  1.00  0.00     0.026 A 
HETATM    2  C2  UNL     1      12.415   5.244  -4.588  1.00  0.00     0.038 A 
HETATM    3  C3  UNL     1      11.348   4.732  -5.311  1.00  0.00     0.065 A 
HETATM    4  C4  UNL     1      11.055   5.218  -6.581  1.00  0.00     0.038 A 
HETATM    5  C5  UNL     1      11.838   6.243  -7.120  1.00  0.00     0.026 A 
HETATM    6  C6  UNL     1      12.881   6.812  -6.382  1.00  0.00     0.005 A 
ENDROOT
BRANCH   6   7
HETATM    7  N1  UNL     1      13.732   7.753  -6.975  1.00  0.00    -0.303 NA
HETATM    8  H5  UNL     1      13.968   8.529  -6.365  1.00  0.00     0.124 HD
HETATM    9  H6  UNL     1      13.427   8.061  -7.892  1.00  0.00     0.124 HD
ENDBRANCH   6   7
BRANCH   3  10
HETATM   10  O1  UNL     1      10.614   3.733  -4.746  1.00  0.00    -0.361 OA
HETATM   11  H7  UNL     1      11.211   3.002  -4.517  1.00  0.00     0.217 HD
ENDBRANCH   3  10
TORSDOF 2
ENDMDL
MODEL 19
REMARK VINA RESULT:      -3.8      3.176      4.117
REMARK  2 active torsions:
REMARK  status: ('A' for Active; 'I' for Inactive)
REMARK    1  A    between atoms: C3_3  and  O1_8 
REMARK    2  A    between atoms: C6_6  and  N1_7 
ROOT
HETATM    1  C1  UNL     1       9.512   6.515  -5.484  1.00  0.00     0.026 A 
HETATM    2  C2  UNL     1      10.206   5.514  -4.801  1.00  0.00     0.038 A 
HETATM    3  C3  UNL     1       9.553   4.760  -3.836  1.00  0.00     0.065 A 
HETATM    4  C4  UNL     1       8.209   4.980  -3.555  1.00  0.00     0.038 A 
HETATM    5  C5  UNL     1       7.521   5.985  -4.242  1.00  0.00     0.026 A 
HETATM    6  C6  UNL     1       8.177   6.794  -5.175  1.00  0.00     0.005 A 
ENDROOT
BRANCH   6   7
HETATM    7  N1  UNL     1       7.454   7.715  -5.942  1.00  0.00    -0.303 NA
HETATM    8  H5  UNL     1       7.552   8.675  -5.627  1.00  0.00     0.124 HD
HETATM    9  H6  UNL     1       6.484   7.455  -6.089  1.00  0.00     0.124 HD
ENDBRANCH   6   7
BRANCH   3  10
HETATM   10  O1  UNL     1      10.264   3.791  -3.194  1.00  0.00    -0.361 OA
HETATM   11  H7  UNL     1      10.011   3.791  -2.257  1.00  0.00     0.217 HD
ENDBRANCH   3  10
TORSDOF 2
ENDMDL
MODEL 20
REMARK VINA RESULT:      -3.7      1.346      1.439
REMARK  2 active torsions:
REMARK  status: ('A' for Active; 'I' for Inactive)
REMARK    1  A    between atoms: C3_3  and  O1_8 
REMARK    2  A    between atoms: C6_6  and  N1_7 
ROOT
HETATM    1  C1  UNL     1       9.979   4.174  -3.728  1.00  0.00     0.026 A 
HETATM    2  C2  UNL     1       9.773   5.344  -4.462  1.00  0.00     0.038 A 
HETATM    3  C3  UNL     1      10.761   5.798  -5.324  1.00  0.00     0.065 A 
HETATM    4  C4  UNL     1      11.948   5.089  -5.477  1.00  0.00     0.038 A 
HETATM    5  C5  UNL     1      12.147   3.919  -4.738  1.00  0.00     0.026 A 
HETATM    6  C6  UNL     1      11.188   3.478  -3.820  1.00  0.00     0.005 A 
ENDROOT
BRANCH   6   7
HETATM    7  N1  UNL     1      11.344   2.246  -3.175  1.00  0.00    -0.303 NA
HETATM    8  H5  UNL     1      11.036   2.250  -2.208  1.00  0.00     0.124 HD
HETATM    9  H6  UNL     1      12.267   1.839  -3.285  1.00  0.00     0.124 HD
ENDBRANCH   6   7
BRANCH   3  10
HETATM   10  O1  UNL     1      10.522   6.942  -6.025  1.00  0.00    -0.361 OA
HETATM   11  H7  UNL     1      11.363   7.408  -6.153  1.00  0.00     0.217 HD
ENDBRANCH   3  10
TORSDOF 2
ENDMDL
