MODEL 1
REMARK VINA RESULT:      -6.8      0.000      0.000
REMARK  27 active torsions:
REMARK  status: ('A' for Active; 'I' for Inactive)
REMARK    1  A    between atoms: C2_2  and  S1_4 
REMARK    2  A    between atoms: S1_4  and  C3_5 
REMARK    3  A    between atoms: C3_5  and  C4_6 
REMARK    4  A    between atoms: C4_6  and  N1_7 
REMARK       I    between atoms: N1_7  and  C5_8 
REMARK    5  A    between atoms: C5_8  and  C6_10 
REMARK    6  A    between atoms: C6_10  and  C7_11 
REMARK    7  A    between atoms: C7_11  and  N2_12 
REMARK       I    between atoms: N2_12  and  C8_13 
REMARK    8  A    between atoms: C8_13  and  C9_15 
REMARK    9  A    between atoms: C9_15  and  C10_16 
REMARK   10  A    between atoms: C9_15  and  O17_54 
REMARK   11  A    between atoms: C10_16  and  C13_19 
REMARK   12  A    between atoms: C13_19  and  O4_20 
REMARK   13  A    between atoms: O4_20  and  P1_21 
REMARK   14  A    between atoms: P1_21  and  O6_23 
REMARK   15  A    between atoms: P1_21  and  O7_24 
REMARK   16  A    between atoms: O7_24  and  P2_25 
REMARK   17  A    between atoms: P2_25  and  O9_27 
REMARK   18  A    between atoms: P2_25  and  O10_28 
REMARK   19  A    between atoms: O10_28  and  C14_29 
REMARK   20  A    between atoms: C14_29  and  C15_30 
REMARK   21  A    between atoms: C16_31  and  O13_49 
REMARK   22  A    between atoms: C17_32  and  O12_48 
REMARK   23  A    between atoms: C18_33  and  N3_35 
REMARK   24  A    between atoms: C21_40  and  N7_47 
REMARK   25  A    between atoms: O13_49  and  P3_50 
REMARK   26  A    between atoms: P3_50  and  O15_52 
REMARK   27  A    between atoms: P3_50  and  O16_53 
ROOT
HETATM    1  C1  UNL     1      12.458   0.301  -1.040  1.00  0.00     0.104 C 
HETATM    2  C2  UNL     1      12.181   0.730  -2.449  1.00  0.00     0.182 C 
HETATM    3  O1  UNL     1      12.942   0.502  -3.385  1.00  0.00    -0.286 OA
ENDROOT
BRANCH   2   4
HETATM    4  S1  UNL     1      10.684   1.631  -2.651  1.00  0.00    -0.091 SA
BRANCH   4   5
HETATM    5  C3  UNL     1      11.342   3.324  -2.798  1.00  0.00     0.102 C 
BRANCH   5   6
HETATM    6  C4  UNL     1      10.857   4.016  -4.073  1.00  0.00     0.133 C 
BRANCH   6   7
HETATM    7  N1  UNL     1      11.795   5.003  -4.566  1.00  0.00    -0.360 N 
HETATM    8  C5  UNL     1      11.777   5.430  -5.873  1.00  0.00     0.219 C 
HETATM    9  O2  UNL     1      11.027   4.949  -6.714  1.00  0.00    -0.274 OA
HETATM   10  H8  UNL     1      12.475   5.391  -3.925  1.00  0.00     0.162 HD
BRANCH   8  11
HETATM   11  C6  UNL     1      12.802   6.504  -6.167  1.00  0.00     0.122 C 
BRANCH  11  12
HETATM   12  C7  UNL     1      13.935   6.508  -5.142  1.00  0.00     0.132 C 
BRANCH  12  13
HETATM   13  N2  UNL     1      14.496   7.824  -4.920  1.00  0.00    -0.358 N 
HETATM   14  C8  UNL     1      15.856   8.033  -5.054  1.00  0.00     0.247 C 
HETATM   15  O3  UNL     1      16.642   7.113  -5.243  1.00  0.00    -0.271 OA
HETATM   16  H13 UNL     1      13.881   8.605  -5.139  1.00  0.00     0.162 HD
BRANCH  14  17
HETATM   17  C9  UNL     1      16.294   9.503  -4.967  1.00  0.00     0.219 C 
BRANCH  17  18
HETATM   18  C10 UNL     1      16.357  10.237  -6.332  1.00  0.00     0.009 C 
HETATM   19  C11 UNL     1      17.295  11.452  -6.292  1.00  0.00     0.020 C 
HETATM   20  C12 UNL     1      16.842   9.299  -7.456  1.00  0.00     0.020 C 
BRANCH  18  21
HETATM   21  C13 UNL     1      14.905  10.707  -6.631  1.00  0.00     0.192 C 
BRANCH  21  22
HETATM   22  O4  UNL     1      14.734  12.094  -6.421  1.00  0.00    -0.296 OA
BRANCH  22  23
HETATM   23  P1  UNL     1      13.481  12.914  -6.995  1.00  0.00     0.401 P 
HETATM   24  O5  UNL     1      13.043  12.486  -8.360  1.00  0.00    -0.631 OA
BRANCH  23  25
HETATM   25  O6  UNL     1      13.861  14.475  -6.895  1.00  0.00    -0.307 OA
HETATM   26  H23 UNL     1      13.609  14.855  -6.043  1.00  0.00     0.222 HD
ENDBRANCH  23  25
BRANCH  23  27
HETATM   27  O7  UNL     1      12.363  12.796  -5.870  1.00  0.00    -0.195 OA
BRANCH  27  28
HETATM   28  P2  UNL     1      11.401  14.038  -5.606  1.00  0.00     0.401 P 
HETATM   29  O8  UNL     1      10.961  14.819  -6.802  1.00  0.00    -0.631 OA
BRANCH  28  30
HETATM   30  O9  UNL     1      10.201  13.402  -4.766  1.00  0.00    -0.307 OA
HETATM   31  H24 UNL     1      10.421  12.538  -4.340  1.00  0.00     0.222 HD
ENDBRANCH  28  30
BRANCH  28  32
HETATM   32  O10 UNL     1      12.148  14.870  -4.466  1.00  0.00    -0.294 OA
BRANCH  32  33
HETATM   33  C14 UNL     1      11.405  15.625  -3.546  1.00  0.00     0.215 C 
BRANCH  33  34
HETATM   34  C15 UNL     1      12.222  15.648  -2.255  1.00  0.00     0.180 C 
HETATM   35  C16 UNL     1      13.216  14.495  -2.253  1.00  0.00     0.197 C 
HETATM   36  C17 UNL     1      12.811  13.640  -1.067  1.00  0.00     0.199 C 
HETATM   37  C18 UNL     1      12.109  14.655  -0.162  1.00  0.00     0.262 C 
HETATM   38  O11 UNL     1      11.412  15.528  -1.079  1.00  0.00    -0.353 OA
BRANCH  35  39
HETATM   39  O13 UNL     1      14.523  15.039  -2.101  1.00  0.00    -0.286 OA
BRANCH  39  40
HETATM   40  P3  UNL     1      15.584  14.604  -3.215  1.00  0.00     0.391 P 
HETATM   41  O14 UNL     1      17.005  14.840  -2.818  1.00  0.00    -0.632 OA
BRANCH  40  42
HETATM   42  O15 UNL     1      15.028  15.402  -4.486  1.00  0.00    -0.307 OA
HETATM   43  H36 UNL     1      15.237  16.364  -4.412  1.00  0.00     0.222 HD
ENDBRANCH  40  42
BRANCH  40  44
HETATM   44  O16 UNL     1      15.139  13.106  -3.506  1.00  0.00    -0.307 OA
HETATM   45  H37 UNL     1      14.927  12.950  -4.440  1.00  0.00     0.222 HD
ENDBRANCH  40  44
ENDBRANCH  39  40
ENDBRANCH  35  39
BRANCH  36  46
HETATM   46  O12 UNL     1      13.951  12.962  -0.532  1.00  0.00    -0.388 OA
HETATM   47  H35 UNL     1      13.751  12.789   0.419  1.00  0.00     0.210 HD
ENDBRANCH  36  46
BRANCH  37  48
HETATM   48  N3  UNL     1      11.139  14.037   0.720  1.00  0.00    -0.297 N 
HETATM   49  C19 UNL     1      11.144  12.742   1.183  1.00  0.00     0.188 A 
HETATM   50  N4  UNL     1      10.196  12.526   2.069  1.00  0.00    -0.346 N 
HETATM   51  C20 UNL     1       9.548  13.743   2.190  1.00  0.00     0.116 A 
HETATM   52  H4  UNL     1       9.986  11.656   2.558  1.00  0.00     0.167 HD
HETATM   53  C21 UNL     1       8.485  14.179   2.999  1.00  0.00     0.109 A 
HETATM   54  C23 UNL     1      10.097  14.677   1.331  1.00  0.00     0.142 A 
HETATM   55  N5  UNL     1       8.059  15.460   2.876  1.00  0.00    -0.341 N 
HETATM   56  C22 UNL     1       8.675  16.254   1.977  1.00  0.00     0.183 A 
HETATM   57  H5  UNL     1       7.292  15.814   3.448  1.00  0.00     0.167 HD
HETATM   58  N6  UNL     1       9.703  15.951   1.159  1.00  0.00    -0.336 N 
HETATM   59  H6  UNL     1      10.126  16.602   0.497  1.00  0.00     0.168 HD
BRANCH  53  60
HETATM   60  N7  UNL     1       7.838  13.363   3.914  1.00  0.00    -0.287 NA
HETATM   61  H33 UNL     1       7.984  12.368   3.764  1.00  0.00     0.125 HD
HETATM   62  H34 UNL     1       6.891  13.661   4.108  1.00  0.00     0.125 HD
ENDBRANCH  53  60
ENDBRANCH  37  48
ENDBRANCH  33  34
ENDBRANCH  32  33
ENDBRANCH  28  32
ENDBRANCH  27  28
ENDBRANCH  23  27
ENDBRANCH  22  23
ENDBRANCH  21  22
ENDBRANCH  18  21
ENDBRANCH  17  18
BRANCH  17  63
HETATM   63  O17 UNL     1      15.414  10.229  -4.101  1.00  0.00    -0.385 OA
HETATM   64  H38 UNL     1      15.003  10.942  -4.618  1.00  0.00     0.210 HD
ENDBRANCH  17  63
ENDBRANCH  14  17
ENDBRANCH  12  13
ENDBRANCH  11  12
ENDBRANCH   8  11
ENDBRANCH   6   7
ENDBRANCH   5   6
ENDBRANCH   4   5
ENDBRANCH   2   4
TORSDOF 27
ENDMDL
MODEL 2
REMARK VINA RESULT:      -6.8      3.761      6.907
REMARK  27 active torsions:
REMARK  status: ('A' for Active; 'I' for Inactive)
REMARK    1  A    between atoms: C2_2  and  S1_4 
REMARK    2  A    between atoms: S1_4  and  C3_5 
REMARK    3  A    between atoms: C3_5  and  C4_6 
REMARK    4  A    between atoms: C4_6  and  N1_7 
REMARK       I    between atoms: N1_7  and  C5_8 
REMARK    5  A    between atoms: C5_8  and  C6_10 
REMARK    6  A    between atoms: C6_10  and  C7_11 
REMARK    7  A    between atoms: C7_11  and  N2_12 
REMARK       I    between atoms: N2_12  and  C8_13 
REMARK    8  A    between atoms: C8_13  and  C9_15 
REMARK    9  A    between atoms: C9_15  and  C10_16 
REMARK   10  A    between atoms: C9_15  and  O17_54 
REMARK   11  A    between atoms: C10_16  and  C13_19 
REMARK   12  A    between atoms: C13_19  and  O4_20 
REMARK   13  A    between atoms: O4_20  and  P1_21 
REMARK   14  A    between atoms: P1_21  and  O6_23 
REMARK   15  A    between atoms: P1_21  and  O7_24 
REMARK   16  A    between atoms: O7_24  and  P2_25 
REMARK   17  A    between atoms: P2_25  and  O9_27 
REMARK   18  A    between atoms: P2_25  and  O10_28 
REMARK   19  A    between atoms: O10_28  and  C14_29 
REMARK   20  A    between atoms: C14_29  and  C15_30 
REMARK   21  A    between atoms: C16_31  and  O13_49 
REMARK   22  A    between atoms: C17_32  and  O12_48 
REMARK   23  A    between atoms: C18_33  and  N3_35 
REMARK   24  A    between atoms: C21_40  and  N7_47 
REMARK   25  A    between atoms: O13_49  and  P3_50 
REMARK   26  A    between atoms: P3_50  and  O15_52 
REMARK   27  A    between atoms: P3_50  and  O16_53 
ROOT
HETATM    1  C1  UNL     1      11.085  12.878  -4.767  1.00  0.00     0.104 C 
HETATM    2  C2  UNL     1      10.791  13.626  -6.031  1.00  0.00     0.182 C 
HETATM    3  O1  UNL     1      11.194  13.269  -7.136  1.00  0.00    -0.286 OA
ENDROOT
BRANCH   2   4
HETATM    4  S1  UNL     1       9.849  15.094  -5.803  1.00  0.00    -0.091 SA
BRANCH   4   5
HETATM    5  C3  UNL     1       8.218  14.523  -6.379  1.00  0.00     0.102 C 
BRANCH   5   6
HETATM    6  C4  UNL     1       7.433  13.824  -5.267  1.00  0.00     0.133 C 
BRANCH   6   7
HETATM    7  N1  UNL     1       7.514  12.380  -5.347  1.00  0.00    -0.360 N 
HETATM    8  C5  UNL     1       6.558  11.637  -6.000  1.00  0.00     0.219 C 
HETATM    9  O2  UNL     1       5.547  12.136  -6.478  1.00  0.00    -0.274 OA
HETATM   10  H8  UNL     1       8.301  11.912  -4.917  1.00  0.00     0.162 HD
BRANCH   8  11
HETATM   11  C6  UNL     1       6.860  10.154  -6.015  1.00  0.00     0.122 C 
BRANCH  11  12
HETATM   12  C7  UNL     1       8.254   9.849  -5.469  1.00  0.00     0.132 C 
BRANCH  12  13
HETATM   13  N2  UNL     1       8.883   8.718  -6.117  1.00  0.00    -0.358 N 
HETATM   14  C8  UNL     1       8.997   7.510  -5.454  1.00  0.00     0.247 C 
HETATM   15  O3  UNL     1       8.688   7.381  -4.276  1.00  0.00    -0.271 OA
HETATM   16  H13 UNL     1       8.790   8.686  -7.130  1.00  0.00     0.162 HD
BRANCH  14  17
HETATM   17  C9  UNL     1       9.520   6.350  -6.314  1.00  0.00     0.219 C 
BRANCH  17  18
HETATM   18  C10 UNL     1      10.850   5.727  -5.813  1.00  0.00     0.009 C 
HETATM   19  C11 UNL     1      10.709   5.108  -4.415  1.00  0.00     0.020 C 
HETATM   20  C12 UNL     1      11.355   4.628  -6.770  1.00  0.00     0.020 C 
BRANCH  18  21
HETATM   21  C13 UNL     1      11.877   6.895  -5.767  1.00  0.00     0.192 C 
BRANCH  21  22
HETATM   22  O4  UNL     1      11.749   7.769  -6.870  1.00  0.00    -0.296 OA
BRANCH  22  23
HETATM   23  P1  UNL     1      13.009   8.427  -7.610  1.00  0.00     0.401 P 
HETATM   24  O5  UNL     1      13.225   7.933  -9.006  1.00  0.00    -0.631 OA
BRANCH  23  25
HETATM   25  O6  UNL     1      14.279   8.217  -6.643  1.00  0.00    -0.307 OA
HETATM   26  H23 UNL     1      14.014   8.007  -5.739  1.00  0.00     0.222 HD
ENDBRANCH  23  25
BRANCH  23  27
HETATM   27  O7  UNL     1      12.784   9.997  -7.488  1.00  0.00    -0.195 OA
BRANCH  27  28
HETATM   28  P2  UNL     1      14.030  10.971  -7.679  1.00  0.00     0.401 P 
HETATM   29  O8  UNL     1      15.300  10.356  -8.169  1.00  0.00    -0.631 OA
BRANCH  28  30
HETATM   30  O9  UNL     1      13.455  12.120  -8.626  1.00  0.00    -0.307 OA
HETATM   31  H24 UNL     1      13.564  11.940  -9.592  1.00  0.00     0.222 HD
ENDBRANCH  28  30
BRANCH  28  32
HETATM   32  O10 UNL     1      14.125  11.754  -6.291  1.00  0.00    -0.294 OA
BRANCH  32  33
HETATM   33  C14 UNL     1      14.525  13.100  -6.270  1.00  0.00     0.215 C 
BRANCH  33  34
HETATM   34  C15 UNL     1      15.154  13.336  -4.897  1.00  0.00     0.180 C 
HETATM   35  C16 UNL     1      15.002  12.087  -4.039  1.00  0.00     0.197 C 
HETATM   36  C17 UNL     1      14.150  12.529  -2.864  1.00  0.00     0.199 C 
HETATM   37  C18 UNL     1      14.437  14.032  -2.804  1.00  0.00     0.262 C 
HETATM   38  O11 UNL     1      14.555  14.427  -4.189  1.00  0.00    -0.353 OA
BRANCH  35  39
HETATM   39  O13 UNL     1      16.301  11.671  -3.632  1.00  0.00    -0.286 OA
BRANCH  39  40
HETATM   40  P3  UNL     1      16.642  10.130  -3.887  1.00  0.00     0.391 P 
HETATM   41  O14 UNL     1      17.891   9.911  -4.678  1.00  0.00    -0.632 OA
BRANCH  40  42
HETATM   42  O15 UNL     1      15.264   9.619  -4.520  1.00  0.00    -0.307 OA
HETATM   43  H36 UNL     1      14.501  10.113  -4.137  1.00  0.00     0.222 HD
ENDBRANCH  40  42
BRANCH  40  44
HETATM   44  O16 UNL     1      16.597   9.549  -2.407  1.00  0.00    -0.307 OA
HETATM   45  H37 UNL     1      16.914  10.183  -1.744  1.00  0.00     0.222 HD
ENDBRANCH  40  44
ENDBRANCH  39  40
ENDBRANCH  35  39
BRANCH  36  46
HETATM   46  O12 UNL     1      14.463  11.754  -1.704  1.00  0.00    -0.388 OA
HETATM   47  H35 UNL     1      13.758  11.948  -1.041  1.00  0.00     0.210 HD
ENDBRANCH  36  46
BRANCH  37  48
HETATM   48  N3  UNL     1      13.355  14.781  -2.196  1.00  0.00    -0.297 N 
HETATM   49  C19 UNL     1      12.409  15.544  -2.838  1.00  0.00     0.188 A 
HETATM   50  N4  UNL     1      11.487  15.993  -2.014  1.00  0.00    -0.346 N 
HETATM   51  C20 UNL     1      11.852  15.493  -0.777  1.00  0.00     0.116 A 
HETATM   52  H4  UNL     1      10.683  16.580  -2.237  1.00  0.00     0.167 HD
HETATM   53  C21 UNL     1      11.262  15.576   0.496  1.00  0.00     0.109 A 
HETATM   54  C23 UNL     1      13.029  14.772  -0.869  1.00  0.00     0.142 A 
HETATM   55  N5  UNL     1      11.882  14.972   1.539  1.00  0.00    -0.341 N 
HETATM   56  C22 UNL     1      13.040  14.323   1.305  1.00  0.00     0.183 A 
HETATM   57  H5  UNL     1      11.482  15.008   2.477  1.00  0.00     0.167 HD
HETATM   58  N6  UNL     1      13.692  14.170   0.134  1.00  0.00    -0.336 N 
HETATM   59  H6  UNL     1      14.571  13.664   0.024  1.00  0.00     0.168 HD
BRANCH  53  60
HETATM   60  N7  UNL     1      10.079  16.254   0.745  1.00  0.00    -0.287 NA
HETATM   61  H33 UNL     1       9.394  15.720   1.275  1.00  0.00     0.125 HD
HETATM   62  H34 UNL     1       9.738  16.761  -0.060  1.00  0.00     0.125 HD
ENDBRANCH  53  60
ENDBRANCH  37  48
ENDBRANCH  33  34
ENDBRANCH  32  33
ENDBRANCH  28  32
ENDBRANCH  27  28
ENDBRANCH  23  27
ENDBRANCH  22  23
ENDBRANCH  21  22
ENDBRANCH  18  21
ENDBRANCH  17  18
BRANCH  17  63
HETATM   63  O17 UNL     1       8.535   5.313  -6.395  1.00  0.00    -0.385 OA
HETATM   64  H38 UNL     1       8.847   4.650  -7.033  1.00  0.00     0.210 HD
ENDBRANCH  17  63
ENDBRANCH  14  17
ENDBRANCH  12  13
ENDBRANCH  11  12
ENDBRANCH   8  11
ENDBRANCH   6   7
ENDBRANCH   5   6
ENDBRANCH   4   5
ENDBRANCH   2   4
TORSDOF 27
ENDMDL
MODEL 3
REMARK VINA RESULT:      -6.5      4.838      9.245
REMARK  27 active torsions:
REMARK  status: ('A' for Active; 'I' for Inactive)
REMARK    1  A    between atoms: C2_2  and  S1_4 
REMARK    2  A    between atoms: S1_4  and  C3_5 
REMARK    3  A    between atoms: C3_5  and  C4_6 
REMARK    4  A    between atoms: C4_6  and  N1_7 
REMARK       I    between atoms: N1_7  and  C5_8 
REMARK    5  A    between atoms: C5_8  and  C6_10 
REMARK    6  A    between atoms: C6_10  and  C7_11 
REMARK    7  A    between atoms: C7_11  and  N2_12 
REMARK       I    between atoms: N2_12  and  C8_13 
REMARK    8  A    between atoms: C8_13  and  C9_15 
REMARK    9  A    between atoms: C9_15  and  C10_16 
REMARK   10  A    between atoms: C9_15  and  O17_54 
REMARK   11  A    between atoms: C10_16  and  C13_19 
REMARK   12  A    between atoms: C13_19  and  O4_20 
REMARK   13  A    between atoms: O4_20  and  P1_21 
REMARK   14  A    between atoms: P1_21  and  O6_23 
REMARK   15  A    between atoms: P1_21  and  O7_24 
REMARK   16  A    between atoms: O7_24  and  P2_25 
REMARK   17  A    between atoms: P2_25  and  O9_27 
REMARK   18  A    between atoms: P2_25  and  O10_28 
REMARK   19  A    between atoms: O10_28  and  C14_29 
REMARK   20  A    between atoms: C14_29  and  C15_30 
REMARK   21  A    between atoms: C16_31  and  O13_49 
REMARK   22  A    between atoms: C17_32  and  O12_48 
REMARK   23  A    between atoms: C18_33  and  N3_35 
REMARK   24  A    between atoms: C21_40  and  N7_47 
REMARK   25  A    between atoms: O13_49  and  P3_50 
REMARK   26  A    between atoms: P3_50  and  O15_52 
REMARK   27  A    between atoms: P3_50  and  O16_53 
ROOT
HETATM    1  C1  UNL     1      11.345  13.695  -4.388  1.00  0.00     0.104 C 
HETATM    2  C2  UNL     1      10.248  13.575  -5.401  1.00  0.00     0.182 C 
HETATM    3  O1  UNL     1      10.024  12.546  -6.033  1.00  0.00    -0.286 OA
ENDROOT
BRANCH   2   4
HETATM    4  S1  UNL     1       9.321  15.049  -5.644  1.00  0.00    -0.091 SA
BRANCH   4   5
HETATM    5  C3  UNL     1       7.965  14.411  -6.680  1.00  0.00     0.102 C 
BRANCH   5   6
HETATM    6  C4  UNL     1       6.857  13.772  -5.840  1.00  0.00     0.133 C 
BRANCH   6   7
HETATM    7  N1  UNL     1       6.826  12.329  -5.959  1.00  0.00    -0.360 N 
HETATM    8  C5  UNL     1       5.925  11.689  -6.777  1.00  0.00     0.219 C 
HETATM    9  O2  UNL     1       5.048  12.288  -7.389  1.00  0.00    -0.274 OA
HETATM   10  H8  UNL     1       7.492  11.783  -5.429  1.00  0.00     0.162 HD
BRANCH   8  11
HETATM   11  C6  UNL     1       6.097  10.186  -6.799  1.00  0.00     0.122 C 
BRANCH  11  12
HETATM   12  C7  UNL     1       7.249   9.730  -5.903  1.00  0.00     0.132 C 
BRANCH  12  13
HETATM   13  N2  UNL     1       7.940   8.566  -6.415  1.00  0.00    -0.358 N 
HETATM   14  C8  UNL     1       8.389   7.586  -5.550  1.00  0.00     0.247 C 
HETATM   15  O3  UNL     1       8.331   7.714  -4.333  1.00  0.00    -0.271 OA
HETATM   16  H13 UNL     1       7.669   8.272  -7.351  1.00  0.00     0.162 HD
BRANCH  14  17
HETATM   17  C9  UNL     1       8.944   6.327  -6.234  1.00  0.00     0.219 C 
BRANCH  17  18
HETATM   18  C10 UNL     1      10.437   6.035  -5.928  1.00  0.00     0.009 C 
HETATM   19  C11 UNL     1      10.631   5.420  -4.534  1.00  0.00     0.020 C 
HETATM   20  C12 UNL     1      11.047   5.067  -6.963  1.00  0.00     0.020 C 
BRANCH  18  21
HETATM   21  C13 UNL     1      11.165   7.408  -6.000  1.00  0.00     0.192 C 
BRANCH  21  22
HETATM   22  O4  UNL     1      12.528   7.276  -6.348  1.00  0.00    -0.296 OA
BRANCH  22  23
HETATM   23  P1  UNL     1      13.233   8.186  -7.465  1.00  0.00     0.401 P 
HETATM   24  O5  UNL     1      12.994   7.727  -8.869  1.00  0.00    -0.631 OA
BRANCH  23  25
HETATM   25  O6  UNL     1      14.791   8.284  -7.070  1.00  0.00    -0.307 OA
HETATM   26  H23 UNL     1      15.021   7.677  -6.355  1.00  0.00     0.222 HD
ENDBRANCH  23  25
BRANCH  23  27
HETATM   27  O7  UNL     1      12.743   9.668  -7.157  1.00  0.00    -0.195 OA
BRANCH  27  28
HETATM   28  P2  UNL     1      13.627  10.892  -7.663  1.00  0.00     0.401 P 
HETATM   29  O8  UNL     1      14.291  10.743  -8.993  1.00  0.00    -0.631 OA
BRANCH  28  30
HETATM   30  O9  UNL     1      12.624  12.131  -7.572  1.00  0.00    -0.307 OA
HETATM   31  H24 UNL     1      11.978  12.073  -6.826  1.00  0.00     0.222 HD
ENDBRANCH  28  30
BRANCH  28  32
HETATM   32  O10 UNL     1      14.594  11.205  -6.432  1.00  0.00    -0.294 OA
BRANCH  32  33
HETATM   33  C14 UNL     1      14.061  11.676  -5.222  1.00  0.00     0.215 C 
BRANCH  33  34
HETATM   34  C15 UNL     1      14.851  10.986  -4.111  1.00  0.00     0.180 C 
HETATM   35  C16 UNL     1      15.758  11.996  -3.420  1.00  0.00     0.197 C 
HETATM   36  C17 UNL     1      17.164  11.486  -3.674  1.00  0.00     0.199 C 
HETATM   37  C18 UNL     1      16.931   9.987  -3.882  1.00  0.00     0.262 C 
HETATM   38  O11 UNL     1      15.674   9.917  -4.591  1.00  0.00    -0.353 OA
BRANCH  35  39
HETATM   39  O13 UNL     1      15.432  12.007  -2.034  1.00  0.00    -0.286 OA
BRANCH  39  40
HETATM   40  P3  UNL     1      14.675  13.315  -1.515  1.00  0.00     0.391 P 
HETATM   41  O14 UNL     1      13.220  13.104  -1.249  1.00  0.00    -0.632 OA
BRANCH  40  42
HETATM   42  O15 UNL     1      15.075  14.365  -2.654  1.00  0.00    -0.307 OA
HETATM   43  H36 UNL     1      14.575  14.184  -3.485  1.00  0.00     0.222 HD
ENDBRANCH  40  42
BRANCH  40  44
HETATM   44  O16 UNL     1      15.593  13.745  -0.289  1.00  0.00    -0.307 OA
HETATM   45  H37 UNL     1      15.560  13.112   0.446  1.00  0.00     0.222 HD
ENDBRANCH  40  44
ENDBRANCH  39  40
ENDBRANCH  35  39
BRANCH  36  46
HETATM   46  O12 UNL     1      18.032  11.873  -2.605  1.00  0.00    -0.388 OA
HETATM   47  H35 UNL     1      18.032  11.125  -1.962  1.00  0.00     0.210 HD
ENDBRANCH  36  46
BRANCH  37  48
HETATM   48  N3  UNL     1      17.960   9.372  -4.695  1.00  0.00    -0.297 N 
HETATM   49  C19 UNL     1      18.945   8.508  -4.276  1.00  0.00     0.188 A 
HETATM   50  N4  UNL     1      19.645   8.026  -5.280  1.00  0.00    -0.346 N 
HETATM   51  C20 UNL     1      19.083   8.602  -6.405  1.00  0.00     0.116 A 
HETATM   52  H4  UNL     1      20.427   7.373  -5.238  1.00  0.00     0.167 HD
HETATM   53  C21 UNL     1      19.348   8.463  -7.779  1.00  0.00     0.109 A 
HETATM   54  C23 UNL     1      18.064   9.468  -6.055  1.00  0.00     0.142 A 
HETATM   55  N5  UNL     1      18.613   9.189  -8.658  1.00  0.00    -0.341 N 
HETATM   56  C22 UNL     1      17.666  10.013  -8.169  1.00  0.00     0.183 A 
HETATM   57  H5  UNL     1      18.774   9.112  -9.662  1.00  0.00     0.167 HD
HETATM   58  N6  UNL     1      17.318  10.221  -6.882  1.00  0.00    -0.336 N 
HETATM   59  H6  UNL     1      16.587  10.864  -6.577  1.00  0.00     0.168 HD
BRANCH  53  60
HETATM   60  N7  UNL     1      20.331   7.628  -8.286  1.00  0.00    -0.287 NA
HETATM   61  H33 UNL     1      20.847   7.111  -7.578  1.00  0.00     0.125 HD
HETATM   62  H34 UNL     1      20.874   8.060  -9.021  1.00  0.00     0.125 HD
ENDBRANCH  53  60
ENDBRANCH  37  48
ENDBRANCH  33  34
ENDBRANCH  32  33
ENDBRANCH  28  32
ENDBRANCH  27  28
ENDBRANCH  23  27
ENDBRANCH  22  23
ENDBRANCH  21  22
ENDBRANCH  18  21
ENDBRANCH  17  18
BRANCH  17  63
HETATM   63  O17 UNL     1       8.171   5.182  -5.861  1.00  0.00    -0.385 OA
HETATM   64  H38 UNL     1       7.292   5.266  -6.267  1.00  0.00     0.210 HD
ENDBRANCH  17  63
ENDBRANCH  14  17
ENDBRANCH  12  13
ENDBRANCH  11  12
ENDBRANCH   8  11
ENDBRANCH   6   7
ENDBRANCH   5   6
ENDBRANCH   4   5
ENDBRANCH   2   4
TORSDOF 27
ENDMDL
MODEL 4
REMARK VINA RESULT:      -6.4      4.863      7.215
REMARK  27 active torsions:
REMARK  status: ('A' for Active; 'I' for Inactive)
REMARK    1  A    between atoms: C2_2  and  S1_4 
REMARK    2  A    between atoms: S1_4  and  C3_5 
REMARK    3  A    between atoms: C3_5  and  C4_6 
REMARK    4  A    between atoms: C4_6  and  N1_7 
REMARK       I    between atoms: N1_7  and  C5_8 
REMARK    5  A    between atoms: C5_8  and  C6_10 
REMARK    6  A    between atoms: C6_10  and  C7_11 
REMARK    7  A    between atoms: C7_11  and  N2_12 
REMARK       I    between atoms: N2_12  and  C8_13 
REMARK    8  A    between atoms: C8_13  and  C9_15 
REMARK    9  A    between atoms: C9_15  and  C10_16 
REMARK   10  A    between atoms: C9_15  and  O17_54 
REMARK   11  A    between atoms: C10_16  and  C13_19 
REMARK   12  A    between atoms: C13_19  and  O4_20 
REMARK   13  A    between atoms: O4_20  and  P1_21 
REMARK   14  A    between atoms: P1_21  and  O6_23 
REMARK   15  A    between atoms: P1_21  and  O7_24 
REMARK   16  A    between atoms: O7_24  and  P2_25 
REMARK   17  A    between atoms: P2_25  and  O9_27 
REMARK   18  A    between atoms: P2_25  and  O10_28 
REMARK   19  A    between atoms: O10_28  and  C14_29 
REMARK   20  A    between atoms: C14_29  and  C15_30 
REMARK   21  A    between atoms: C16_31  and  O13_49 
REMARK   22  A    between atoms: C17_32  and  O12_48 
REMARK   23  A    between atoms: C18_33  and  N3_35 
REMARK   24  A    between atoms: C21_40  and  N7_47 
REMARK   25  A    between atoms: O13_49  and  P3_50 
REMARK   26  A    between atoms: P3_50  and  O15_52 
REMARK   27  A    between atoms: P3_50  and  O16_53 
ROOT
HETATM    1  C1  UNL     1      12.459   0.466  -1.030  1.00  0.00     0.104 C 
HETATM    2  C2  UNL     1      12.159   0.841  -2.449  1.00  0.00     0.182 C 
HETATM    3  O1  UNL     1      12.887   0.544  -3.394  1.00  0.00    -0.286 OA
ENDROOT
BRANCH   2   4
HETATM    4  S1  UNL     1      10.689   1.784  -2.655  1.00  0.00    -0.091 SA
BRANCH   4   5
HETATM    5  C3  UNL     1      11.403   3.425  -2.998  1.00  0.00     0.102 C 
BRANCH   5   6
HETATM    6  C4  UNL     1      11.578   3.668  -4.499  1.00  0.00     0.133 C 
BRANCH   6   7
HETATM    7  N1  UNL     1      12.551   4.701  -4.789  1.00  0.00    -0.360 N 
HETATM    8  C5  UNL     1      12.170   5.979  -5.127  1.00  0.00     0.219 C 
HETATM    9  O2  UNL     1      10.997   6.299  -5.282  1.00  0.00    -0.274 OA
HETATM   10  H8  UNL     1      13.534   4.473  -4.732  1.00  0.00     0.162 HD
BRANCH   8  11
HETATM   11  C6  UNL     1      13.339   6.917  -5.335  1.00  0.00     0.122 C 
BRANCH  11  12
HETATM   12  C7  UNL     1      14.673   6.250  -4.999  1.00  0.00     0.132 C 
BRANCH  12  13
HETATM   13  N2  UNL     1      15.468   7.012  -4.059  1.00  0.00    -0.358 N 
HETATM   14  C8  UNL     1      16.640   7.620  -4.469  1.00  0.00     0.247 C 
HETATM   15  O3  UNL     1      17.108   7.445  -5.587  1.00  0.00    -0.271 OA
HETATM   16  H13 UNL     1      14.947   7.463  -3.310  1.00  0.00     0.162 HD
BRANCH  14  17
HETATM   17  C9  UNL     1      17.289   8.539  -3.424  1.00  0.00     0.219 C 
BRANCH  17  18
HETATM   18  C10 UNL     1      17.117  10.055  -3.706  1.00  0.00     0.009 C 
HETATM   19  C11 UNL     1      18.277  10.624  -4.537  1.00  0.00     0.020 C 
HETATM   20  C12 UNL     1      15.804  10.344  -4.461  1.00  0.00     0.020 C 
BRANCH  18  21
HETATM   21  C13 UNL     1      17.085  10.747  -2.313  1.00  0.00     0.192 C 
BRANCH  21  22
HETATM   22  O4  UNL     1      16.760  12.119  -2.401  1.00  0.00    -0.296 OA
BRANCH  22  23
HETATM   23  P1  UNL     1      15.564  12.786  -1.566  1.00  0.00     0.401 P 
HETATM   24  O5  UNL     1      15.871  12.996  -0.117  1.00  0.00    -0.631 OA
BRANCH  23  25
HETATM   25  O6  UNL     1      14.255  11.886  -1.829  1.00  0.00    -0.307 OA
HETATM   26  H23 UNL     1      13.489  12.210  -1.339  1.00  0.00     0.222 HD
ENDBRANCH  23  25
BRANCH  23  27
HETATM   27  O7  UNL     1      15.193  14.111  -2.366  1.00  0.00    -0.195 OA
BRANCH  27  28
HETATM   28  P2  UNL     1      13.665  14.398  -2.714  1.00  0.00     0.401 P 
HETATM   29  O8  UNL     1      12.658  14.069  -1.661  1.00  0.00    -0.631 OA
BRANCH  28  30
HETATM   30  O9  UNL     1      13.672  15.934  -3.151  1.00  0.00    -0.307 OA
HETATM   31  H24 UNL     1      14.276  16.135  -3.907  1.00  0.00     0.222 HD
ENDBRANCH  28  30
BRANCH  28  32
HETATM   32  O10 UNL     1      13.452  13.690  -4.129  1.00  0.00    -0.294 OA
BRANCH  32  33
HETATM   33  C14 UNL     1      14.089  14.199  -5.272  1.00  0.00     0.215 C 
BRANCH  33  34
HETATM   34  C15 UNL     1      13.455  13.487  -6.466  1.00  0.00     0.180 C 
HETATM   35  C16 UNL     1      12.330  12.579  -5.987  1.00  0.00     0.197 C 
HETATM   36  C17 UNL     1      12.772  11.181  -6.378  1.00  0.00     0.199 C 
HETATM   37  C18 UNL     1      13.709  11.456  -7.556  1.00  0.00     0.262 C 
HETATM   38  O11 UNL     1      14.387  12.680  -7.194  1.00  0.00    -0.353 OA
BRANCH  35  39
HETATM   39  O13 UNL     1      11.134  12.969  -6.654  1.00  0.00    -0.286 OA
BRANCH  39  40
HETATM   40  P3  UNL     1       9.936  13.436  -5.703  1.00  0.00     0.391 P 
HETATM   41  O14 UNL     1      10.323  14.494  -4.721  1.00  0.00    -0.632 OA
BRANCH  40  42
HETATM   42  O15 UNL     1       9.451  12.027  -5.120  1.00  0.00    -0.307 OA
HETATM   43  H36 UNL     1      10.224  11.473  -4.857  1.00  0.00     0.222 HD
ENDBRANCH  40  42
BRANCH  40  44
HETATM   44  O16 UNL     1       8.810  13.794  -6.767  1.00  0.00    -0.307 OA
HETATM   45  H37 UNL     1       8.699  14.750  -6.889  1.00  0.00     0.222 HD
ENDBRANCH  40  44
ENDBRANCH  39  40
ENDBRANCH  35  39
BRANCH  36  46
HETATM   46  O12 UNL     1      11.633  10.352  -6.624  1.00  0.00    -0.388 OA
HETATM   47  H35 UNL     1      11.609  10.195  -7.598  1.00  0.00     0.210 HD
ENDBRANCH  36  46
BRANCH  37  48
HETATM   48  N3  UNL     1      14.697  10.412  -7.737  1.00  0.00    -0.297 N 
HETATM   49  C19 UNL     1      14.470   9.058  -7.824  1.00  0.00     0.188 A 
HETATM   50  N4  UNL     1      15.562   8.386  -8.115  1.00  0.00    -0.346 N 
HETATM   51  C20 UNL     1      16.546   9.353  -8.227  1.00  0.00     0.116 A 
HETATM   52  H4  UNL     1      15.662   7.378  -8.232  1.00  0.00     0.167 HD
HETATM   53  C21 UNL     1      17.911   9.289  -8.558  1.00  0.00     0.109 A 
HETATM   54  C23 UNL     1      16.032  10.608  -7.956  1.00  0.00     0.142 A 
HETATM   55  N5  UNL     1      18.629  10.438  -8.573  1.00  0.00    -0.341 N 
HETATM   56  C22 UNL     1      17.999  11.589  -8.264  1.00  0.00     0.183 A 
HETATM   57  H5  UNL     1      19.621  10.432  -8.812  1.00  0.00     0.167 HD
HETATM   58  N6  UNL     1      16.703  11.773  -7.941  1.00  0.00    -0.336 N 
HETATM   59  H6  UNL     1      16.286  12.677  -7.716  1.00  0.00     0.168 HD
BRANCH  53  60
HETATM   60  N7  UNL     1      18.567   8.107  -8.862  1.00  0.00    -0.287 NA
HETATM   61  H33 UNL     1      18.685   7.938  -9.859  1.00  0.00     0.125 HD
HETATM   62  H34 UNL     1      18.253   7.326  -8.301  1.00  0.00     0.125 HD
ENDBRANCH  53  60
ENDBRANCH  37  48
ENDBRANCH  33  34
ENDBRANCH  32  33
ENDBRANCH  28  32
ENDBRANCH  27  28
ENDBRANCH  23  27
ENDBRANCH  22  23
ENDBRANCH  21  22
ENDBRANCH  18  21
ENDBRANCH  17  18
BRANCH  17  63
HETATM   63  O17 UNL     1      16.762   8.256  -2.123  1.00  0.00    -0.385 OA
HETATM   64  H38 UNL     1      15.942   8.766  -2.013  1.00  0.00     0.210 HD
ENDBRANCH  17  63
ENDBRANCH  14  17
ENDBRANCH  12  13
ENDBRANCH  11  12
ENDBRANCH   8  11
ENDBRANCH   6   7
ENDBRANCH   5   6
ENDBRANCH   4   5
ENDBRANCH   2   4
TORSDOF 27
ENDMDL
MODEL 5
REMARK VINA RESULT:      -6.3      3.828     10.026
REMARK  27 active torsions:
REMARK  status: ('A' for Active; 'I' for Inactive)
REMARK    1  A    between atoms: C2_2  and  S1_4 
REMARK    2  A    between atoms: S1_4  and  C3_5 
REMARK    3  A    between atoms: C3_5  and  C4_6 
REMARK    4  A    between atoms: C4_6  and  N1_7 
REMARK       I    between atoms: N1_7  and  C5_8 
REMARK    5  A    between atoms: C5_8  and  C6_10 
REMARK    6  A    between atoms: C6_10  and  C7_11 
REMARK    7  A    between atoms: C7_11  and  N2_12 
REMARK       I    between atoms: N2_12  and  C8_13 
REMARK    8  A    between atoms: C8_13  and  C9_15 
REMARK    9  A    between atoms: C9_15  and  C10_16 
REMARK   10  A    between atoms: C9_15  and  O17_54 
REMARK   11  A    between atoms: C10_16  and  C13_19 
REMARK   12  A    between atoms: C13_19  and  O4_20 
REMARK   13  A    between atoms: O4_20  and  P1_21 
REMARK   14  A    between atoms: P1_21  and  O6_23 
REMARK   15  A    between atoms: P1_21  and  O7_24 
REMARK   16  A    between atoms: O7_24  and  P2_25 
REMARK   17  A    between atoms: P2_25  and  O9_27 
REMARK   18  A    between atoms: P2_25  and  O10_28 
REMARK   19  A    between atoms: O10_28  and  C14_29 
REMARK   20  A    between atoms: C14_29  and  C15_30 
REMARK   21  A    between atoms: C16_31  and  O13_49 
REMARK   22  A    between atoms: C17_32  and  O12_48 
REMARK   23  A    between atoms: C18_33  and  N3_35 
REMARK   24  A    between atoms: C21_40  and  N7_47 
REMARK   25  A    between atoms: O13_49  and  P3_50 
REMARK   26  A    between atoms: P3_50  and  O15_52 
REMARK   27  A    between atoms: P3_50  and  O16_53 
ROOT
HETATM    1  C1  UNL     1       9.539  16.254   1.391  1.00  0.00     0.104 C 
HETATM    2  C2  UNL     1       8.815  15.599   2.528  1.00  0.00     0.182 C 
HETATM    3  O1  UNL     1       7.592  15.491   2.576  1.00  0.00    -0.286 OA
ENDROOT
BRANCH   2   4
HETATM    4  S1  UNL     1       9.861  15.027   3.821  1.00  0.00    -0.091 SA
BRANCH   4   5
HETATM    5  C3  UNL     1       9.837  13.236   3.487  1.00  0.00     0.102 C 
BRANCH   5   6
HETATM    6  C4  UNL     1      10.698  12.870   2.277  1.00  0.00     0.133 C 
BRANCH   6   7
HETATM    7  N1  UNL     1      12.032  12.443   2.647  1.00  0.00    -0.360 N 
HETATM    8  C5  UNL     1      13.120  13.274   2.517  1.00  0.00     0.219 C 
HETATM    9  O2  UNL     1      13.044  14.387   2.010  1.00  0.00    -0.274 OA
HETATM   10  H8  UNL     1      12.159  11.511   3.017  1.00  0.00     0.162 HD
BRANCH   8  11
HETATM   11  C6  UNL     1      14.409  12.655   3.012  1.00  0.00     0.122 C 
BRANCH  11  12
HETATM   12  C7  UNL     1      15.557  12.858   2.022  1.00  0.00     0.132 C 
BRANCH  12  13
HETATM   13  N2  UNL     1      15.200  12.515   0.661  1.00  0.00    -0.358 N 
HETATM   14  C8  UNL     1      15.519  13.369  -0.378  1.00  0.00     0.247 C 
HETATM   15  O3  UNL     1      15.999  14.479  -0.186  1.00  0.00    -0.271 OA
HETATM   16  H13 UNL     1      15.169  11.519   0.454  1.00  0.00     0.162 HD
BRANCH  14  17
HETATM   17  C9  UNL     1      15.245  12.807  -1.781  1.00  0.00     0.219 C 
BRANCH  17  18
HETATM   18  C10 UNL     1      16.516  12.398  -2.570  1.00  0.00     0.009 C 
HETATM   19  C11 UNL     1      17.192  13.602  -3.242  1.00  0.00     0.020 C 
HETATM   20  C12 UNL     1      17.555  11.719  -1.655  1.00  0.00     0.020 C 
BRANCH  18  21
HETATM   21  C13 UNL     1      16.039  11.393  -3.657  1.00  0.00     0.192 C 
BRANCH  21  22
HETATM   22  O4  UNL     1      16.318  11.844  -4.967  1.00  0.00    -0.296 OA
BRANCH  22  23
HETATM   23  P1  UNL     1      15.185  12.015  -6.089  1.00  0.00     0.401 P 
HETATM   24  O5  UNL     1      15.719  12.171  -7.479  1.00  0.00    -0.631 OA
BRANCH  23  25
HETATM   25  O6  UNL     1      14.241  13.230  -5.616  1.00  0.00    -0.307 OA
HETATM   26  H23 UNL     1      14.379  13.454  -4.687  1.00  0.00     0.222 HD
ENDBRANCH  23  25
BRANCH  23  27
HETATM   27  O7  UNL     1      14.214  10.772  -5.886  1.00  0.00    -0.195 OA
BRANCH  27  28
HETATM   28  P2  UNL     1      12.866  10.701  -6.731  1.00  0.00     0.401 P 
HETATM   29  O8  UNL     1      11.906  11.835  -6.570  1.00  0.00    -0.631 OA
BRANCH  28  30
HETATM   30  O9  UNL     1      13.382  10.493  -8.228  1.00  0.00    -0.307 OA
HETATM   31  H24 UNL     1      14.354  10.327  -8.300  1.00  0.00     0.222 HD
ENDBRANCH  28  30
BRANCH  28  32
HETATM   32  O10 UNL     1      12.287   9.247  -6.415  1.00  0.00    -0.294 OA
BRANCH  32  33
HETATM   33  C14 UNL     1      12.278   8.262  -7.414  1.00  0.00     0.215 C 
BRANCH  33  34
HETATM   34  C15 UNL     1      13.340   7.239  -7.013  1.00  0.00     0.180 C 
HETATM   35  C16 UNL     1      13.291   7.007  -5.509  1.00  0.00     0.197 C 
HETATM   36  C17 UNL     1      14.648   7.458  -5.006  1.00  0.00     0.199 C 
HETATM   37  C18 UNL     1      15.528   7.281  -6.246  1.00  0.00     0.262 C 
HETATM   38  O11 UNL     1      14.670   7.653  -7.347  1.00  0.00    -0.353 OA
BRANCH  35  39
HETATM   39  O13 UNL     1      13.069   5.618  -5.284  1.00  0.00    -0.286 OA
BRANCH  39  40
HETATM   40  P3  UNL     1      11.611   5.229  -4.758  1.00  0.00     0.391 P 
HETATM   41  O14 UNL     1      10.569   6.260  -5.052  1.00  0.00    -0.632 OA
BRANCH  40  42
HETATM   42  O15 UNL     1      11.922   4.909  -3.222  1.00  0.00    -0.307 OA
HETATM   43  H36 UNL     1      11.474   4.076  -2.941  1.00  0.00     0.222 HD
ENDBRANCH  40  42
BRANCH  40  44
HETATM   44  O16 UNL     1      11.419   3.786  -5.397  1.00  0.00    -0.307 OA
HETATM   45  H37 UNL     1      10.504   3.469  -5.342  1.00  0.00     0.222 HD
ENDBRANCH  40  44
ENDBRANCH  39  40
ENDBRANCH  35  39
BRANCH  36  46
HETATM   46  O12 UNL     1      15.012   6.725  -3.833  1.00  0.00    -0.388 OA
HETATM   47  H35 UNL     1      14.462   5.905  -3.837  1.00  0.00     0.210 HD
ENDBRANCH  36  46
BRANCH  37  48
HETATM   48  N3  UNL     1      16.683   8.157  -6.239  1.00  0.00    -0.297 N 
HETATM   49  C19 UNL     1      17.038   9.071  -7.203  1.00  0.00     0.188 A 
HETATM   50  N4  UNL     1      18.071   9.801  -6.841  1.00  0.00    -0.346 N 
HETATM   51  C20 UNL     1      18.398   9.340  -5.577  1.00  0.00     0.116 A 
HETATM   52  H4  UNL     1      18.529  10.541  -7.372  1.00  0.00     0.167 HD
HETATM   53  C21 UNL     1      19.372   9.732  -4.643  1.00  0.00     0.109 A 
HETATM   54  C23 UNL     1      17.571   8.295  -5.209  1.00  0.00     0.142 A 
HETATM   55  N5  UNL     1      19.451   9.062  -3.467  1.00  0.00    -0.341 N 
HETATM   56  C22 UNL     1      18.591   8.046  -3.254  1.00  0.00     0.183 A 
HETATM   57  H5  UNL     1      20.142   9.320  -2.763  1.00  0.00     0.167 HD
HETATM   58  N6  UNL     1      17.616   7.588  -4.066  1.00  0.00    -0.336 N 
HETATM   59  H6  UNL     1      16.996   6.809  -3.843  1.00  0.00     0.168 HD
BRANCH  53  60
HETATM   60  N7  UNL     1      20.268  10.767  -4.864  1.00  0.00    -0.287 NA
HETATM   61  H33 UNL     1      19.894  11.533  -5.420  1.00  0.00     0.125 HD
HETATM   62  H34 UNL     1      21.195  10.441  -5.101  1.00  0.00     0.125 HD
ENDBRANCH  53  60
ENDBRANCH  37  48
ENDBRANCH  33  34
ENDBRANCH  32  33
ENDBRANCH  28  32
ENDBRANCH  27  28
ENDBRANCH  23  27
ENDBRANCH  22  23
ENDBRANCH  21  22
ENDBRANCH  18  21
ENDBRANCH  17  18
BRANCH  17  63
HETATM   63  O17 UNL     1      14.378  11.670  -1.695  1.00  0.00    -0.385 OA
HETATM   64  H38 UNL     1      14.709  11.090  -0.989  1.00  0.00     0.210 HD
ENDBRANCH  17  63
ENDBRANCH  14  17
ENDBRANCH  12  13
ENDBRANCH  11  12
ENDBRANCH   8  11
ENDBRANCH   6   7
ENDBRANCH   5   6
ENDBRANCH   4   5
ENDBRANCH   2   4
TORSDOF 27
ENDMDL
MODEL 6
REMARK VINA RESULT:      -6.3      3.918      9.382
REMARK  27 active torsions:
REMARK  status: ('A' for Active; 'I' for Inactive)
REMARK    1  A    between atoms: C2_2  and  S1_4 
REMARK    2  A    between atoms: S1_4  and  C3_5 
REMARK    3  A    between atoms: C3_5  and  C4_6 
REMARK    4  A    between atoms: C4_6  and  N1_7 
REMARK       I    between atoms: N1_7  and  C5_8 
REMARK    5  A    between atoms: C5_8  and  C6_10 
REMARK    6  A    between atoms: C6_10  and  C7_11 
REMARK    7  A    between atoms: C7_11  and  N2_12 
REMARK       I    between atoms: N2_12  and  C8_13 
REMARK    8  A    between atoms: C8_13  and  C9_15 
REMARK    9  A    between atoms: C9_15  and  C10_16 
REMARK   10  A    between atoms: C9_15  and  O17_54 
REMARK   11  A    between atoms: C10_16  and  C13_19 
REMARK   12  A    between atoms: C13_19  and  O4_20 
REMARK   13  A    between atoms: O4_20  and  P1_21 
REMARK   14  A    between atoms: P1_21  and  O6_23 
REMARK   15  A    between atoms: P1_21  and  O7_24 
REMARK   16  A    between atoms: O7_24  and  P2_25 
REMARK   17  A    between atoms: P2_25  and  O9_27 
REMARK   18  A    between atoms: P2_25  and  O10_28 
REMARK   19  A    between atoms: O10_28  and  C14_29 
REMARK   20  A    between atoms: C14_29  and  C15_30 
REMARK   21  A    between atoms: C16_31  and  O13_49 
REMARK   22  A    between atoms: C17_32  and  O12_48 
REMARK   23  A    between atoms: C18_33  and  N3_35 
REMARK   24  A    between atoms: C21_40  and  N7_47 
REMARK   25  A    between atoms: O13_49  and  P3_50 
REMARK   26  A    between atoms: P3_50  and  O15_52 
REMARK   27  A    between atoms: P3_50  and  O16_53 
ROOT
HETATM    1  C1  UNL     1      13.397  13.052  -3.247  1.00  0.00     0.104 C 
HETATM    2  C2  UNL     1      12.360  13.475  -4.242  1.00  0.00     0.182 C 
HETATM    3  O1  UNL     1      11.993  12.766  -5.177  1.00  0.00    -0.286 OA
ENDROOT
BRANCH   2   4
HETATM    4  S1  UNL     1      11.732  15.098  -3.989  1.00  0.00    -0.091 SA
BRANCH   4   5
HETATM    5  C3  UNL     1      12.608  15.549  -2.457  1.00  0.00     0.102 C 
BRANCH   5   6
HETATM    6  C4  UNL     1      11.670  15.568  -1.248  1.00  0.00     0.133 C 
BRANCH   6   7
HETATM    7  N1  UNL     1      12.379  15.471   0.011  1.00  0.00    -0.360 N 
HETATM    8  C5  UNL     1      12.656  14.256   0.594  1.00  0.00     0.219 C 
HETATM    9  O2  UNL     1      12.254  13.195   0.132  1.00  0.00    -0.274 OA
HETATM   10  H8  UNL     1      12.683  16.322   0.465  1.00  0.00     0.162 HD
BRANCH   8  11
HETATM   11  C6  UNL     1      13.452  14.374   1.876  1.00  0.00     0.122 C 
BRANCH  11  12
HETATM   12  C7  UNL     1      14.955  14.261   1.627  1.00  0.00     0.132 C 
BRANCH  12  13
HETATM   13  N2  UNL     1      15.275  13.730   0.318  1.00  0.00    -0.358 N 
HETATM   14  C8  UNL     1      16.085  12.615   0.197  1.00  0.00     0.247 C 
HETATM   15  O3  UNL     1      16.651  12.113   1.160  1.00  0.00    -0.271 OA
HETATM   16  H13 UNL     1      14.564  13.868  -0.396  1.00  0.00     0.162 HD
BRANCH  14  17
HETATM   17  C9  UNL     1      16.199  12.054  -1.228  1.00  0.00     0.219 C 
BRANCH  17  18
HETATM   18  C10 UNL     1      17.516  12.420  -1.960  1.00  0.00     0.009 C 
HETATM   19  C11 UNL     1      17.536  13.887  -2.414  1.00  0.00     0.020 C 
HETATM   20  C12 UNL     1      18.747  12.184  -1.062  1.00  0.00     0.020 C 
BRANCH  18  21
HETATM   21  C13 UNL     1      17.587  11.488  -3.203  1.00  0.00     0.192 C 
BRANCH  21  22
HETATM   22  O4  UNL     1      18.228  10.261  -2.920  1.00  0.00    -0.296 OA
BRANCH  22  23
HETATM   23  P1  UNL     1      18.834   9.311  -4.061  1.00  0.00     0.401 P 
HETATM   24  O5  UNL     1      19.353   8.002  -3.556  1.00  0.00    -0.631 OA
BRANCH  23  25
HETATM   25  O6  UNL     1      19.930  10.181  -4.857  1.00  0.00    -0.307 OA
HETATM   26  H23 UNL     1      20.757  10.258  -4.366  1.00  0.00     0.222 HD
ENDBRANCH  23  25
BRANCH  23  27
HETATM   27  O7  UNL     1      17.682   9.193  -5.152  1.00  0.00    -0.195 OA
BRANCH  27  28
HETATM   28  P2  UNL     1      18.085   9.017  -6.683  1.00  0.00     0.401 P 
HETATM   29  O8  UNL     1      18.314  10.265  -7.470  1.00  0.00    -0.631 OA
BRANCH  28  30
HETATM   30  O9  UNL     1      19.351   8.046  -6.619  1.00  0.00    -0.307 OA
HETATM   31  H24 UNL     1      19.669   7.856  -5.702  1.00  0.00     0.222 HD
ENDBRANCH  28  30
BRANCH  28  32
HETATM   32  O10 UNL     1      16.980   8.020  -7.261  1.00  0.00    -0.294 OA
BRANCH  32  33
HETATM   33  C14 UNL     1      15.816   7.757  -6.523  1.00  0.00     0.215 C 
BRANCH  33  34
HETATM   34  C15 UNL     1      14.647   8.226  -7.387  1.00  0.00     0.180 C 
HETATM   35  C16 UNL     1      13.967   9.421  -6.731  1.00  0.00     0.197 C 
HETATM   36  C17 UNL     1      12.555   8.949  -6.443  1.00  0.00     0.199 C 
HETATM   37  C18 UNL     1      12.361   7.850  -7.491  1.00  0.00     0.262 C 
HETATM   38  O11 UNL     1      13.654   7.212  -7.582  1.00  0.00    -0.353 OA
BRANCH  35  39
HETATM   39  O13 UNL     1      13.993  10.504  -7.654  1.00  0.00    -0.286 OA
BRANCH  39  40
HETATM   40  P3  UNL     1      14.885  11.758  -7.219  1.00  0.00     0.391 P 
HETATM   41  O14 UNL     1      15.354  11.702  -5.801  1.00  0.00    -0.632 OA
BRANCH  40  42
HETATM   42  O15 UNL     1      13.924  12.968  -7.634  1.00  0.00    -0.307 OA
HETATM   43  H36 UNL     1      13.118  12.631  -8.094  1.00  0.00     0.222 HD
ENDBRANCH  40  42
BRANCH  40  44
HETATM   44  O16 UNL     1      15.992  11.768  -8.361  1.00  0.00    -0.307 OA
HETATM   45  H37 UNL     1      16.231  12.665  -8.645  1.00  0.00     0.222 HD
ENDBRANCH  40  44
ENDBRANCH  39  40
ENDBRANCH  35  39
BRANCH  36  46
HETATM   46  O12 UNL     1      11.647  10.053  -6.473  1.00  0.00    -0.388 OA
HETATM   47  H35 UNL     1      12.088  10.761  -7.002  1.00  0.00     0.210 HD
ENDBRANCH  36  46
BRANCH  37  48
HETATM   48  N3  UNL     1      11.381   6.862  -7.087  1.00  0.00    -0.297 N 
HETATM   49  C19 UNL     1      11.581   5.512  -6.921  1.00  0.00     0.188 A 
HETATM   50  N4  UNL     1      10.524   4.908  -6.424  1.00  0.00    -0.346 N 
HETATM   51  C20 UNL     1       9.593   5.918  -6.255  1.00  0.00     0.116 A 
HETATM   52  H4  UNL     1      10.414   3.917  -6.211  1.00  0.00     0.167 HD
HETATM   53  C21 UNL     1       8.289   5.933  -5.730  1.00  0.00     0.109 A 
HETATM   54  C23 UNL     1      10.097   7.127  -6.698  1.00  0.00     0.142 A 
HETATM   55  N5  UNL     1       7.612   7.107  -5.708  1.00  0.00    -0.341 N 
HETATM   56  C22 UNL     1       8.223   8.205  -6.197  1.00  0.00     0.183 A 
HETATM   57  H5  UNL     1       6.666   7.158  -5.331  1.00  0.00     0.167 HD
HETATM   58  N6  UNL     1       9.464   8.313  -6.714  1.00  0.00    -0.336 N 
HETATM   59  H6  UNL     1       9.869   9.179  -7.069  1.00  0.00     0.168 HD
BRANCH  53  60
HETATM   60  N7  UNL     1       7.652   4.805  -5.239  1.00  0.00    -0.287 NA
HETATM   61  H33 UNL     1       8.194   3.948  -5.323  1.00  0.00     0.125 HD
HETATM   62  H34 UNL     1       6.677   4.755  -5.505  1.00  0.00     0.125 HD
ENDBRANCH  53  60
ENDBRANCH  37  48
ENDBRANCH  33  34
ENDBRANCH  32  33
ENDBRANCH  28  32
ENDBRANCH  27  28
ENDBRANCH  23  27
ENDBRANCH  22  23
ENDBRANCH  21  22
ENDBRANCH  18  21
ENDBRANCH  17  18
BRANCH  17  63
HETATM   63  O17 UNL     1      16.072  10.627  -1.207  1.00  0.00    -0.385 OA
HETATM   64  H38 UNL     1      15.517  10.363  -1.959  1.00  0.00     0.210 HD
ENDBRANCH  17  63
ENDBRANCH  14  17
ENDBRANCH  12  13
ENDBRANCH  11  12
ENDBRANCH   8  11
ENDBRANCH   6   7
ENDBRANCH   5   6
ENDBRANCH   4   5
ENDBRANCH   2   4
TORSDOF 27
ENDMDL
MODEL 7
REMARK VINA RESULT:      -6.3      4.850      9.459
REMARK  27 active torsions:
REMARK  status: ('A' for Active; 'I' for Inactive)
REMARK    1  A    between atoms: C2_2  and  S1_4 
REMARK    2  A    between atoms: S1_4  and  C3_5 
REMARK    3  A    between atoms: C3_5  and  C4_6 
REMARK    4  A    between atoms: C4_6  and  N1_7 
REMARK       I    between atoms: N1_7  and  C5_8 
REMARK    5  A    between atoms: C5_8  and  C6_10 
REMARK    6  A    between atoms: C6_10  and  C7_11 
REMARK    7  A    between atoms: C7_11  and  N2_12 
REMARK       I    between atoms: N2_12  and  C8_13 
REMARK    8  A    between atoms: C8_13  and  C9_15 
REMARK    9  A    between atoms: C9_15  and  C10_16 
REMARK   10  A    between atoms: C9_15  and  O17_54 
REMARK   11  A    between atoms: C10_16  and  C13_19 
REMARK   12  A    between atoms: C13_19  and  O4_20 
REMARK   13  A    between atoms: O4_20  and  P1_21 
REMARK   14  A    between atoms: P1_21  and  O6_23 
REMARK   15  A    between atoms: P1_21  and  O7_24 
REMARK   16  A    between atoms: O7_24  and  P2_25 
REMARK   17  A    between atoms: P2_25  and  O9_27 
REMARK   18  A    between atoms: P2_25  and  O10_28 
REMARK   19  A    between atoms: O10_28  and  C14_29 
REMARK   20  A    between atoms: C14_29  and  C15_30 
REMARK   21  A    between atoms: C16_31  and  O13_49 
REMARK   22  A    between atoms: C17_32  and  O12_48 
REMARK   23  A    between atoms: C18_33  and  N3_35 
REMARK   24  A    between atoms: C21_40  and  N7_47 
REMARK   25  A    between atoms: O13_49  and  P3_50 
REMARK   26  A    between atoms: P3_50  and  O15_52 
REMARK   27  A    between atoms: P3_50  and  O16_53 
ROOT
HETATM    1  C1  UNL     1      20.140  13.784  -4.973  1.00  0.00     0.104 C 
HETATM    2  C2  UNL     1      19.268  13.618  -6.180  1.00  0.00     0.182 C 
HETATM    3  O1  UNL     1      19.070  12.536  -6.726  1.00  0.00    -0.286 OA
ENDROOT
BRANCH   2   4
HETATM    4  S1  UNL     1      18.573  15.117  -6.784  1.00  0.00    -0.091 SA
BRANCH   4   5
HETATM    5  C3  UNL     1      16.923  15.042  -6.014  1.00  0.00     0.102 C 
BRANCH   5   6
HETATM    6  C4  UNL     1      15.835  14.697  -7.032  1.00  0.00     0.133 C 
BRANCH   6   7
HETATM    7  N1  UNL     1      14.504  14.728  -6.460  1.00  0.00    -0.360 N 
HETATM    8  C5  UNL     1      13.577  13.748  -6.730  1.00  0.00     0.219 C 
HETATM    9  O2  UNL     1      13.789  12.841  -7.526  1.00  0.00    -0.274 OA
HETATM   10  H8  UNL     1      14.258  15.489  -5.841  1.00  0.00     0.162 HD
BRANCH   8  11
HETATM   11  C6  UNL     1      12.271  13.938  -5.990  1.00  0.00     0.122 C 
BRANCH  11  12
HETATM   12  C7  UNL     1      12.088  12.904  -4.879  1.00  0.00     0.132 C 
BRANCH  12  13
HETATM   13  N2  UNL     1      13.339  12.490  -4.279  1.00  0.00    -0.358 N 
HETATM   14  C8  UNL     1      13.599  12.767  -2.949  1.00  0.00     0.247 C 
HETATM   15  O3  UNL     1      12.854  13.464  -2.271  1.00  0.00    -0.271 OA
HETATM   16  H13 UNL     1      13.752  11.645  -4.667  1.00  0.00     0.162 HD
BRANCH  14  17
HETATM   17  C9  UNL     1      14.876  12.120  -2.394  1.00  0.00     0.219 C 
BRANCH  17  18
HETATM   18  C10 UNL     1      16.043  13.111  -2.145  1.00  0.00     0.009 C 
HETATM   19  C11 UNL     1      15.669  14.552  -2.524  1.00  0.00     0.020 C 
HETATM   20  C12 UNL     1      16.483  13.107  -0.667  1.00  0.00     0.020 C 
BRANCH  18  21
HETATM   21  C13 UNL     1      17.217  12.623  -3.042  1.00  0.00     0.192 C 
BRANCH  21  22
HETATM   22  O4  UNL     1      18.088  11.745  -2.358  1.00  0.00    -0.296 OA
BRANCH  22  23
HETATM   23  P1  UNL     1      18.600  10.362  -2.987  1.00  0.00     0.401 P 
HETATM   24  O5  UNL     1      19.906   9.884  -2.433  1.00  0.00    -0.631 OA
BRANCH  23  25
HETATM   25  O6  UNL     1      18.603  10.550  -4.585  1.00  0.00    -0.307 OA
HETATM   26  H23 UNL     1      18.742   9.713  -5.048  1.00  0.00     0.222 HD
ENDBRANCH  23  25
BRANCH  23  27
HETATM   27  O7  UNL     1      17.387   9.350  -2.796  1.00  0.00    -0.195 OA
BRANCH  27  28
HETATM   28  P2  UNL     1      17.337   8.031  -3.688  1.00  0.00     0.401 P 
HETATM   29  O8  UNL     1      18.539   7.733  -4.524  1.00  0.00    -0.631 OA
BRANCH  28  30
HETATM   30  O9  UNL     1      16.979   6.888  -2.632  1.00  0.00    -0.307 OA
HETATM   31  H24 UNL     1      16.445   7.203  -1.862  1.00  0.00     0.222 HD
ENDBRANCH  28  30
BRANCH  28  32
HETATM   32  O10 UNL     1      15.952   8.149  -4.474  1.00  0.00    -0.294 OA
BRANCH  32  33
HETATM   33  C14 UNL     1      15.280   6.989  -4.889  1.00  0.00     0.215 C 
BRANCH  33  34
HETATM   34  C15 UNL     1      14.602   7.338  -6.212  1.00  0.00     0.180 C 
HETATM   35  C16 UNL     1      14.363   8.841  -6.288  1.00  0.00     0.197 C 
HETATM   36  C17 UNL     1      12.855   8.986  -6.369  1.00  0.00     0.199 C 
HETATM   37  C18 UNL     1      12.433   7.645  -6.974  1.00  0.00     0.262 C 
HETATM   38  O11 UNL     1      13.338   6.687  -6.382  1.00  0.00    -0.353 OA
BRANCH  35  39
HETATM   39  O13 UNL     1      15.013   9.332  -7.455  1.00  0.00    -0.286 OA
BRANCH  39  40
HETATM   40  P3  UNL     1      16.263  10.295  -7.193  1.00  0.00     0.391 P 
HETATM   41  O14 UNL     1      17.578   9.585  -7.178  1.00  0.00    -0.632 OA
BRANCH  40  42
HETATM   42  O15 UNL     1      15.800  11.027  -5.848  1.00  0.00    -0.307 OA
HETATM   43  H36 UNL     1      14.960  11.524  -5.992  1.00  0.00     0.222 HD
ENDBRANCH  40  42
BRANCH  40  44
HETATM   44  O16 UNL     1      16.040  11.410  -8.306  1.00  0.00    -0.307 OA
HETATM   45  H37 UNL     1      15.292  11.212  -8.892  1.00  0.00     0.222 HD
ENDBRANCH  40  44
ENDBRANCH  39  40
ENDBRANCH  35  39
BRANCH  36  46
HETATM   46  O12 UNL     1      12.510  10.171  -7.093  1.00  0.00    -0.388 OA
HETATM   47  H35 UNL     1      12.418  10.889  -6.422  1.00  0.00     0.210 HD
ENDBRANCH  36  46
BRANCH  37  48
HETATM   48  N3  UNL     1      11.074   7.281  -6.626  1.00  0.00    -0.297 N 
HETATM   49  C19 UNL     1       9.915   7.749  -7.200  1.00  0.00     0.188 A 
HETATM   50  N4  UNL     1       8.848   7.128  -6.747  1.00  0.00    -0.346 N 
HETATM   51  C20 UNL     1       9.340   6.208  -5.837  1.00  0.00     0.116 A 
HETATM   52  H4  UNL     1       7.875   7.288  -7.007  1.00  0.00     0.167 HD
HETATM   53  C21 UNL     1       8.721   5.222  -5.050  1.00  0.00     0.109 A 
HETATM   54  C23 UNL     1      10.714   6.319  -5.724  1.00  0.00     0.142 A 
HETATM   55  N5  UNL     1       9.493   4.467  -4.230  1.00  0.00    -0.341 N 
HETATM   56  C22 UNL     1      10.819   4.704  -4.206  1.00  0.00     0.183 A 
HETATM   57  H5  UNL     1       9.079   3.739  -3.647  1.00  0.00     0.167 HD
HETATM   58  N6  UNL     1      11.522   5.609  -4.917  1.00  0.00    -0.336 N 
HETATM   59  H6  UNL     1      12.532   5.738  -4.851  1.00  0.00     0.168 HD
BRANCH  53  60
HETATM   60  N7  UNL     1       7.356   4.984  -5.060  1.00  0.00    -0.287 NA
HETATM   61  H33 UNL     1       6.995   4.578  -4.200  1.00  0.00     0.125 HD
HETATM   62  H34 UNL     1       7.032   4.577  -5.927  1.00  0.00     0.125 HD
ENDBRANCH  53  60
ENDBRANCH  37  48
ENDBRANCH  33  34
ENDBRANCH  32  33
ENDBRANCH  28  32
ENDBRANCH  27  28
ENDBRANCH  23  27
ENDBRANCH  22  23
ENDBRANCH  21  22
ENDBRANCH  18  21
ENDBRANCH  17  18
BRANCH  17  63
HETATM   63  O17 UNL     1      14.590  11.438  -1.168  1.00  0.00    -0.385 OA
HETATM   64  H38 UNL     1      13.681  11.097  -1.217  1.00  0.00     0.210 HD
ENDBRANCH  17  63
ENDBRANCH  14  17
ENDBRANCH  12  13
ENDBRANCH  11  12
ENDBRANCH   8  11
ENDBRANCH   6   7
ENDBRANCH   5   6
ENDBRANCH   4   5
ENDBRANCH   2   4
TORSDOF 27
ENDMDL
MODEL 8
REMARK VINA RESULT:      -6.3      3.570      9.603
REMARK  27 active torsions:
REMARK  status: ('A' for Active; 'I' for Inactive)
REMARK    1  A    between atoms: C2_2  and  S1_4 
REMARK    2  A    between atoms: S1_4  and  C3_5 
REMARK    3  A    between atoms: C3_5  and  C4_6 
REMARK    4  A    between atoms: C4_6  and  N1_7 
REMARK       I    between atoms: N1_7  and  C5_8 
REMARK    5  A    between atoms: C5_8  and  C6_10 
REMARK    6  A    between atoms: C6_10  and  C7_11 
REMARK    7  A    between atoms: C7_11  and  N2_12 
REMARK       I    between atoms: N2_12  and  C8_13 
REMARK    8  A    between atoms: C8_13  and  C9_15 
REMARK    9  A    between atoms: C9_15  and  C10_16 
REMARK   10  A    between atoms: C9_15  and  O17_54 
REMARK   11  A    between atoms: C10_16  and  C13_19 
REMARK   12  A    between atoms: C13_19  and  O4_20 
REMARK   13  A    between atoms: O4_20  and  P1_21 
REMARK   14  A    between atoms: P1_21  and  O6_23 
REMARK   15  A    between atoms: P1_21  and  O7_24 
REMARK   16  A    between atoms: O7_24  and  P2_25 
REMARK   17  A    between atoms: P2_25  and  O9_27 
REMARK   18  A    between atoms: P2_25  and  O10_28 
REMARK   19  A    between atoms: O10_28  and  C14_29 
REMARK   20  A    between atoms: C14_29  and  C15_30 
REMARK   21  A    between atoms: C16_31  and  O13_49 
REMARK   22  A    between atoms: C17_32  and  O12_48 
REMARK   23  A    between atoms: C18_33  and  N3_35 
REMARK   24  A    between atoms: C21_40  and  N7_47 
REMARK   25  A    between atoms: O13_49  and  P3_50 
REMARK   26  A    between atoms: P3_50  and  O15_52 
REMARK   27  A    between atoms: P3_50  and  O16_53 
ROOT
HETATM    1  C1  UNL     1      12.910  12.174   1.162  1.00  0.00     0.104 C 
HETATM    2  C2  UNL     1      11.469  12.013   1.538  1.00  0.00     0.182 C 
HETATM    3  O1  UNL     1      10.972  10.936   1.859  1.00  0.00    -0.286 OA
ENDROOT
BRANCH   2   4
HETATM    4  S1  UNL     1      10.525  13.494   1.445  1.00  0.00    -0.091 SA
BRANCH   4   5
HETATM    5  C3  UNL     1       9.827  13.538   3.127  1.00  0.00     0.102 C 
BRANCH   5   6
HETATM    6  C4  UNL     1      10.845  14.039   4.154  1.00  0.00     0.133 C 
BRANCH   6   7
HETATM    7  N1  UNL     1      11.795  14.974   3.589  1.00  0.00    -0.360 N 
HETATM    8  C5  UNL     1      12.969  15.291   4.233  1.00  0.00     0.219 C 
HETATM    9  O2  UNL     1      13.244  14.868   5.350  1.00  0.00    -0.274 OA
HETATM   10  H8  UNL     1      11.588  15.397   2.694  1.00  0.00     0.162 HD
BRANCH   8  11
HETATM   11  C6  UNL     1      13.845  16.243   3.447  1.00  0.00     0.122 C 
BRANCH  11  12
HETATM   12  C7  UNL     1      13.949  15.841   1.976  1.00  0.00     0.132 C 
BRANCH  12  13
HETATM   13  N2  UNL     1      15.279  15.413   1.598  1.00  0.00    -0.358 N 
HETATM   14  C8  UNL     1      15.556  15.077   0.286  1.00  0.00     0.247 C 
HETATM   15  O3  UNL     1      14.682  15.014  -0.569  1.00  0.00    -0.271 OA
HETATM   16  H13 UNL     1      16.040  15.807   2.148  1.00  0.00     0.162 HD
BRANCH  14  17
HETATM   17  C9  UNL     1      17.040  14.813  -0.012  1.00  0.00     0.219 C 
BRANCH  17  18
HETATM   18  C10 UNL     1      17.489  13.345   0.210  1.00  0.00     0.009 C 
HETATM   19  C11 UNL     1      18.795  13.255   1.013  1.00  0.00     0.020 C 
HETATM   20  C12 UNL     1      16.413  12.533   0.960  1.00  0.00     0.020 C 
BRANCH  18  21
HETATM   21  C13 UNL     1      17.705  12.745  -1.209  1.00  0.00     0.192 C 
BRANCH  21  22
HETATM   22  O4  UNL     1      16.585  12.011  -1.659  1.00  0.00    -0.296 OA
BRANCH  22  23
HETATM   23  P1  UNL     1      15.710  12.449  -2.930  1.00  0.00     0.401 P 
HETATM   24  O5  UNL     1      16.276  13.604  -3.693  1.00  0.00    -0.631 OA
BRANCH  23  25
HETATM   25  O6  UNL     1      14.210  12.693  -2.400  1.00  0.00    -0.307 OA
HETATM   26  H23 UNL     1      13.632  11.943  -2.593  1.00  0.00     0.222 HD
ENDBRANCH  23  25
BRANCH  23  27
HETATM   27  O7  UNL     1      15.525  11.117  -3.780  1.00  0.00    -0.195 OA
BRANCH  27  28
HETATM   28  P2  UNL     1      16.789  10.179  -4.026  1.00  0.00     0.401 P 
HETATM   29  O8  UNL     1      18.111  10.854  -4.190  1.00  0.00    -0.631 OA
BRANCH  28  30
HETATM   30  O9  UNL     1      16.728   9.153  -2.804  1.00  0.00    -0.307 OA
HETATM   31  H24 UNL     1      17.606   8.780  -2.546  1.00  0.00     0.222 HD
ENDBRANCH  28  30
BRANCH  28  32
HETATM   32  O10 UNL     1      16.337   9.230  -5.229  1.00  0.00    -0.294 OA
BRANCH  32  33
HETATM   33  C14 UNL     1      15.868   7.934  -4.962  1.00  0.00     0.215 C 
BRANCH  33  34
HETATM   34  C15 UNL     1      14.846   7.617  -6.053  1.00  0.00     0.180 C 
HETATM   35  C16 UNL     1      13.971   8.837  -6.309  1.00  0.00     0.197 C 
HETATM   36  C17 UNL     1      12.568   8.386  -5.947  1.00  0.00     0.199 C 
HETATM   37  C18 UNL     1      12.653   6.872  -6.153  1.00  0.00     0.262 C 
HETATM   38  O11 UNL     1      13.984   6.526  -5.711  1.00  0.00    -0.353 OA
BRANCH  35  39
HETATM   39  O13 UNL     1      14.086   9.181  -7.686  1.00  0.00    -0.286 OA
BRANCH  39  40
HETATM   40  P3  UNL     1      14.628  10.655  -7.985  1.00  0.00     0.391 P 
HETATM   41  O14 UNL     1      16.017  10.685  -8.537  1.00  0.00    -0.632 OA
BRANCH  40  42
HETATM   42  O15 UNL     1      14.378  11.359  -6.571  1.00  0.00    -0.307 OA
HETATM   43  H36 UNL     1      13.413  11.399  -6.368  1.00  0.00     0.222 HD
ENDBRANCH  40  42
BRANCH  40  44
HETATM   44  O16 UNL     1      13.462  11.241  -8.893  1.00  0.00    -0.307 OA
HETATM   45  H37 UNL     1      13.133  12.097  -8.576  1.00  0.00     0.222 HD
ENDBRANCH  40  44
ENDBRANCH  39  40
ENDBRANCH  35  39
BRANCH  36  46
HETATM   46  O12 UNL     1      11.603   9.101  -6.722  1.00  0.00    -0.388 OA
HETATM   47  H35 UNL     1      11.279   9.839  -6.152  1.00  0.00     0.210 HD
ENDBRANCH  36  46
BRANCH  37  48
HETATM   48  N3  UNL     1      11.691   6.147  -5.347  1.00  0.00    -0.297 N 
HETATM   49  C19 UNL     1      11.959   5.239  -4.349  1.00  0.00     0.188 A 
HETATM   50  N4  UNL     1      10.870   4.852  -3.721  1.00  0.00    -0.346 N 
HETATM   51  C20 UNL     1       9.846   5.546  -4.340  1.00  0.00     0.116 A 
HETATM   52  H4  UNL     1      10.797   4.188  -2.951  1.00  0.00     0.167 HD
HETATM   53  C21 UNL     1       8.460   5.606  -4.110  1.00  0.00     0.109 A 
HETATM   54  C23 UNL     1      10.336   6.322  -5.374  1.00  0.00     0.142 A 
HETATM   55  N5  UNL     1       7.702   6.391  -4.913  1.00  0.00    -0.341 N 
HETATM   56  C22 UNL     1       8.315   7.075  -5.899  1.00  0.00     0.183 A 
HETATM   57  H5  UNL     1       6.694   6.463  -4.774  1.00  0.00     0.167 HD
HETATM   58  N6  UNL     1       9.627   7.104  -6.209  1.00  0.00    -0.336 N 
HETATM   59  H6  UNL     1      10.030   7.646  -6.973  1.00  0.00     0.168 HD
BRANCH  53  60
HETATM   60  N7  UNL     1       7.823   4.893  -3.106  1.00  0.00    -0.287 NA
HETATM   61  H33 UNL     1       7.423   4.008  -3.410  1.00  0.00     0.125 HD
HETATM   62  H34 UNL     1       7.245   5.475  -2.515  1.00  0.00     0.125 HD
ENDBRANCH  53  60
ENDBRANCH  37  48
ENDBRANCH  33  34
ENDBRANCH  32  33
ENDBRANCH  28  32
ENDBRANCH  27  28
ENDBRANCH  23  27
ENDBRANCH  22  23
ENDBRANCH  21  22
ENDBRANCH  18  21
ENDBRANCH  17  18
BRANCH  17  63
HETATM   63  O17 UNL     1      17.345  15.182  -1.362  1.00  0.00    -0.385 OA
HETATM   64  H38 UNL     1      18.053  14.598  -1.681  1.00  0.00     0.210 HD
ENDBRANCH  17  63
ENDBRANCH  14  17
ENDBRANCH  12  13
ENDBRANCH  11  12
ENDBRANCH   8  11
ENDBRANCH   6   7
ENDBRANCH   5   6
ENDBRANCH   4   5
ENDBRANCH   2   4
TORSDOF 27
ENDMDL
MODEL 9
REMARK VINA RESULT:      -6.2      4.361      9.308
REMARK  27 active torsions:
REMARK  status: ('A' for Active; 'I' for Inactive)
REMARK    1  A    between atoms: C2_2  and  S1_4 
REMARK    2  A    between atoms: S1_4  and  C3_5 
REMARK    3  A    between atoms: C3_5  and  C4_6 
REMARK    4  A    between atoms: C4_6  and  N1_7 
REMARK       I    between atoms: N1_7  and  C5_8 
REMARK    5  A    between atoms: C5_8  and  C6_10 
REMARK    6  A    between atoms: C6_10  and  C7_11 
REMARK    7  A    between atoms: C7_11  and  N2_12 
REMARK       I    between atoms: N2_12  and  C8_13 
REMARK    8  A    between atoms: C8_13  and  C9_15 
REMARK    9  A    between atoms: C9_15  and  C10_16 
REMARK   10  A    between atoms: C9_15  and  O17_54 
REMARK   11  A    between atoms: C10_16  and  C13_19 
REMARK   12  A    between atoms: C13_19  and  O4_20 
REMARK   13  A    between atoms: O4_20  and  P1_21 
REMARK   14  A    between atoms: P1_21  and  O6_23 
REMARK   15  A    between atoms: P1_21  and  O7_24 
REMARK   16  A    between atoms: O7_24  and  P2_25 
REMARK   17  A    between atoms: P2_25  and  O9_27 
REMARK   18  A    between atoms: P2_25  and  O10_28 
REMARK   19  A    between atoms: O10_28  and  C14_29 
REMARK   20  A    between atoms: C14_29  and  C15_30 
REMARK   21  A    between atoms: C16_31  and  O13_49 
REMARK   22  A    between atoms: C17_32  and  O12_48 
REMARK   23  A    between atoms: C18_33  and  N3_35 
REMARK   24  A    between atoms: C21_40  and  N7_47 
REMARK   25  A    between atoms: O13_49  and  P3_50 
REMARK   26  A    between atoms: P3_50  and  O15_52 
REMARK   27  A    between atoms: P3_50  and  O16_53 
ROOT
HETATM    1  C1  UNL     1      19.763  11.325  -8.589  1.00  0.00     0.104 C 
HETATM    2  C2  UNL     1      19.083  12.641  -8.812  1.00  0.00     0.182 C 
HETATM    3  O1  UNL     1      18.366  12.874  -9.782  1.00  0.00    -0.286 OA
ENDROOT
BRANCH   2   4
HETATM    4  S1  UNL     1      19.426  13.852  -7.584  1.00  0.00    -0.091 SA
BRANCH   4   5
HETATM    5  C3  UNL     1      18.214  13.374  -6.310  1.00  0.00     0.102 C 
BRANCH   5   6
HETATM    6  C4  UNL     1      16.781  13.700  -6.735  1.00  0.00     0.133 C 
BRANCH   6   7
HETATM    7  N1  UNL     1      15.929  14.040  -5.614  1.00  0.00    -0.360 N 
HETATM    8  C5  UNL     1      14.617  14.412  -5.790  1.00  0.00     0.219 C 
HETATM    9  O2  UNL     1      14.114  14.557  -6.898  1.00  0.00    -0.274 OA
HETATM   10  H8  UNL     1      16.313  13.993  -4.680  1.00  0.00     0.162 HD
BRANCH   8  11
HETATM   11  C6  UNL     1      13.888  14.671  -4.489  1.00  0.00     0.122 C 
BRANCH  11  12
HETATM   12  C7  UNL     1      13.155  13.427  -3.988  1.00  0.00     0.132 C 
BRANCH  12  13
HETATM   13  N2  UNL     1      13.777  12.832  -2.823  1.00  0.00    -0.358 N 
HETATM   14  C8  UNL     1      13.308  13.128  -1.556  1.00  0.00     0.247 C 
HETATM   15  O3  UNL     1      12.448  13.977  -1.361  1.00  0.00    -0.271 OA
HETATM   16  H13 UNL     1      14.182  11.910  -2.966  1.00  0.00     0.162 HD
BRANCH  14  17
HETATM   17  C9  UNL     1      13.937  12.298  -0.427  1.00  0.00     0.219 C 
BRANCH  17  18
HETATM   18  C10 UNL     1      15.129  12.985   0.289  1.00  0.00     0.009 C 
HETATM   19  C11 UNL     1      15.269  14.462  -0.108  1.00  0.00     0.020 C 
HETATM   20  C12 UNL     1      14.982  12.918   1.823  1.00  0.00     0.020 C 
BRANCH  18  21
HETATM   21  C13 UNL     1      16.399  12.202  -0.151  1.00  0.00     0.192 C 
BRANCH  21  22
HETATM   22  O4  UNL     1      16.253  11.611  -1.426  1.00  0.00    -0.296 OA
BRANCH  22  23
HETATM   23  P1  UNL     1      17.142  12.038  -2.690  1.00  0.00     0.401 P 
HETATM   24  O5  UNL     1      18.594  11.703  -2.558  1.00  0.00    -0.631 OA
BRANCH  23  25
HETATM   25  O6  UNL     1      16.857  13.600  -2.955  1.00  0.00    -0.307 OA
HETATM   26  H23 UNL     1      17.669  14.122  -2.949  1.00  0.00     0.222 HD
ENDBRANCH  23  25
BRANCH  23  27
HETATM   27  O7  UNL     1      16.419  11.375  -3.943  1.00  0.00    -0.195 OA
BRANCH  27  28
HETATM   28  P2  UNL     1      16.937   9.965  -4.474  1.00  0.00     0.401 P 
HETATM   29  O8  UNL     1      18.100   9.981  -5.412  1.00  0.00    -0.631 OA
BRANCH  28  30
HETATM   30  O9  UNL     1      17.194   9.140  -3.132  1.00  0.00    -0.307 OA
HETATM   31  H24 UNL     1      17.971   9.453  -2.608  1.00  0.00     0.222 HD
ENDBRANCH  28  30
BRANCH  28  32
HETATM   32  O10 UNL     1      15.616   9.247  -5.013  1.00  0.00    -0.294 OA
BRANCH  32  33
HETATM   33  C14 UNL     1      15.634   7.875  -5.309  1.00  0.00     0.215 C 
BRANCH  33  34
HETATM   34  C15 UNL     1      14.506   7.640  -6.312  1.00  0.00     0.180 C 
HETATM   35  C16 UNL     1      13.644   8.891  -6.420  1.00  0.00     0.197 C 
HETATM   36  C17 UNL     1      12.270   8.453  -5.950  1.00  0.00     0.199 C 
HETATM   37  C18 UNL     1      12.293   6.951  -6.240  1.00  0.00     0.262 C 
HETATM   38  O11 UNL     1      13.650   6.552  -5.946  1.00  0.00    -0.353 OA
BRANCH  35  39
HETATM   39  O13 UNL     1      13.638   9.306  -7.782  1.00  0.00    -0.286 OA
BRANCH  39  40
HETATM   40  P3  UNL     1      14.435  10.657  -8.095  1.00  0.00     0.391 P 
HETATM   41  O14 UNL     1      15.880  10.444  -8.410  1.00  0.00    -0.632 OA
BRANCH  40  42
HETATM   42  O15 UNL     1      14.080  11.521  -6.796  1.00  0.00    -0.307 OA
HETATM   43  H36 UNL     1      14.887  11.683  -6.253  1.00  0.00     0.222 HD
ENDBRANCH  40  42
BRANCH  40  44
HETATM   44  O16 UNL     1      13.523  11.307  -9.223  1.00  0.00    -0.307 OA
HETATM   45  H37 UNL     1      13.771  11.023 -10.117  1.00  0.00     0.222 HD
ENDBRANCH  40  44
ENDBRANCH  39  40
ENDBRANCH  35  39
BRANCH  36  46
HETATM   46  O12 UNL     1      11.255   9.230  -6.591  1.00  0.00    -0.388 OA
HETATM   47  H35 UNL     1      11.540  10.172  -6.521  1.00  0.00     0.210 HD
ENDBRANCH  36  46
BRANCH  37  48
HETATM   48  N3  UNL     1      11.392   6.204  -5.385  1.00  0.00    -0.297 N 
HETATM   49  C19 UNL     1      11.730   5.251  -4.453  1.00  0.00     0.188 A 
HETATM   50  N4  UNL     1      10.692   4.852  -3.750  1.00  0.00    -0.346 N 
HETATM   51  C20 UNL     1       9.630   5.586  -4.248  1.00  0.00     0.116 A 
HETATM   52  H4  UNL     1      10.674   4.156  -3.004  1.00  0.00     0.167 HD
HETATM   53  C21 UNL     1       8.271   5.654  -3.896  1.00  0.00     0.109 A 
HETATM   54  C23 UNL     1      10.043   6.399  -5.288  1.00  0.00     0.142 A 
HETATM   55  N5  UNL     1       7.460   6.483  -4.597  1.00  0.00    -0.341 N 
HETATM   56  C22 UNL     1       7.997   7.201  -5.604  1.00  0.00     0.183 A 
HETATM   57  H5  UNL     1       6.469   6.562  -4.368  1.00  0.00     0.167 HD
HETATM   58  N6  UNL     1       9.278   7.225  -6.024  1.00  0.00    -0.336 N 
HETATM   59  H6  UNL     1       9.623   7.794  -6.798  1.00  0.00     0.168 HD
BRANCH  53  60
HETATM   60  N7  UNL     1       7.711   4.907  -2.872  1.00  0.00    -0.287 NA
HETATM   61  H33 UNL     1       6.698   4.979  -2.807  1.00  0.00     0.125 HD
HETATM   62  H34 UNL     1       8.228   4.974  -2.006  1.00  0.00     0.125 HD
ENDBRANCH  53  60
ENDBRANCH  37  48
ENDBRANCH  33  34
ENDBRANCH  32  33
ENDBRANCH  28  32
ENDBRANCH  27  28
ENDBRANCH  23  27
ENDBRANCH  22  23
ENDBRANCH  21  22
ENDBRANCH  18  21
ENDBRANCH  17  18
BRANCH  17  63
HETATM   63  O17 UNL     1      12.946  11.969   0.553  1.00  0.00    -0.385 OA
HETATM   64  H38 UNL     1      13.402  11.761   1.386  1.00  0.00     0.210 HD
ENDBRANCH  17  63
ENDBRANCH  14  17
ENDBRANCH  12  13
ENDBRANCH  11  12
ENDBRANCH   8  11
ENDBRANCH   6   7
ENDBRANCH   5   6
ENDBRANCH   4   5
ENDBRANCH   2   4
TORSDOF 27
ENDMDL
MODEL 10
REMARK VINA RESULT:      -6.1      4.054      6.311
REMARK  27 active torsions:
REMARK  status: ('A' for Active; 'I' for Inactive)
REMARK    1  A    between atoms: C2_2  and  S1_4 
REMARK    2  A    between atoms: S1_4  and  C3_5 
REMARK    3  A    between atoms: C3_5  and  C4_6 
REMARK    4  A    between atoms: C4_6  and  N1_7 
REMARK       I    between atoms: N1_7  and  C5_8 
REMARK    5  A    between atoms: C5_8  and  C6_10 
REMARK    6  A    between atoms: C6_10  and  C7_11 
REMARK    7  A    between atoms: C7_11  and  N2_12 
REMARK       I    between atoms: N2_12  and  C8_13 
REMARK    8  A    between atoms: C8_13  and  C9_15 
REMARK    9  A    between atoms: C9_15  and  C10_16 
REMARK   10  A    between atoms: C9_15  and  O17_54 
REMARK   11  A    between atoms: C10_16  and  C13_19 
REMARK   12  A    between atoms: C13_19  and  O4_20 
REMARK   13  A    between atoms: O4_20  and  P1_21 
REMARK   14  A    between atoms: P1_21  and  O6_23 
REMARK   15  A    between atoms: P1_21  and  O7_24 
REMARK   16  A    between atoms: O7_24  and  P2_25 
REMARK   17  A    between atoms: P2_25  and  O9_27 
REMARK   18  A    between atoms: P2_25  and  O10_28 
REMARK   19  A    between atoms: O10_28  and  C14_29 
REMARK   20  A    between atoms: C14_29  and  C15_30 
REMARK   21  A    between atoms: C16_31  and  O13_49 
REMARK   22  A    between atoms: C17_32  and  O12_48 
REMARK   23  A    between atoms: C18_33  and  N3_35 
REMARK   24  A    between atoms: C21_40  and  N7_47 
REMARK   25  A    between atoms: O13_49  and  P3_50 
REMARK   26  A    between atoms: P3_50  and  O15_52 
REMARK   27  A    between atoms: P3_50  and  O16_53 
ROOT
HETATM    1  C1  UNL     1      14.029   8.428  -8.644  1.00  0.00     0.104 C 
HETATM    2  C2  UNL     1      14.639   7.993  -7.346  1.00  0.00     0.182 C 
HETATM    3  O1  UNL     1      15.831   7.726  -7.218  1.00  0.00    -0.286 OA
ENDROOT
BRANCH   2   4
HETATM    4  S1  UNL     1      13.495   7.854  -6.018  1.00  0.00    -0.091 SA
BRANCH   4   5
HETATM    5  C3  UNL     1      11.955   7.562  -6.946  1.00  0.00     0.102 C 
BRANCH   5   6
HETATM    6  C4  UNL     1      10.743   7.449  -6.019  1.00  0.00     0.133 C 
BRANCH   6   7
HETATM    7  N1  UNL     1       9.664   8.338  -6.397  1.00  0.00    -0.360 N 
HETATM    8  C5  UNL     1       8.738   8.783  -5.482  1.00  0.00     0.219 C 
HETATM    9  O2  UNL     1       8.720   8.395  -4.320  1.00  0.00    -0.274 OA
HETATM   10  H8  UNL     1       9.599   8.642  -7.359  1.00  0.00     0.162 HD
BRANCH   8  11
HETATM   11  C6  UNL     1       7.730   9.746  -6.070  1.00  0.00     0.122 C 
BRANCH  11  12
HETATM   12  C7  UNL     1       7.636  11.039  -5.261  1.00  0.00     0.132 C 
BRANCH  12  13
HETATM   13  N2  UNL     1       8.924  11.517  -4.803  1.00  0.00    -0.358 N 
HETATM   14  C8  UNL     1       9.471  12.668  -5.338  1.00  0.00     0.247 C 
HETATM   15  O3  UNL     1       8.959  13.254  -6.284  1.00  0.00    -0.271 OA
HETATM   16  H13 UNL     1       9.153  11.299  -3.836  1.00  0.00     0.162 HD
BRANCH  14  17
HETATM   17  C9  UNL     1      10.749  13.159  -4.642  1.00  0.00     0.219 C 
BRANCH  17  18
HETATM   18  C10 UNL     1      12.061  12.830  -5.402  1.00  0.00     0.009 C 
HETATM   19  C11 UNL     1      12.036  11.424  -6.019  1.00  0.00     0.020 C 
HETATM   20  C12 UNL     1      12.327  13.841  -6.535  1.00  0.00     0.020 C 
BRANCH  18  21
HETATM   21  C13 UNL     1      13.200  12.916  -4.345  1.00  0.00     0.192 C 
BRANCH  21  22
HETATM   22  O4  UNL     1      12.703  13.078  -3.032  1.00  0.00    -0.296 OA
BRANCH  22  23
HETATM   23  P1  UNL     1      13.437  13.981  -1.929  1.00  0.00     0.401 P 
HETATM   24  O5  UNL     1      12.717  14.054  -0.619  1.00  0.00    -0.631 OA
BRANCH  23  25
HETATM   25  O6  UNL     1      13.702  15.418  -2.606  1.00  0.00    -0.307 OA
HETATM   26  H23 UNL     1      14.565  15.778  -2.363  1.00  0.00     0.222 HD
ENDBRANCH  23  25
BRANCH  23  27
HETATM   27  O7  UNL     1      14.917  13.403  -1.842  1.00  0.00    -0.195 OA
BRANCH  27  28
HETATM   28  P2  UNL     1      16.115  14.399  -1.508  1.00  0.00     0.401 P 
HETATM   29  O8  UNL     1      16.814  15.029  -2.667  1.00  0.00    -0.631 OA
BRANCH  28  30
HETATM   30  O9  UNL     1      15.451  15.445  -0.500  1.00  0.00    -0.307 OA
HETATM   31  H24 UNL     1      15.782  16.370  -0.604  1.00  0.00     0.222 HD
ENDBRANCH  28  30
BRANCH  28  32
HETATM   32  O10 UNL     1      17.038  13.569  -0.503  1.00  0.00    -0.294 OA
BRANCH  32  33
HETATM   33  C14 UNL     1      16.469  12.592   0.329  1.00  0.00     0.215 C 
BRANCH  33  34
HETATM   34  C15 UNL     1      16.459  13.185   1.737  1.00  0.00     0.180 C 
HETATM   35  C16 UNL     1      16.586  12.070   2.767  1.00  0.00     0.197 C 
HETATM   36  C17 UNL     1      15.299  12.138   3.568  1.00  0.00     0.199 C 
HETATM   37  C18 UNL     1      14.884  13.600   3.388  1.00  0.00     0.262 C 
HETATM   38  O11 UNL     1      15.261  13.913   2.029  1.00  0.00    -0.353 OA
BRANCH  35  39
HETATM   39  O13 UNL     1      17.732  12.338   3.568  1.00  0.00    -0.286 OA
BRANCH  39  40
HETATM   40  P3  UNL     1      18.774  11.133   3.705  1.00  0.00     0.391 P 
HETATM   41  O14 UNL     1      19.847  11.144   2.665  1.00  0.00    -0.632 OA
BRANCH  40  42
HETATM   42  O15 UNL     1      17.780   9.879   3.731  1.00  0.00    -0.307 OA
HETATM   43  H36 UNL     1      18.265   9.055   3.975  1.00  0.00     0.222 HD
ENDBRANCH  40  42
BRANCH  40  44
HETATM   44  O16 UNL     1      19.220  11.273   5.225  1.00  0.00    -0.307 OA
HETATM   45  H37 UNL     1      19.748  12.070   5.390  1.00  0.00     0.222 HD
ENDBRANCH  40  44
ENDBRANCH  39  40
ENDBRANCH  35  39
BRANCH  36  46
HETATM   46  O12 UNL     1      15.522  11.678   4.903  1.00  0.00    -0.388 OA
HETATM   47  H35 UNL     1      15.447  10.695   4.875  1.00  0.00     0.210 HD
ENDBRANCH  36  46
BRANCH  37  48
HETATM   48  N3  UNL     1      13.455  13.795   3.532  1.00  0.00    -0.297 N 
HETATM   49  C19 UNL     1      12.819  14.754   4.285  1.00  0.00     0.188 A 
HETATM   50  N4  UNL     1      11.516  14.746   4.106  1.00  0.00    -0.346 N 
HETATM   51  C20 UNL     1      11.297  13.734   3.188  1.00  0.00     0.116 A 
HETATM   52  H4  UNL     1      10.822  15.350   4.545  1.00  0.00     0.167 HD
HETATM   53  C21 UNL     1      10.136  13.254   2.557  1.00  0.00     0.109 A 
HETATM   54  C23 UNL     1      12.486  13.111   2.854  1.00  0.00     0.142 A 
HETATM   55  N5  UNL     1      10.249  12.217   1.692  1.00  0.00    -0.341 N 
HETATM   56  C22 UNL     1      11.472  11.692   1.481  1.00  0.00     0.183 A 
HETATM   57  H5  UNL     1       9.429  11.844   1.213  1.00  0.00     0.167 HD
HETATM   58  N6  UNL     1      12.650  12.071   2.017  1.00  0.00    -0.336 N 
HETATM   59  H6  UNL     1      13.547  11.629   1.814  1.00  0.00     0.168 HD
BRANCH  53  60
HETATM   60  N7  UNL     1       8.874  13.781   2.782  1.00  0.00    -0.287 NA
HETATM   61  H33 UNL     1       8.824  14.794   2.710  1.00  0.00     0.125 HD
HETATM   62  H34 UNL     1       8.404  13.357   3.571  1.00  0.00     0.125 HD
ENDBRANCH  53  60
ENDBRANCH  37  48
ENDBRANCH  33  34
ENDBRANCH  32  33
ENDBRANCH  28  32
ENDBRANCH  27  28
ENDBRANCH  23  27
ENDBRANCH  22  23
ENDBRANCH  21  22
ENDBRANCH  18  21
ENDBRANCH  17  18
BRANCH  17  63
HETATM   63  O17 UNL     1      10.686  14.574  -4.436  1.00  0.00    -0.385 OA
HETATM   64  H38 UNL     1      11.472  14.840  -3.928  1.00  0.00     0.210 HD
ENDBRANCH  17  63
ENDBRANCH  14  17
ENDBRANCH  12  13
ENDBRANCH  11  12
ENDBRANCH   8  11
ENDBRANCH   6   7
ENDBRANCH   5   6
ENDBRANCH   4   5
ENDBRANCH   2   4
TORSDOF 27
ENDMDL
MODEL 11
REMARK VINA RESULT:      -6.1      5.163      8.522
REMARK  27 active torsions:
REMARK  status: ('A' for Active; 'I' for Inactive)
REMARK    1  A    between atoms: C2_2  and  S1_4 
REMARK    2  A    between atoms: S1_4  and  C3_5 
REMARK    3  A    between atoms: C3_5  and  C4_6 
REMARK    4  A    between atoms: C4_6  and  N1_7 
REMARK       I    between atoms: N1_7  and  C5_8 
REMARK    5  A    between atoms: C5_8  and  C6_10 
REMARK    6  A    between atoms: C6_10  and  C7_11 
REMARK    7  A    between atoms: C7_11  and  N2_12 
REMARK       I    between atoms: N2_12  and  C8_13 
REMARK    8  A    between atoms: C8_13  and  C9_15 
REMARK    9  A    between atoms: C9_15  and  C10_16 
REMARK   10  A    between atoms: C9_15  and  O17_54 
REMARK   11  A    between atoms: C10_16  and  C13_19 
REMARK   12  A    between atoms: C13_19  and  O4_20 
REMARK   13  A    between atoms: O4_20  and  P1_21 
REMARK   14  A    between atoms: P1_21  and  O6_23 
REMARK   15  A    between atoms: P1_21  and  O7_24 
REMARK   16  A    between atoms: O7_24  and  P2_25 
REMARK   17  A    between atoms: P2_25  and  O9_27 
REMARK   18  A    between atoms: P2_25  and  O10_28 
REMARK   19  A    between atoms: O10_28  and  C14_29 
REMARK   20  A    between atoms: C14_29  and  C15_30 
REMARK   21  A    between atoms: C16_31  and  O13_49 
REMARK   22  A    between atoms: C17_32  and  O12_48 
REMARK   23  A    between atoms: C18_33  and  N3_35 
REMARK   24  A    between atoms: C21_40  and  N7_47 
REMARK   25  A    between atoms: O13_49  and  P3_50 
REMARK   26  A    between atoms: P3_50  and  O15_52 
REMARK   27  A    between atoms: P3_50  and  O16_53 
ROOT
HETATM    1  C1  UNL     1      19.337   6.879 -12.010  1.00  0.00     0.104 C 
HETATM    2  C2  UNL     1      19.194   6.867 -10.518  1.00  0.00     0.182 C 
HETATM    3  O1  UNL     1      18.108   6.879  -9.945  1.00  0.00    -0.286 OA
ENDROOT
BRANCH   2   4
HETATM    4  S1  UNL     1      20.720   6.873  -9.644  1.00  0.00    -0.091 SA
BRANCH   4   5
HETATM    5  C3  UNL     1      21.072   8.660  -9.621  1.00  0.00     0.102 C 
BRANCH   5   6
HETATM    6  C4  UNL     1      20.081   9.426  -8.741  1.00  0.00     0.133 C 
BRANCH   6   7
HETATM    7  N1  UNL     1      20.296   9.198  -7.327  1.00  0.00    -0.360 N 
HETATM    8  C5  UNL     1      19.336   8.613  -6.534  1.00  0.00     0.219 C 
HETATM    9  O2  UNL     1      18.220   8.325  -6.952  1.00  0.00    -0.274 OA
HETATM   10  H8  UNL     1      21.180   9.471  -6.919  1.00  0.00     0.162 HD
BRANCH   8  11
HETATM   11  C6  UNL     1      19.782   8.415  -5.101  1.00  0.00     0.122 C 
BRANCH  11  12
HETATM   12  C7  UNL     1      18.808   9.049  -4.108  1.00  0.00     0.132 C 
BRANCH  12  13
HETATM   13  N2  UNL     1      18.206  10.269  -4.603  1.00  0.00    -0.358 N 
HETATM   14  C8  UNL     1      16.830  10.397  -4.654  1.00  0.00     0.247 C 
HETATM   15  O3  UNL     1      16.080   9.463  -4.402  1.00  0.00    -0.271 OA
HETATM   16  H13 UNL     1      18.747  11.118  -4.449  1.00  0.00     0.162 HD
BRANCH  14  17
HETATM   17  C9  UNL     1      16.327  11.799  -5.028  1.00  0.00     0.219 C 
BRANCH  17  18
HETATM   18  C10 UNL     1      15.300  12.400  -4.033  1.00  0.00     0.009 C 
HETATM   19  C11 UNL     1      15.617  12.025  -2.578  1.00  0.00     0.020 C 
HETATM   20  C12 UNL     1      15.254  13.938  -4.129  1.00  0.00     0.020 C 
BRANCH  18  21
HETATM   21  C13 UNL     1      13.919  11.808  -4.436  1.00  0.00     0.192 C 
BRANCH  21  22
HETATM   22  O4  UNL     1      13.609  12.042  -5.795  1.00  0.00    -0.296 OA
BRANCH  22  23
HETATM   23  P1  UNL     1      13.011  10.909  -6.759  1.00  0.00     0.401 P 
HETATM   24  O5  UNL     1      13.255  11.153  -8.215  1.00  0.00    -0.631 OA
BRANCH  23  25
HETATM   25  O6  UNL     1      11.455  10.749  -6.380  1.00  0.00    -0.307 OA
HETATM   26  H23 UNL     1      10.923  11.483  -6.714  1.00  0.00     0.222 HD
ENDBRANCH  23  25
BRANCH  23  27
HETATM   27  O7  UNL     1      13.607   9.542  -6.205  1.00  0.00    -0.195 OA
BRANCH  27  28
HETATM   28  P2  UNL     1      13.582   8.255  -7.144  1.00  0.00     0.401 P 
HETATM   29  O8  UNL     1      14.589   8.203  -8.247  1.00  0.00    -0.631 OA
BRANCH  28  30
HETATM   30  O9  UNL     1      13.688   7.044  -6.109  1.00  0.00    -0.307 OA
HETATM   31  H24 UNL     1      12.824   6.779  -5.708  1.00  0.00     0.222 HD
ENDBRANCH  28  30
BRANCH  28  32
HETATM   32  O10 UNL     1      12.054   8.130  -7.588  1.00  0.00    -0.294 OA
BRANCH  32  33
HETATM   33  C14 UNL     1      11.307   6.998  -7.225  1.00  0.00     0.215 C 
BRANCH  33  34
HETATM   34  C15 UNL     1      10.589   7.360  -5.926  1.00  0.00     0.180 C 
HETATM   35  C16 UNL     1       9.615   6.251  -5.549  1.00  0.00     0.197 C 
HETATM   36  C17 UNL     1       8.250   6.912  -5.579  1.00  0.00     0.199 C 
HETATM   37  C18 UNL     1       8.597   8.380  -5.321  1.00  0.00     0.262 C 
HETATM   38  O11 UNL     1       9.845   8.580  -6.019  1.00  0.00    -0.353 OA
BRANCH  35  39
HETATM   39  O13 UNL     1       9.958   5.786  -4.248  1.00  0.00    -0.286 OA
BRANCH  39  40
HETATM   40  P3  UNL     1      11.165   4.739  -4.186  1.00  0.00     0.391 P 
HETATM   41  O14 UNL     1      12.502   5.373  -3.971  1.00  0.00    -0.632 OA
BRANCH  40  42
HETATM   42  O15 UNL     1      10.936   3.938  -5.552  1.00  0.00    -0.307 OA
HETATM   43  H36 UNL     1      10.017   3.581  -5.597  1.00  0.00     0.222 HD
ENDBRANCH  40  42
BRANCH  40  44
HETATM   44  O16 UNL     1      10.645   3.723  -3.079  1.00  0.00    -0.307 OA
HETATM   45  H37 UNL     1      11.280   3.596  -2.356  1.00  0.00     0.222 HD
ENDBRANCH  40  44
ENDBRANCH  39  40
ENDBRANCH  35  39
BRANCH  36  46
HETATM   46  O12 UNL     1       7.369   6.273  -4.651  1.00  0.00    -0.388 OA
HETATM   47  H35 UNL     1       7.285   5.335  -4.949  1.00  0.00     0.210 HD
ENDBRANCH  36  46
BRANCH  37  48
HETATM   48  N3  UNL     1       7.607   9.290  -5.864  1.00  0.00    -0.297 N 
HETATM   49  C19 UNL     1       6.430   8.958  -6.492  1.00  0.00     0.188 A 
HETATM   50  N4  UNL     1       5.691  10.013  -6.757  1.00  0.00    -0.346 N 
HETATM   51  C20 UNL     1       6.424  11.082  -6.272  1.00  0.00     0.116 A 
HETATM   52  H4  UNL     1       4.781  10.038  -7.216  1.00  0.00     0.167 HD
HETATM   53  C21 UNL     1       6.168  12.463  -6.210  1.00  0.00     0.109 A 
HETATM   54  C23 UNL     1       7.631  10.652  -5.752  1.00  0.00     0.142 A 
HETATM   55  N5  UNL     1       7.111  13.274  -5.671  1.00  0.00    -0.341 N 
HETATM   56  C22 UNL     1       8.253  12.716  -5.224  1.00  0.00     0.183 A 
HETATM   57  H5  UNL     1       6.959  14.281  -5.606  1.00  0.00     0.167 HD
HETATM   58  N6  UNL     1       8.604  11.414  -5.223  1.00  0.00    -0.336 N 
HETATM   59  H6  UNL     1       9.491  11.054  -4.867  1.00  0.00     0.168 HD
BRANCH  53  60
HETATM   60  N7  UNL     1       5.001  13.044  -6.681  1.00  0.00    -0.287 NA
HETATM   61  H33 UNL     1       4.874  12.970  -7.688  1.00  0.00     0.125 HD
HETATM   62  H34 UNL     1       4.812  13.944  -6.263  1.00  0.00     0.125 HD
ENDBRANCH  53  60
ENDBRANCH  37  48
ENDBRANCH  33  34
ENDBRANCH  32  33
ENDBRANCH  28  32
ENDBRANCH  27  28
ENDBRANCH  23  27
ENDBRANCH  22  23
ENDBRANCH  21  22
ENDBRANCH  18  21
ENDBRANCH  17  18
BRANCH  17  63
HETATM   63  O17 UNL     1      17.430  12.704  -5.145  1.00  0.00    -0.385 OA
HETATM   64  H38 UNL     1      17.197  13.525  -4.680  1.00  0.00     0.210 HD
ENDBRANCH  17  63
ENDBRANCH  14  17
ENDBRANCH  12  13
ENDBRANCH  11  12
ENDBRANCH   8  11
ENDBRANCH   6   7
ENDBRANCH   5   6
ENDBRANCH   4   5
ENDBRANCH   2   4
TORSDOF 27
ENDMDL
MODEL 12
REMARK VINA RESULT:      -6.0      4.143      6.524
REMARK  27 active torsions:
REMARK  status: ('A' for Active; 'I' for Inactive)
REMARK    1  A    between atoms: C2_2  and  S1_4 
REMARK    2  A    between atoms: S1_4  and  C3_5 
REMARK    3  A    between atoms: C3_5  and  C4_6 
REMARK    4  A    between atoms: C4_6  and  N1_7 
REMARK       I    between atoms: N1_7  and  C5_8 
REMARK    5  A    between atoms: C5_8  and  C6_10 
REMARK    6  A    between atoms: C6_10  and  C7_11 
REMARK    7  A    between atoms: C7_11  and  N2_12 
REMARK       I    between atoms: N2_12  and  C8_13 
REMARK    8  A    between atoms: C8_13  and  C9_15 
REMARK    9  A    between atoms: C9_15  and  C10_16 
REMARK   10  A    between atoms: C9_15  and  O17_54 
REMARK   11  A    between atoms: C10_16  and  C13_19 
REMARK   12  A    between atoms: C13_19  and  O4_20 
REMARK   13  A    between atoms: O4_20  and  P1_21 
REMARK   14  A    between atoms: P1_21  and  O6_23 
REMARK   15  A    between atoms: P1_21  and  O7_24 
REMARK   16  A    between atoms: O7_24  and  P2_25 
REMARK   17  A    between atoms: P2_25  and  O9_27 
REMARK   18  A    between atoms: P2_25  and  O10_28 
REMARK   19  A    between atoms: O10_28  and  C14_29 
REMARK   20  A    between atoms: C14_29  and  C15_30 
REMARK   21  A    between atoms: C16_31  and  O13_49 
REMARK   22  A    between atoms: C17_32  and  O12_48 
REMARK   23  A    between atoms: C18_33  and  N3_35 
REMARK   24  A    between atoms: C21_40  and  N7_47 
REMARK   25  A    between atoms: O13_49  and  P3_50 
REMARK   26  A    between atoms: P3_50  and  O15_52 
REMARK   27  A    between atoms: P3_50  and  O16_53 
ROOT
HETATM    1  C1  UNL     1      13.517   7.628  -7.129  1.00  0.00     0.104 C 
HETATM    2  C2  UNL     1      12.356   7.173  -6.299  1.00  0.00     0.182 C 
HETATM    3  O1  UNL     1      12.369   6.145  -5.626  1.00  0.00    -0.286 OA
ENDROOT
BRANCH   2   4
HETATM    4  S1  UNL     1      10.943   8.216  -6.394  1.00  0.00    -0.091 SA
BRANCH   4   5
HETATM    5  C3  UNL     1       9.616   6.969  -6.336  1.00  0.00     0.102 C 
BRANCH   5   6
HETATM    6  C4  UNL     1       8.467   7.402  -5.424  1.00  0.00     0.133 C 
BRANCH   6   7
HETATM    7  N1  UNL     1       7.625   8.414  -6.027  1.00  0.00    -0.360 N 
HETATM    8  C5  UNL     1       7.659   9.726  -5.614  1.00  0.00     0.219 C 
HETATM    9  O2  UNL     1       8.338  10.101  -4.665  1.00  0.00    -0.274 OA
HETATM   10  H8  UNL     1       7.002   8.145  -6.777  1.00  0.00     0.162 HD
BRANCH   8  11
HETATM   11  C6  UNL     1       6.744  10.630  -6.411  1.00  0.00     0.122 C 
BRANCH  11  12
HETATM   12  C7  UNL     1       6.199  11.780  -5.565  1.00  0.00     0.132 C 
BRANCH  12  13
HETATM   13  N2  UNL     1       7.233  12.682  -5.101  1.00  0.00    -0.358 N 
HETATM   14  C8  UNL     1       7.828  13.569  -5.979  1.00  0.00     0.247 C 
HETATM   15  O3  UNL     1       7.600  13.548  -7.182  1.00  0.00    -0.271 OA
HETATM   16  H13 UNL     1       7.158  12.969  -4.128  1.00  0.00     0.162 HD
BRANCH  14  17
HETATM   17  C9  UNL     1       8.776  14.585  -5.324  1.00  0.00     0.219 C 
BRANCH  17  18
HETATM   18  C10 UNL     1      10.279  14.213  -5.414  1.00  0.00     0.009 C 
HETATM   19  C11 UNL     1      10.515  12.707  -5.228  1.00  0.00     0.020 C 
HETATM   20  C12 UNL     1      10.882  14.624  -6.773  1.00  0.00     0.020 C 
BRANCH  18  21
HETATM   21  C13 UNL     1      10.983  14.997  -4.270  1.00  0.00     0.192 C 
BRANCH  21  22
HETATM   22  O4  UNL     1      11.614  14.141  -3.340  1.00  0.00    -0.296 OA
BRANCH  22  23
HETATM   23  P1  UNL     1      13.070  14.435  -2.734  1.00  0.00     0.401 P 
HETATM   24  O5  UNL     1      13.329  15.879  -2.439  1.00  0.00    -0.631 OA
BRANCH  23  25
HETATM   25  O6  UNL     1      14.136  13.776  -3.744  1.00  0.00    -0.307 OA
HETATM   26  H23 UNL     1      13.728  13.514  -4.580  1.00  0.00     0.222 HD
ENDBRANCH  23  25
BRANCH  23  27
HETATM   27  O7  UNL     1      13.195  13.467  -1.478  1.00  0.00    -0.195 OA
BRANCH  27  28
HETATM   28  P2  UNL     1      14.645  13.022  -0.990  1.00  0.00     0.401 P 
HETATM   29  O8  UNL     1      15.230  11.805  -1.629  1.00  0.00    -0.631 OA
BRANCH  28  30
HETATM   30  O9  UNL     1      15.519  14.344  -1.187  1.00  0.00    -0.307 OA
HETATM   31  H24 UNL     1      14.988  15.154  -1.382  1.00  0.00     0.222 HD
ENDBRANCH  28  30
BRANCH  28  32
HETATM   32  O10 UNL     1      14.523  12.985   0.601  1.00  0.00    -0.294 OA
BRANCH  32  33
HETATM   33  C14 UNL     1      15.667  13.149   1.398  1.00  0.00     0.215 C 
BRANCH  33  34
HETATM   34  C15 UNL     1      15.433  14.412   2.225  1.00  0.00     0.180 C 
HETATM   35  C16 UNL     1      15.702  14.121   3.696  1.00  0.00     0.197 C 
HETATM   36  C17 UNL     1      14.371  14.359   4.384  1.00  0.00     0.199 C 
HETATM   37  C18 UNL     1      13.688  15.345   3.433  1.00  0.00     0.262 C 
HETATM   38  O11 UNL     1      14.096  14.911   2.117  1.00  0.00    -0.353 OA
BRANCH  35  39
HETATM   39  O13 UNL     1      16.708  15.022   4.147  1.00  0.00    -0.286 OA
BRANCH  39  40
HETATM   40  P3  UNL     1      18.139  14.369   4.432  1.00  0.00     0.391 P 
HETATM   41  O14 UNL     1      19.192  14.773   3.451  1.00  0.00    -0.632 OA
BRANCH  40  42
HETATM   42  O15 UNL     1      17.752  12.819   4.507  1.00  0.00    -0.307 OA
HETATM   43  H36 UNL     1      17.883  12.384   3.631  1.00  0.00     0.222 HD
ENDBRANCH  40  42
BRANCH  40  44
HETATM   44  O16 UNL     1      18.366  14.759   5.957  1.00  0.00    -0.307 OA
HETATM   45  H37 UNL     1      18.849  14.079   6.452  1.00  0.00     0.222 HD
ENDBRANCH  40  44
ENDBRANCH  39  40
ENDBRANCH  35  39
BRANCH  36  46
HETATM   46  O12 UNL     1      14.579  14.785   5.733  1.00  0.00    -0.388 OA
HETATM   47  H35 UNL     1      15.515  15.095   5.785  1.00  0.00     0.210 HD
ENDBRANCH  36  46
BRANCH  37  48
HETATM   48  N3  UNL     1      12.242  15.287   3.516  1.00  0.00    -0.297 N 
HETATM   49  C19 UNL     1      11.406  16.206   4.106  1.00  0.00     0.188 A 
HETATM   50  N4  UNL     1      10.137  15.929   3.901  1.00  0.00    -0.346 N 
HETATM   51  C20 UNL     1      10.151  14.776   3.136  1.00  0.00     0.116 A 
HETATM   52  H4  UNL     1       9.323  16.448   4.231  1.00  0.00     0.167 HD
HETATM   53  C21 UNL     1       9.128  14.004   2.557  1.00  0.00     0.109 A 
HETATM   54  C23 UNL     1      11.448  14.346   2.924  1.00  0.00     0.142 A 
HETATM   55  N5  UNL     1       9.470  12.896   1.856  1.00  0.00    -0.341 N 
HETATM   56  C22 UNL     1      10.777  12.584   1.751  1.00  0.00     0.183 A 
HETATM   57  H5  UNL     1       8.756  12.313   1.419  1.00  0.00     0.167 HD
HETATM   58  N6  UNL     1      11.839  13.248   2.252  1.00  0.00    -0.336 N 
HETATM   59  H6  UNL     1      12.810  12.958   2.136  1.00  0.00     0.168 HD
BRANCH  53  60
HETATM   60  N7  UNL     1       7.782  14.311   2.675  1.00  0.00    -0.287 NA
HETATM   61  H33 UNL     1       7.595  15.242   3.041  1.00  0.00     0.125 HD
HETATM   62  H34 UNL     1       7.236  13.552   3.060  1.00  0.00     0.125 HD
ENDBRANCH  53  60
ENDBRANCH  37  48
ENDBRANCH  33  34
ENDBRANCH  32  33
ENDBRANCH  28  32
ENDBRANCH  27  28
ENDBRANCH  23  27
ENDBRANCH  22  23
ENDBRANCH  21  22
ENDBRANCH  18  21
ENDBRANCH  17  18
BRANCH  17  63
HETATM   63  O17 UNL     1       8.592  15.879  -5.908  1.00  0.00    -0.385 OA
HETATM   64  H38 UNL     1       9.467  16.238  -6.128  1.00  0.00     0.210 HD
ENDBRANCH  17  63
ENDBRANCH  14  17
ENDBRANCH  12  13
ENDBRANCH  11  12
ENDBRANCH   8  11
ENDBRANCH   6   7
ENDBRANCH   5   6
ENDBRANCH   4   5
ENDBRANCH   2   4
TORSDOF 27
ENDMDL
MODEL 13
REMARK VINA RESULT:      -6.0      4.177      5.881
REMARK  27 active torsions:
REMARK  status: ('A' for Active; 'I' for Inactive)
REMARK    1  A    between atoms: C2_2  and  S1_4 
REMARK    2  A    between atoms: S1_4  and  C3_5 
REMARK    3  A    between atoms: C3_5  and  C4_6 
REMARK    4  A    between atoms: C4_6  and  N1_7 
REMARK       I    between atoms: N1_7  and  C5_8 
REMARK    5  A    between atoms: C5_8  and  C6_10 
REMARK    6  A    between atoms: C6_10  and  C7_11 
REMARK    7  A    between atoms: C7_11  and  N2_12 
REMARK       I    between atoms: N2_12  and  C8_13 
REMARK    8  A    between atoms: C8_13  and  C9_15 
REMARK    9  A    between atoms: C9_15  and  C10_16 
REMARK   10  A    between atoms: C9_15  and  O17_54 
REMARK   11  A    between atoms: C10_16  and  C13_19 
REMARK   12  A    between atoms: C13_19  and  O4_20 
REMARK   13  A    between atoms: O4_20  and  P1_21 
REMARK   14  A    between atoms: P1_21  and  O6_23 
REMARK   15  A    between atoms: P1_21  and  O7_24 
REMARK   16  A    between atoms: O7_24  and  P2_25 
REMARK   17  A    between atoms: P2_25  and  O9_27 
REMARK   18  A    between atoms: P2_25  and  O10_28 
REMARK   19  A    between atoms: O10_28  and  C14_29 
REMARK   20  A    between atoms: C14_29  and  C15_30 
REMARK   21  A    between atoms: C16_31  and  O13_49 
REMARK   22  A    between atoms: C17_32  and  O12_48 
REMARK   23  A    between atoms: C18_33  and  N3_35 
REMARK   24  A    between atoms: C21_40  and  N7_47 
REMARK   25  A    between atoms: O13_49  and  P3_50 
REMARK   26  A    between atoms: P3_50  and  O15_52 
REMARK   27  A    between atoms: P3_50  and  O16_53 
ROOT
HETATM    1  C1  UNL     1      12.420   0.489  -1.070  1.00  0.00     0.104 C 
HETATM    2  C2  UNL     1      12.162   0.904  -2.486  1.00  0.00     0.182 C 
HETATM    3  O1  UNL     1      12.896   0.597  -3.423  1.00  0.00    -0.286 OA
ENDROOT
BRANCH   2   4
HETATM    4  S1  UNL     1      10.734   1.907  -2.700  1.00  0.00    -0.091 SA
BRANCH   4   5
HETATM    5  C3  UNL     1      11.517   3.514  -3.051  1.00  0.00     0.102 C 
BRANCH   5   6
HETATM    6  C4  UNL     1      11.668   3.759  -4.553  1.00  0.00     0.133 C 
BRANCH   6   7
HETATM    7  N1  UNL     1      12.620   4.808  -4.856  1.00  0.00    -0.360 N 
HETATM    8  C5  UNL     1      12.214   6.066  -5.236  1.00  0.00     0.219 C 
HETATM    9  O2  UNL     1      11.037   6.353  -5.418  1.00  0.00    -0.274 OA
HETATM   10  H8  UNL     1      13.608   4.606  -4.778  1.00  0.00     0.162 HD
BRANCH   8  11
HETATM   11  C6  UNL     1      13.364   7.027  -5.452  1.00  0.00     0.122 C 
BRANCH  11  12
HETATM   12  C7  UNL     1      14.708   6.402  -5.078  1.00  0.00     0.132 C 
BRANCH  12  13
HETATM   13  N2  UNL     1      15.447   7.184  -4.109  1.00  0.00    -0.358 N 
HETATM   14  C8  UNL     1      16.630   7.804  -4.471  1.00  0.00     0.247 C 
HETATM   15  O3  UNL     1      17.152   7.624  -5.564  1.00  0.00    -0.271 OA
HETATM   16  H13 UNL     1      14.886   7.636  -3.390  1.00  0.00     0.162 HD
BRANCH  14  17
HETATM   17  C9  UNL     1      17.217   8.742  -3.406  1.00  0.00     0.219 C 
BRANCH  17  18
HETATM   18  C10 UNL     1      16.987  10.251  -3.682  1.00  0.00     0.009 C 
HETATM   19  C11 UNL     1      18.214  10.915  -4.324  1.00  0.00     0.020 C 
HETATM   20  C12 UNL     1      15.781  10.477  -4.616  1.00  0.00     0.020 C 
BRANCH  18  21
HETATM   21  C13 UNL     1      16.706  10.900  -2.297  1.00  0.00     0.192 C 
BRANCH  21  22
HETATM   22  O4  UNL     1      17.307  12.173  -2.167  1.00  0.00    -0.296 OA
BRANCH  22  23
HETATM   23  P1  UNL     1      16.468  13.539  -2.200  1.00  0.00     0.401 P 
HETATM   24  O5  UNL     1      16.800  14.433  -3.353  1.00  0.00    -0.631 OA
BRANCH  23  25
HETATM   25  O6  UNL     1      16.658  14.237  -0.762  1.00  0.00    -0.307 OA
HETATM   26  H23 UNL     1      17.559  14.561  -0.633  1.00  0.00     0.222 HD
ENDBRANCH  23  25
BRANCH  23  27
HETATM   27  O7  UNL     1      14.945  13.088  -2.126  1.00  0.00    -0.195 OA
BRANCH  27  28
HETATM   28  P2  UNL     1      13.882  14.070  -1.459  1.00  0.00     0.401 P 
HETATM   29  O8  UNL     1      14.138  15.535  -1.593  1.00  0.00    -0.631 OA
BRANCH  28  30
HETATM   30  O9  UNL     1      12.495  13.591  -2.088  1.00  0.00    -0.307 OA
HETATM   31  H24 UNL     1      11.864  14.327  -2.282  1.00  0.00     0.222 HD
ENDBRANCH  28  30
BRANCH  28  32
HETATM   32  O10 UNL     1      13.733  13.521   0.033  1.00  0.00    -0.294 OA
BRANCH  32  33
HETATM   33  C14 UNL     1      12.601  12.775   0.398  1.00  0.00     0.215 C 
BRANCH  33  34
HETATM   34  C15 UNL     1      12.716  12.533   1.902  1.00  0.00     0.180 C 
HETATM   35  C16 UNL     1      11.998  13.643   2.658  1.00  0.00     0.197 C 
HETATM   36  C17 UNL     1      13.085  14.321   3.470  1.00  0.00     0.199 C 
HETATM   37  C18 UNL     1      14.119  13.203   3.622  1.00  0.00     0.262 C 
HETATM   38  O11 UNL     1      14.072  12.500   2.361  1.00  0.00    -0.353 OA
BRANCH  35  39
HETATM   39  O13 UNL     1      11.006  13.042   3.485  1.00  0.00    -0.286 OA
BRANCH  39  40
HETATM   40  P3  UNL     1       9.555  13.710   3.417  1.00  0.00     0.391 P 
HETATM   41  O14 UNL     1       9.536  15.152   3.807  1.00  0.00    -0.632 OA
BRANCH  40  42
HETATM   42  O15 UNL     1       8.713  12.688   4.314  1.00  0.00    -0.307 OA
HETATM   43  H36 UNL     1       8.530  11.856   3.817  1.00  0.00     0.222 HD
ENDBRANCH  40  42
BRANCH  40  44
HETATM   44  O16 UNL     1       9.109  13.342   1.935  1.00  0.00    -0.307 OA
HETATM   45  H37 UNL     1       9.772  13.586   1.271  1.00  0.00     0.222 HD
ENDBRANCH  40  44
ENDBRANCH  39  40
ENDBRANCH  35  39
BRANCH  36  46
HETATM   46  O12 UNL     1      12.536  14.875   4.669  1.00  0.00    -0.388 OA
HETATM   47  H35 UNL     1      13.054  14.489   5.415  1.00  0.00     0.210 HD
ENDBRANCH  36  46
BRANCH  37  48
HETATM   48  N3  UNL     1      15.462  13.710   3.823  1.00  0.00    -0.297 N 
HETATM   49  C19 UNL     1      15.830  15.013   4.066  1.00  0.00     0.188 A 
HETATM   50  N4  UNL     1      17.114  15.127   4.330  1.00  0.00    -0.346 N 
HETATM   51  C20 UNL     1      17.601  13.833   4.259  1.00  0.00     0.116 A 
HETATM   52  H4  UNL     1      17.634  15.978   4.540  1.00  0.00     0.167 HD
HETATM   53  C21 UNL     1      18.875  13.282   4.478  1.00  0.00     0.109 A 
HETATM   54  C23 UNL     1      16.595  12.951   3.907  1.00  0.00     0.142 A 
HETATM   55  N5  UNL     1      19.040  11.946   4.316  1.00  0.00    -0.341 N 
HETATM   56  C22 UNL     1      17.973  11.211   3.946  1.00  0.00     0.183 A 
HETATM   57  H5  UNL     1      19.949  11.509   4.469  1.00  0.00     0.167 HD
HETATM   58  N6  UNL     1      16.710  11.625   3.718  1.00  0.00    -0.336 N 
HETATM   59  H6  UNL     1      15.942  11.013   3.439  1.00  0.00     0.168 HD
BRANCH  53  60
HETATM   60  N7  UNL     1      19.979  14.035   4.844  1.00  0.00    -0.287 NA
HETATM   61  H33 UNL     1      20.873  13.599   4.629  1.00  0.00     0.125 HD
HETATM   62  H34 UNL     1      19.885  14.455   5.759  1.00  0.00     0.125 HD
ENDBRANCH  53  60
ENDBRANCH  37  48
ENDBRANCH  33  34
ENDBRANCH  32  33
ENDBRANCH  28  32
ENDBRANCH  27  28
ENDBRANCH  23  27
ENDBRANCH  22  23
ENDBRANCH  21  22
ENDBRANCH  18  21
ENDBRANCH  17  18
BRANCH  17  63
HETATM   63  O17 UNL     1      16.675   8.428  -2.119  1.00  0.00    -0.385 OA
HETATM   64  H38 UNL     1      15.750   8.727  -2.099  1.00  0.00     0.210 HD
ENDBRANCH  17  63
ENDBRANCH  14  17
ENDBRANCH  12  13
ENDBRANCH  11  12
ENDBRANCH   8  11
ENDBRANCH   6   7
ENDBRANCH   5   6
ENDBRANCH   4   5
ENDBRANCH   2   4
TORSDOF 27
ENDMDL
MODEL 14
REMARK VINA RESULT:      -5.9      3.867      5.116
REMARK  27 active torsions:
REMARK  status: ('A' for Active; 'I' for Inactive)
REMARK    1  A    between atoms: C2_2  and  S1_4 
REMARK    2  A    between atoms: S1_4  and  C3_5 
REMARK    3  A    between atoms: C3_5  and  C4_6 
REMARK    4  A    between atoms: C4_6  and  N1_7 
REMARK       I    between atoms: N1_7  and  C5_8 
REMARK    5  A    between atoms: C5_8  and  C6_10 
REMARK    6  A    between atoms: C6_10  and  C7_11 
REMARK    7  A    between atoms: C7_11  and  N2_12 
REMARK       I    between atoms: N2_12  and  C8_13 
REMARK    8  A    between atoms: C8_13  and  C9_15 
REMARK    9  A    between atoms: C9_15  and  C10_16 
REMARK   10  A    between atoms: C9_15  and  O17_54 
REMARK   11  A    between atoms: C10_16  and  C13_19 
REMARK   12  A    between atoms: C13_19  and  O4_20 
REMARK   13  A    between atoms: O4_20  and  P1_21 
REMARK   14  A    between atoms: P1_21  and  O6_23 
REMARK   15  A    between atoms: P1_21  and  O7_24 
REMARK   16  A    between atoms: O7_24  and  P2_25 
REMARK   17  A    between atoms: P2_25  and  O9_27 
REMARK   18  A    between atoms: P2_25  and  O10_28 
REMARK   19  A    between atoms: O10_28  and  C14_29 
REMARK   20  A    between atoms: C14_29  and  C15_30 
REMARK   21  A    between atoms: C16_31  and  O13_49 
REMARK   22  A    between atoms: C17_32  and  O12_48 
REMARK   23  A    between atoms: C18_33  and  N3_35 
REMARK   24  A    between atoms: C21_40  and  N7_47 
REMARK   25  A    between atoms: O13_49  and  P3_50 
REMARK   26  A    between atoms: P3_50  and  O15_52 
REMARK   27  A    between atoms: P3_50  and  O16_53 
ROOT
HETATM    1  C1  UNL     1       7.576   5.752  -3.394  1.00  0.00     0.104 C 
HETATM    2  C2  UNL     1       8.360   5.445  -4.633  1.00  0.00     0.182 C 
HETATM    3  O1  UNL     1       7.881   5.494  -5.764  1.00  0.00    -0.286 OA
ENDROOT
BRANCH   2   4
HETATM    4  S1  UNL     1      10.026   4.966  -4.338  1.00  0.00    -0.091 SA
BRANCH   4   5
HETATM    5  C3  UNL     1      10.906   6.276  -5.247  1.00  0.00     0.102 C 
BRANCH   5   6
HETATM    6  C4  UNL     1      12.107   5.726  -6.019  1.00  0.00     0.133 C 
BRANCH   6   7
HETATM    7  N1  UNL     1      12.905   6.769  -6.630  1.00  0.00    -0.360 N 
HETATM    8  C5  UNL     1      12.450   7.491  -7.708  1.00  0.00     0.219 C 
HETATM    9  O2  UNL     1      11.387   7.246  -8.266  1.00  0.00    -0.274 OA
HETATM   10  H8  UNL     1      13.817   6.973  -6.244  1.00  0.00     0.162 HD
BRANCH   8  11
HETATM   11  C6  UNL     1      13.413   8.569  -8.157  1.00  0.00     0.122 C 
BRANCH  11  12
HETATM   12  C7  UNL     1      14.597   7.991  -8.931  1.00  0.00     0.132 C 
BRANCH  12  13
HETATM   13  N2  UNL     1      15.865   8.578  -8.551  1.00  0.00    -0.358 N 
HETATM   14  C8  UNL     1      16.493   8.184  -7.383  1.00  0.00     0.247 C 
HETATM   15  O3  UNL     1      15.960   7.430  -6.579  1.00  0.00    -0.271 OA
HETATM   16  H13 UNL     1      16.460   8.873  -9.323  1.00  0.00     0.162 HD
BRANCH  14  17
HETATM   17  C9  UNL     1      17.907   8.751  -7.190  1.00  0.00     0.219 C 
BRANCH  17  18
HETATM   18  C10 UNL     1      17.956  10.275  -6.904  1.00  0.00     0.009 C 
HETATM   19  C11 UNL     1      18.758  11.038  -7.968  1.00  0.00     0.020 C 
HETATM   20  C12 UNL     1      16.541  10.885  -6.847  1.00  0.00     0.020 C 
BRANCH  18  21
HETATM   21  C13 UNL     1      18.649  10.427  -5.519  1.00  0.00     0.192 C 
BRANCH  21  22
HETATM   22  O4  UNL     1      17.719  10.553  -4.463  1.00  0.00    -0.296 OA
BRANCH  22  23
HETATM   23  P1  UNL     1      17.498   9.414  -3.356  1.00  0.00     0.401 P 
HETATM   24  O5  UNL     1      18.738   8.653  -3.005  1.00  0.00    -0.631 OA
BRANCH  23  25
HETATM   25  O6  UNL     1      16.292   8.485  -3.880  1.00  0.00    -0.307 OA
HETATM   26  H23 UNL     1      15.452   8.712  -3.460  1.00  0.00     0.222 HD
ENDBRANCH  23  25
BRANCH  23  27
HETATM   27  O7  UNL     1      16.806  10.159  -2.133  1.00  0.00    -0.195 OA
BRANCH  27  28
HETATM   28  P2  UNL     1      17.406  11.549  -1.638  1.00  0.00     0.401 P 
HETATM   29  O8  UNL     1      18.892  11.694  -1.669  1.00  0.00    -0.631 OA
BRANCH  28  30
HETATM   30  O9  UNL     1      16.628  12.621  -2.530  1.00  0.00    -0.307 OA
HETATM   31  H24 UNL     1      17.220  13.216  -3.053  1.00  0.00     0.222 HD
ENDBRANCH  28  30
BRANCH  28  32
HETATM   32  O10 UNL     1      16.710  11.788  -0.221  1.00  0.00    -0.294 OA
BRANCH  32  33
HETATM   33  C14 UNL     1      15.494  12.484  -0.143  1.00  0.00     0.215 C 
BRANCH  33  34
HETATM   34  C15 UNL     1      15.642  13.473   1.012  1.00  0.00     0.180 C 
HETATM   35  C16 UNL     1      16.137  12.744   2.254  1.00  0.00     0.197 C 
HETATM   36  C17 UNL     1      15.024  12.917   3.271  1.00  0.00     0.199 C 
HETATM   37  C18 UNL     1      14.346  14.203   2.792  1.00  0.00     0.262 C 
HETATM   38  O11 UNL     1      14.412  14.125   1.350  1.00  0.00    -0.353 OA
BRANCH  35  39
HETATM   39  O13 UNL     1      17.349  13.363   2.675  1.00  0.00    -0.286 OA
BRANCH  39  40
HETATM   40  P3  UNL     1      18.578  12.371   2.925  1.00  0.00     0.391 P 
HETATM   41  O14 UNL     1      19.563  12.875   3.929  1.00  0.00    -0.632 OA
BRANCH  40  42
HETATM   42  O15 UNL     1      19.094  12.151   1.426  1.00  0.00    -0.307 OA
HETATM   43  H36 UNL     1      19.181  11.188   1.226  1.00  0.00     0.222 HD
ENDBRANCH  40  42
BRANCH  40  44
HETATM   44  O16 UNL     1      17.823  11.010   3.251  1.00  0.00    -0.307 OA
HETATM   45  H37 UNL     1      16.948  11.150   3.646  1.00  0.00     0.222 HD
ENDBRANCH  40  44
ENDBRANCH  39  40
ENDBRANCH  35  39
BRANCH  36  46
HETATM   46  O12 UNL     1      15.559  12.912   4.597  1.00  0.00    -0.388 OA
HETATM   47  H35 UNL     1      14.786  12.971   5.208  1.00  0.00     0.210 HD
ENDBRANCH  36  46
BRANCH  37  48
HETATM   48  N3  UNL     1      12.955  14.280   3.191  1.00  0.00    -0.297 N 
HETATM   49  C19 UNL     1      12.414  15.083   4.168  1.00  0.00     0.188 A 
HETATM   50  N4  UNL     1      11.102  15.013   4.201  1.00  0.00    -0.346 N 
HETATM   51  C20 UNL     1      10.774  14.124   3.193  1.00  0.00     0.116 A 
HETATM   52  H4  UNL     1      10.466  15.504   4.830  1.00  0.00     0.167 HD
HETATM   53  C21 UNL     1       9.545  13.659   2.694  1.00  0.00     0.109 A 
HETATM   54  C23 UNL     1      11.915  13.632   2.585  1.00  0.00     0.142 A 
HETATM   55  N5  UNL     1       9.554  12.760   1.680  1.00  0.00    -0.341 N 
HETATM   56  C22 UNL     1      10.746  12.351   1.201  1.00  0.00     0.183 A 
HETATM   57  H5  UNL     1       8.682  12.402   1.290  1.00  0.00     0.167 HD
HETATM   58  N6  UNL     1      11.980  12.731   1.589  1.00  0.00    -0.336 N 
HETATM   59  H6  UNL     1      12.848  12.381   1.183  1.00  0.00     0.168 HD
BRANCH  53  60
HETATM   60  N7  UNL     1       8.317  14.064   3.194  1.00  0.00    -0.287 NA
HETATM   61  H33 UNL     1       8.368  14.543   4.091  1.00  0.00     0.125 HD
HETATM   62  H34 UNL     1       7.598  13.361   3.092  1.00  0.00     0.125 HD
ENDBRANCH  53  60
ENDBRANCH  37  48
ENDBRANCH  33  34
ENDBRANCH  32  33
ENDBRANCH  28  32
ENDBRANCH  27  28
ENDBRANCH  23  27
ENDBRANCH  22  23
ENDBRANCH  21  22
ENDBRANCH  18  21
ENDBRANCH  17  18
BRANCH  17  63
HETATM   63  O17 UNL     1      18.571   8.066  -6.122  1.00  0.00    -0.385 OA
HETATM   64  H38 UNL     1      18.548   8.638  -5.337  1.00  0.00     0.210 HD
ENDBRANCH  17  63
ENDBRANCH  14  17
ENDBRANCH  12  13
ENDBRANCH  11  12
ENDBRANCH   8  11
ENDBRANCH   6   7
ENDBRANCH   5   6
ENDBRANCH   4   5
ENDBRANCH   2   4
TORSDOF 27
ENDMDL
MODEL 15
REMARK VINA RESULT:      -5.8      4.207      8.576
REMARK  27 active torsions:
REMARK  status: ('A' for Active; 'I' for Inactive)
REMARK    1  A    between atoms: C2_2  and  S1_4 
REMARK    2  A    between atoms: S1_4  and  C3_5 
REMARK    3  A    between atoms: C3_5  and  C4_6 
REMARK    4  A    between atoms: C4_6  and  N1_7 
REMARK       I    between atoms: N1_7  and  C5_8 
REMARK    5  A    between atoms: C5_8  and  C6_10 
REMARK    6  A    between atoms: C6_10  and  C7_11 
REMARK    7  A    between atoms: C7_11  and  N2_12 
REMARK       I    between atoms: N2_12  and  C8_13 
REMARK    8  A    between atoms: C8_13  and  C9_15 
REMARK    9  A    between atoms: C9_15  and  C10_16 
REMARK   10  A    between atoms: C9_15  and  O17_54 
REMARK   11  A    between atoms: C10_16  and  C13_19 
REMARK   12  A    between atoms: C13_19  and  O4_20 
REMARK   13  A    between atoms: O4_20  and  P1_21 
REMARK   14  A    between atoms: P1_21  and  O6_23 
REMARK   15  A    between atoms: P1_21  and  O7_24 
REMARK   16  A    between atoms: O7_24  and  P2_25 
REMARK   17  A    between atoms: P2_25  and  O9_27 
REMARK   18  A    between atoms: P2_25  and  O10_28 
REMARK   19  A    between atoms: O10_28  and  C14_29 
REMARK   20  A    between atoms: C14_29  and  C15_30 
REMARK   21  A    between atoms: C16_31  and  O13_49 
REMARK   22  A    between atoms: C17_32  and  O12_48 
REMARK   23  A    between atoms: C18_33  and  N3_35 
REMARK   24  A    between atoms: C21_40  and  N7_47 
REMARK   25  A    between atoms: O13_49  and  P3_50 
REMARK   26  A    between atoms: P3_50  and  O15_52 
REMARK   27  A    between atoms: P3_50  and  O16_53 
ROOT
HETATM    1  C1  UNL     1      11.692  13.695   0.765  1.00  0.00     0.104 C 
HETATM    2  C2  UNL     1      12.710  12.917   1.542  1.00  0.00     0.182 C 
HETATM    3  O1  UNL     1      12.466  12.373   2.617  1.00  0.00    -0.286 OA
ENDROOT
BRANCH   2   4
HETATM    4  S1  UNL     1      14.307  12.876   0.808  1.00  0.00    -0.091 SA
BRANCH   4   5
HETATM    5  C3  UNL     1      13.853  12.656  -0.943  1.00  0.00     0.102 C 
BRANCH   5   6
HETATM    6  C4  UNL     1      15.083  12.644  -1.853  1.00  0.00     0.133 C 
BRANCH   6   7
HETATM    7  N1  UNL     1      15.732  11.350  -1.900  1.00  0.00    -0.360 N 
HETATM    8  C5  UNL     1      16.613  11.018  -2.902  1.00  0.00     0.219 C 
HETATM    9  O2  UNL     1      16.841  11.757  -3.852  1.00  0.00    -0.274 OA
HETATM   10  H8  UNL     1      15.533  10.680  -1.169  1.00  0.00     0.162 HD
BRANCH   8  11
HETATM   11  C6  UNL     1      17.221   9.642  -2.734  1.00  0.00     0.122 C 
BRANCH  11  12
HETATM   12  C7  UNL     1      18.263   9.343  -3.811  1.00  0.00     0.132 C 
BRANCH  12  13
HETATM   13  N2  UNL     1      17.736   9.445  -5.155  1.00  0.00    -0.358 N 
HETATM   14  C8  UNL     1      17.118   8.358  -5.745  1.00  0.00     0.247 C 
HETATM   15  O3  UNL     1      17.097   7.254  -5.217  1.00  0.00    -0.271 OA
HETATM   16  H13 UNL     1      17.413  10.370  -5.430  1.00  0.00     0.162 HD
BRANCH  14  17
HETATM   17  C9  UNL     1      16.450   8.652  -7.097  1.00  0.00     0.219 C 
BRANCH  17  18
HETATM   18  C10 UNL     1      15.008   9.216  -6.992  1.00  0.00     0.009 C 
HETATM   19  C11 UNL     1      14.082   8.641  -8.073  1.00  0.00     0.020 C 
HETATM   20  C12 UNL     1      14.381   8.911  -5.616  1.00  0.00     0.020 C 
BRANCH  18  21
HETATM   21  C13 UNL     1      15.137  10.755  -7.180  1.00  0.00     0.192 C 
BRANCH  21  22
HETATM   22  O4  UNL     1      14.345  11.478  -6.260  1.00  0.00    -0.296 OA
BRANCH  22  23
HETATM   23  P1  UNL     1      12.931  12.126  -6.650  1.00  0.00     0.401 P 
HETATM   24  O5  UNL     1      11.909  11.134  -7.111  1.00  0.00    -0.631 OA
BRANCH  23  25
HETATM   25  O6  UNL     1      13.232  13.292  -7.718  1.00  0.00    -0.307 OA
HETATM   26  H23 UNL     1      13.441  12.937  -8.592  1.00  0.00     0.222 HD
ENDBRANCH  23  25
BRANCH  23  27
HETATM   27  O7  UNL     1      12.503  12.977  -5.376  1.00  0.00    -0.195 OA
BRANCH  27  28
HETATM   28  P2  UNL     1      10.985  13.438  -5.231  1.00  0.00     0.401 P 
HETATM   29  O8  UNL     1      10.722  14.647  -4.393  1.00  0.00    -0.631 OA
BRANCH  28  30
HETATM   30  O9  UNL     1      10.499  13.578  -6.746  1.00  0.00    -0.307 OA
HETATM   31  H24 UNL     1      10.563  12.741  -7.269  1.00  0.00     0.222 HD
ENDBRANCH  28  30
BRANCH  28  32
HETATM   32  O10 UNL     1      10.217  12.107  -4.797  1.00  0.00    -0.294 OA
BRANCH  32  33
HETATM   33  C14 UNL     1       8.822  12.026  -4.930  1.00  0.00     0.215 C 
BRANCH  33  34
HETATM   34  C15 UNL     1       8.556  10.958  -5.989  1.00  0.00     0.180 C 
HETATM   35  C16 UNL     1       7.081  10.577  -5.978  1.00  0.00     0.197 C 
HETATM   36  C17 UNL     1       7.066   9.107  -5.605  1.00  0.00     0.199 C 
HETATM   37  C18 UNL     1       8.449   8.643  -6.068  1.00  0.00     0.262 C 
HETATM   38  O11 UNL     1       9.316   9.762  -5.780  1.00  0.00    -0.353 OA
BRANCH  35  39
HETATM   39  O13 UNL     1       6.556  10.806  -7.281  1.00  0.00    -0.286 OA
BRANCH  39  40
HETATM   40  P3  UNL     1       5.276  11.762  -7.351  1.00  0.00     0.391 P 
HETATM   41  O14 UNL     1       5.498  13.111  -6.748  1.00  0.00    -0.632 OA
BRANCH  40  42
HETATM   42  O15 UNL     1       4.166  10.824  -6.682  1.00  0.00    -0.307 OA
HETATM   43  H36 UNL     1       3.260  11.112  -6.948  1.00  0.00     0.222 HD
ENDBRANCH  40  42
BRANCH  40  44
HETATM   44  O16 UNL     1       4.919  11.697  -8.900  1.00  0.00    -0.307 OA
HETATM   45  H37 UNL     1       4.018  11.377  -9.065  1.00  0.00     0.222 HD
ENDBRANCH  40  44
ENDBRANCH  39  40
ENDBRANCH  35  39
BRANCH  36  46
HETATM   46  O12 UNL     1       5.929   8.461  -6.183  1.00  0.00    -0.388 OA
HETATM   47  H35 UNL     1       5.409   8.088  -5.432  1.00  0.00     0.210 HD
ENDBRANCH  36  46
BRANCH  37  48
HETATM   48  N3  UNL     1       8.922   7.486  -5.334  1.00  0.00    -0.297 N 
HETATM   49  C19 UNL     1       8.356   6.924  -4.214  1.00  0.00     0.188 A 
HETATM   50  N4  UNL     1       8.952   5.806  -3.861  1.00  0.00    -0.346 N 
HETATM   51  C20 UNL     1       9.951   5.632  -4.802  1.00  0.00     0.116 A 
HETATM   52  H4  UNL     1       8.728   5.202  -3.070  1.00  0.00     0.167 HD
HETATM   53  C21 UNL     1      10.902   4.617  -5.005  1.00  0.00     0.109 A 
HETATM   54  C23 UNL     1       9.969   6.685  -5.698  1.00  0.00     0.142 A 
HETATM   55  N5  UNL     1      11.774   4.741  -6.036  1.00  0.00    -0.341 N 
HETATM   56  C22 UNL     1      11.689   5.838  -6.815  1.00  0.00     0.183 A 
HETATM   57  H5  UNL     1      12.476   4.023  -6.217  1.00  0.00     0.167 HD
HETATM   58  N6  UNL     1      10.819   6.864  -6.724  1.00  0.00    -0.336 N 
HETATM   59  H6  UNL     1      10.808   7.670  -7.350  1.00  0.00     0.168 HD
BRANCH  53  60
HETATM   60  N7  UNL     1      11.004   3.495  -4.198  1.00  0.00    -0.287 NA
HETATM   61  H33 UNL     1      10.382   3.500  -3.393  1.00  0.00     0.125 HD
HETATM   62  H34 UNL     1      11.961   3.214  -4.032  1.00  0.00     0.125 HD
ENDBRANCH  53  60
ENDBRANCH  37  48
ENDBRANCH  33  34
ENDBRANCH  32  33
ENDBRANCH  28  32
ENDBRANCH  27  28
ENDBRANCH  23  27
ENDBRANCH  22  23
ENDBRANCH  21  22
ENDBRANCH  18  21
ENDBRANCH  17  18
BRANCH  17  63
HETATM   63  O17 UNL     1      17.245   9.575  -7.849  1.00  0.00    -0.385 OA
HETATM   64  H38 UNL     1      17.393   9.196  -8.732  1.00  0.00     0.210 HD
ENDBRANCH  17  63
ENDBRANCH  14  17
ENDBRANCH  12  13
ENDBRANCH  11  12
ENDBRANCH   8  11
ENDBRANCH   6   7
ENDBRANCH   5   6
ENDBRANCH   4   5
ENDBRANCH   2   4
TORSDOF 27
ENDMDL
MODEL 16
REMARK VINA RESULT:      -5.7      3.651      9.731
REMARK  27 active torsions:
REMARK  status: ('A' for Active; 'I' for Inactive)
REMARK    1  A    between atoms: C2_2  and  S1_4 
REMARK    2  A    between atoms: S1_4  and  C3_5 
REMARK    3  A    between atoms: C3_5  and  C4_6 
REMARK    4  A    between atoms: C4_6  and  N1_7 
REMARK       I    between atoms: N1_7  and  C5_8 
REMARK    5  A    between atoms: C5_8  and  C6_10 
REMARK    6  A    between atoms: C6_10  and  C7_11 
REMARK    7  A    between atoms: C7_11  and  N2_12 
REMARK       I    between atoms: N2_12  and  C8_13 
REMARK    8  A    between atoms: C8_13  and  C9_15 
REMARK    9  A    between atoms: C9_15  and  C10_16 
REMARK   10  A    between atoms: C9_15  and  O17_54 
REMARK   11  A    between atoms: C10_16  and  C13_19 
REMARK   12  A    between atoms: C13_19  and  O4_20 
REMARK   13  A    between atoms: O4_20  and  P1_21 
REMARK   14  A    between atoms: P1_21  and  O6_23 
REMARK   15  A    between atoms: P1_21  and  O7_24 
REMARK   16  A    between atoms: O7_24  and  P2_25 
REMARK   17  A    between atoms: P2_25  and  O9_27 
REMARK   18  A    between atoms: P2_25  and  O10_28 
REMARK   19  A    between atoms: O10_28  and  C14_29 
REMARK   20  A    between atoms: C14_29  and  C15_30 
REMARK   21  A    between atoms: C16_31  and  O13_49 
REMARK   22  A    between atoms: C17_32  and  O12_48 
REMARK   23  A    between atoms: C18_33  and  N3_35 
REMARK   24  A    between atoms: C21_40  and  N7_47 
REMARK   25  A    between atoms: O13_49  and  P3_50 
REMARK   26  A    between atoms: P3_50  and  O15_52 
REMARK   27  A    between atoms: P3_50  and  O16_53 
ROOT
HETATM    1  C1  UNL     1      11.723  13.437  -4.145  1.00  0.00     0.104 C 
HETATM    2  C2  UNL     1      12.156  14.870  -4.202  1.00  0.00     0.182 C 
HETATM    3  O1  UNL     1      13.010  15.286  -4.981  1.00  0.00    -0.286 OA
ENDROOT
BRANCH   2   4
HETATM    4  S1  UNL     1      11.367  15.913  -3.026  1.00  0.00    -0.091 SA
BRANCH   4   5
HETATM    5  C3  UNL     1      12.351  15.530  -1.541  1.00  0.00     0.102 C 
BRANCH   5   6
HETATM    6  C4  UNL     1      11.501  15.563  -0.270  1.00  0.00     0.133 C 
BRANCH   6   7
HETATM    7  N1  UNL     1      12.237  15.149   0.907  1.00  0.00    -0.360 N 
HETATM    8  C5  UNL     1      12.271  13.836   1.315  1.00  0.00     0.219 C 
HETATM    9  O2  UNL     1      11.621  12.956   0.762  1.00  0.00    -0.274 OA
HETATM   10  H8  UNL     1      12.744  15.848   1.434  1.00  0.00     0.162 HD
BRANCH   8  11
HETATM   11  C6  UNL     1      13.141  13.609   2.532  1.00  0.00     0.122 C 
BRANCH  11  12
HETATM   12  C7  UNL     1      14.563  13.201   2.149  1.00  0.00     0.132 C 
BRANCH  12  13
HETATM   13  N2  UNL     1      14.730  12.993   0.727  1.00  0.00    -0.358 N 
HETATM   14  C8  UNL     1      15.824  12.295   0.248  1.00  0.00     0.247 C 
HETATM   15  O3  UNL     1      16.738  11.935   0.979  1.00  0.00    -0.271 OA
HETATM   16  H13 UNL     1      13.869  12.934   0.188  1.00  0.00     0.162 HD
BRANCH  14  17
HETATM   17  C9  UNL     1      15.788  11.994  -1.257  1.00  0.00     0.219 C 
BRANCH  17  18
HETATM   18  C10 UNL     1      16.490  13.057  -2.143  1.00  0.00     0.009 C 
HETATM   19  C11 UNL     1      15.494  14.063  -2.738  1.00  0.00     0.020 C 
HETATM   20  C12 UNL     1      17.545  13.849  -1.345  1.00  0.00     0.020 C 
BRANCH  18  21
HETATM   21  C13 UNL     1      17.183  12.267  -3.289  1.00  0.00     0.192 C 
BRANCH  21  22
HETATM   22  O4  UNL     1      18.563  12.073  -3.052  1.00  0.00    -0.296 OA
BRANCH  22  23
HETATM   23  P1  UNL     1      19.362  10.781  -3.565  1.00  0.00     0.401 P 
HETATM   24  O5  UNL     1      20.516  10.391  -2.696  1.00  0.00    -0.631 OA
BRANCH  23  25
HETATM   25  O6  UNL     1      19.768  11.062  -5.097  1.00  0.00    -0.307 OA
HETATM   26  H23 UNL     1      20.082  10.264  -5.540  1.00  0.00     0.222 HD
ENDBRANCH  23  25
BRANCH  23  27
HETATM   27  O7  UNL     1      18.252   9.655  -3.741  1.00  0.00    -0.195 OA
BRANCH  27  28
HETATM   28  P2  UNL     1      18.651   8.284  -4.448  1.00  0.00     0.401 P 
HETATM   29  O8  UNL     1      19.115   8.364  -5.866  1.00  0.00    -0.631 OA
BRANCH  28  30
HETATM   30  O9  UNL     1      19.724   7.654  -3.447  1.00  0.00    -0.307 OA
HETATM   31  H24 UNL     1      20.501   8.239  -3.267  1.00  0.00     0.222 HD
ENDBRANCH  28  30
BRANCH  28  32
HETATM   32  O10 UNL     1      17.400   7.330  -4.175  1.00  0.00    -0.294 OA
BRANCH  32  33
HETATM   33  C14 UNL     1      16.103   7.865  -4.145  1.00  0.00     0.215 C 
BRANCH  33  34
HETATM   34  C15 UNL     1      15.472   7.530  -5.495  1.00  0.00     0.180 C 
HETATM   35  C16 UNL     1      15.114   8.815  -6.231  1.00  0.00     0.197 C 
HETATM   36  C17 UNL     1      13.606   8.761  -6.387  1.00  0.00     0.199 C 
HETATM   37  C18 UNL     1      13.330   7.256  -6.342  1.00  0.00     0.262 C 
HETATM   38  O11 UNL     1      14.277   6.749  -5.376  1.00  0.00    -0.353 OA
BRANCH  35  39
HETATM   39  O13 UNL     1      15.784   8.806  -7.486  1.00  0.00    -0.286 OA
BRANCH  39  40
HETATM   40  P3  UNL     1      16.680  10.093  -7.798  1.00  0.00     0.391 P 
HETATM   41  O14 UNL     1      17.873   9.805  -8.651  1.00  0.00    -0.632 OA
BRANCH  40  42
HETATM   42  O15 UNL     1      16.943  10.641  -6.318  1.00  0.00    -0.307 OA
HETATM   43  H36 UNL     1      17.366   9.947  -5.760  1.00  0.00     0.222 HD
ENDBRANCH  40  42
BRANCH  40  44
HETATM   44  O16 UNL     1      15.593  11.103  -8.370  1.00  0.00    -0.307 OA
HETATM   45  H37 UNL     1      15.364  10.925  -9.296  1.00  0.00     0.222 HD
ENDBRANCH  40  44
ENDBRANCH  39  40
ENDBRANCH  35  39
BRANCH  36  46
HETATM   46  O12 UNL     1      13.204   9.467  -7.564  1.00  0.00    -0.388 OA
HETATM   47  H35 UNL     1      12.290   9.159  -7.774  1.00  0.00     0.210 HD
ENDBRANCH  36  46
BRANCH  37  48
HETATM   48  N3  UNL     1      11.989   6.950  -5.886  1.00  0.00    -0.297 N 
HETATM   49  C19 UNL     1      10.850   7.691  -6.096  1.00  0.00     0.188 A 
HETATM   50  N4  UNL     1       9.769   7.079  -5.663  1.00  0.00    -0.346 N 
HETATM   51  C20 UNL     1      10.230   5.878  -5.151  1.00  0.00     0.116 A 
HETATM   52  H4  UNL     1       8.807   7.413  -5.697  1.00  0.00     0.167 HD
HETATM   53  C21 UNL     1       9.577   4.771  -4.584  1.00  0.00     0.109 A 
HETATM   54  C23 UNL     1      11.608   5.803  -5.247  1.00  0.00     0.142 A 
HETATM   55  N5  UNL     1      10.325   3.724  -4.157  1.00  0.00    -0.341 N 
HETATM   56  C22 UNL     1      11.664   3.799  -4.293  1.00  0.00     0.183 A 
HETATM   57  H5  UNL     1       9.886   2.902  -3.744  1.00  0.00     0.167 HD
HETATM   58  N6  UNL     1      12.397   4.798  -4.826  1.00  0.00    -0.336 N 
HETATM   59  H6  UNL     1      13.414   4.793  -4.900  1.00  0.00     0.168 HD
BRANCH  53  60
HETATM   60  N7  UNL     1       8.202   4.695  -4.429  1.00  0.00    -0.287 NA
HETATM   61  H33 UNL     1       7.737   5.598  -4.361  1.00  0.00     0.125 HD
HETATM   62  H34 UNL     1       7.918   3.986  -3.766  1.00  0.00     0.125 HD
ENDBRANCH  53  60
ENDBRANCH  37  48
ENDBRANCH  33  34
ENDBRANCH  32  33
ENDBRANCH  28  32
ENDBRANCH  27  28
ENDBRANCH  23  27
ENDBRANCH  22  23
ENDBRANCH  21  22
ENDBRANCH  18  21
ENDBRANCH  17  18
BRANCH  17  63
HETATM   63  O17 UNL     1      16.384  10.719  -1.519  1.00  0.00    -0.385 OA
HETATM   64  H38 UNL     1      15.895  10.301  -2.248  1.00  0.00     0.210 HD
ENDBRANCH  17  63
ENDBRANCH  14  17
ENDBRANCH  12  13
ENDBRANCH  11  12
ENDBRANCH   8  11
ENDBRANCH   6   7
ENDBRANCH   5   6
ENDBRANCH   4   5
ENDBRANCH   2   4
TORSDOF 27
ENDMDL
MODEL 17
REMARK VINA RESULT:      -5.7      1.788      2.471
REMARK  27 active torsions:
REMARK  status: ('A' for Active; 'I' for Inactive)
REMARK    1  A    between atoms: C2_2  and  S1_4 
REMARK    2  A    between atoms: S1_4  and  C3_5 
REMARK    3  A    between atoms: C3_5  and  C4_6 
REMARK    4  A    between atoms: C4_6  and  N1_7 
REMARK       I    between atoms: N1_7  and  C5_8 
REMARK    5  A    between atoms: C5_8  and  C6_10 
REMARK    6  A    between atoms: C6_10  and  C7_11 
REMARK    7  A    between atoms: C7_11  and  N2_12 
REMARK       I    between atoms: N2_12  and  C8_13 
REMARK    8  A    between atoms: C8_13  and  C9_15 
REMARK    9  A    between atoms: C9_15  and  C10_16 
REMARK   10  A    between atoms: C9_15  and  O17_54 
REMARK   11  A    between atoms: C10_16  and  C13_19 
REMARK   12  A    between atoms: C13_19  and  O4_20 
REMARK   13  A    between atoms: O4_20  and  P1_21 
REMARK   14  A    between atoms: P1_21  and  O6_23 
REMARK   15  A    between atoms: P1_21  and  O7_24 
REMARK   16  A    between atoms: O7_24  and  P2_25 
REMARK   17  A    between atoms: P2_25  and  O9_27 
REMARK   18  A    between atoms: P2_25  and  O10_28 
REMARK   19  A    between atoms: O10_28  and  C14_29 
REMARK   20  A    between atoms: C14_29  and  C15_30 
REMARK   21  A    between atoms: C16_31  and  O13_49 
REMARK   22  A    between atoms: C17_32  and  O12_48 
REMARK   23  A    between atoms: C18_33  and  N3_35 
REMARK   24  A    between atoms: C21_40  and  N7_47 
REMARK   25  A    between atoms: O13_49  and  P3_50 
REMARK   26  A    between atoms: P3_50  and  O15_52 
REMARK   27  A    between atoms: P3_50  and  O16_53 
ROOT
HETATM    1  C1  UNL     1      11.665  -0.619  -2.640  1.00  0.00     0.104 C 
HETATM    2  C2  UNL     1      12.291   0.724  -2.861  1.00  0.00     0.182 C 
HETATM    3  O1  UNL     1      13.384   0.878  -3.401  1.00  0.00    -0.286 OA
ENDROOT
BRANCH   2   4
HETATM    4  S1  UNL     1      11.347   2.074  -2.246  1.00  0.00    -0.091 SA
BRANCH   4   5
HETATM    5  C3  UNL     1      11.406   3.191  -3.684  1.00  0.00     0.102 C 
BRANCH   5   6
HETATM    6  C4  UNL     1      10.117   4.004  -3.828  1.00  0.00     0.133 C 
BRANCH   6   7
HETATM    7  N1  UNL     1      10.103   4.823  -5.022  1.00  0.00    -0.360 N 
HETATM    8  C5  UNL     1       9.547   6.081  -5.030  1.00  0.00     0.219 C 
HETATM    9  O2  UNL     1       8.963   6.551  -4.060  1.00  0.00    -0.274 OA
HETATM   10  H8  UNL     1      10.520   4.458  -5.868  1.00  0.00     0.162 HD
BRANCH   8  11
HETATM   11  C6  UNL     1       9.685   6.789  -6.361  1.00  0.00     0.122 C 
BRANCH  11  12
HETATM   12  C7  UNL     1      10.872   6.262  -7.167  1.00  0.00     0.132 C 
BRANCH  12  13
HETATM   13  N2  UNL     1      12.115   6.933  -6.852  1.00  0.00    -0.358 N 
HETATM   14  C8  UNL     1      12.799   7.629  -7.831  1.00  0.00     0.247 C 
HETATM   15  O3  UNL     1      12.454   7.609  -9.006  1.00  0.00    -0.271 OA
HETATM   16  H13 UNL     1      12.201   7.270  -5.895  1.00  0.00     0.162 HD
BRANCH  14  17
HETATM   17  C9  UNL     1      14.003   8.439  -7.325  1.00  0.00     0.219 C 
BRANCH  17  18
HETATM   18  C10 UNL     1      13.631   9.762  -6.607  1.00  0.00     0.009 C 
HETATM   19  C11 UNL     1      12.140   9.825  -6.246  1.00  0.00     0.020 C 
HETATM   20  C12 UNL     1      14.442   9.948  -5.309  1.00  0.00     0.020 C 
BRANCH  18  21
HETATM   21  C13 UNL     1      13.975  10.902  -7.608  1.00  0.00     0.192 C 
BRANCH  21  22
HETATM   22  O4  UNL     1      12.923  11.837  -7.741  1.00  0.00    -0.296 OA
BRANCH  22  23
HETATM   23  P1  UNL     1      13.048  13.362  -7.262  1.00  0.00     0.401 P 
HETATM   24  O5  UNL     1      12.084  14.293  -7.928  1.00  0.00    -0.631 OA
BRANCH  23  25
HETATM   25  O6  UNL     1      14.591  13.783  -7.448  1.00  0.00    -0.307 OA
HETATM   26  H23 UNL     1      14.977  13.398  -8.245  1.00  0.00     0.222 HD
ENDBRANCH  23  25
BRANCH  23  27
HETATM   27  O7  UNL     1      12.931  13.306  -5.677  1.00  0.00    -0.195 OA
BRANCH  27  28
HETATM   28  P2  UNL     1      12.825  14.672  -4.864  1.00  0.00     0.401 P 
HETATM   29  O8  UNL     1      13.188  15.924  -5.593  1.00  0.00    -0.631 OA
BRANCH  28  30
HETATM   30  O9  UNL     1      11.328  14.653  -4.308  1.00  0.00    -0.307 OA
HETATM   31  H24 UNL     1      11.230  15.031  -3.401  1.00  0.00     0.222 HD
ENDBRANCH  28  30
BRANCH  28  32
HETATM   32  O10 UNL     1      13.640  14.386  -3.520  1.00  0.00    -0.294 OA
BRANCH  32  33
HETATM   33  C14 UNL     1      13.779  15.395  -2.555  1.00  0.00     0.215 C 
BRANCH  33  34
HETATM   34  C15 UNL     1      14.219  14.697  -1.269  1.00  0.00     0.180 C 
HETATM   35  C16 UNL     1      14.535  13.236  -1.557  1.00  0.00     0.197 C 
HETATM   36  C17 UNL     1      13.539  12.454  -0.722  1.00  0.00     0.199 C 
HETATM   37  C18 UNL     1      13.218  13.441   0.403  1.00  0.00     0.262 C 
HETATM   38  O11 UNL     1      13.220  14.733  -0.243  1.00  0.00    -0.353 OA
BRANCH  35  39
HETATM   39  O13 UNL     1      15.880  12.988  -1.160  1.00  0.00    -0.286 OA
BRANCH  39  40
HETATM   40  P3  UNL     1      16.867  12.515  -2.325  1.00  0.00     0.391 P 
HETATM   41  O14 UNL     1      16.605  11.126  -2.810  1.00  0.00    -0.632 OA
BRANCH  40  42
HETATM   42  O15 UNL     1      18.288  12.809  -1.651  1.00  0.00    -0.307 OA
HETATM   43  H36 UNL     1      18.213  13.525  -0.977  1.00  0.00     0.222 HD
ENDBRANCH  40  42
BRANCH  40  44
HETATM   44  O16 UNL     1      16.711  13.703  -3.371  1.00  0.00    -0.307 OA
HETATM   45  H37 UNL     1      16.079  14.379  -3.082  1.00  0.00     0.222 HD
ENDBRANCH  40  44
ENDBRANCH  39  40
ENDBRANCH  35  39
BRANCH  36  46
HETATM   46  O12 UNL     1      14.090  11.189  -0.349  1.00  0.00    -0.388 OA
HETATM   47  H35 UNL     1      14.779  11.375   0.333  1.00  0.00     0.210 HD
ENDBRANCH  36  46
BRANCH  37  48
HETATM   48  N3  UNL     1      11.910  13.213   0.986  1.00  0.00    -0.297 N 
HETATM   49  C19 UNL     1      11.436  12.043   1.531  1.00  0.00     0.188 A 
HETATM   50  N4  UNL     1      10.256  12.197   2.092  1.00  0.00    -0.346 N 
HETATM   51  C20 UNL     1       9.953  13.534   1.906  1.00  0.00     0.116 A 
HETATM   52  H4  UNL     1       9.690  11.488   2.559  1.00  0.00     0.167 HD
HETATM   53  C21 UNL     1       8.864  14.329   2.305  1.00  0.00     0.109 A 
HETATM   54  C23 UNL     1      10.952  14.166   1.188  1.00  0.00     0.142 A 
HETATM   55  N5  UNL     1       8.852  15.637   1.951  1.00  0.00    -0.341 N 
HETATM   56  C22 UNL     1       9.886  16.113   1.228  1.00  0.00     0.183 A 
HETATM   57  H5  UNL     1       8.081  16.246   2.225  1.00  0.00     0.167 HD
HETATM   58  N6  UNL     1      10.981  15.453   0.799  1.00  0.00    -0.336 N 
HETATM   59  H6  UNL     1      11.732  15.874   0.251  1.00  0.00     0.168 HD
BRANCH  53  60
HETATM   60  N7  UNL     1       7.792  13.841   3.035  1.00  0.00    -0.287 NA
HETATM   61  H33 UNL     1       7.644  14.311   3.926  1.00  0.00     0.125 HD
HETATM   62  H34 UNL     1       7.744  12.831   3.039  1.00  0.00     0.125 HD
ENDBRANCH  53  60
ENDBRANCH  37  48
ENDBRANCH  33  34
ENDBRANCH  32  33
ENDBRANCH  28  32
ENDBRANCH  27  28
ENDBRANCH  23  27
ENDBRANCH  22  23
ENDBRANCH  21  22
ENDBRANCH  18  21
ENDBRANCH  17  18
BRANCH  17  63
HETATM   63  O17 UNL     1      14.791   7.643  -6.433  1.00  0.00    -0.385 OA
HETATM   64  H38 UNL     1      15.655   8.076  -6.327  1.00  0.00     0.210 HD
ENDBRANCH  17  63
ENDBRANCH  14  17
ENDBRANCH  12  13
ENDBRANCH  11  12
ENDBRANCH   8  11
ENDBRANCH   6   7
ENDBRANCH   5   6
ENDBRANCH   4   5
ENDBRANCH   2   4
TORSDOF 27
ENDMDL
MODEL 18
REMARK VINA RESULT:      -5.6      4.897      8.542
REMARK  27 active torsions:
REMARK  status: ('A' for Active; 'I' for Inactive)
REMARK    1  A    between atoms: C2_2  and  S1_4 
REMARK    2  A    between atoms: S1_4  and  C3_5 
REMARK    3  A    between atoms: C3_5  and  C4_6 
REMARK    4  A    between atoms: C4_6  and  N1_7 
REMARK       I    between atoms: N1_7  and  C5_8 
REMARK    5  A    between atoms: C5_8  and  C6_10 
REMARK    6  A    between atoms: C6_10  and  C7_11 
REMARK    7  A    between atoms: C7_11  and  N2_12 
REMARK       I    between atoms: N2_12  and  C8_13 
REMARK    8  A    between atoms: C8_13  and  C9_15 
REMARK    9  A    between atoms: C9_15  and  C10_16 
REMARK   10  A    between atoms: C9_15  and  O17_54 
REMARK   11  A    between atoms: C10_16  and  C13_19 
REMARK   12  A    between atoms: C13_19  and  O4_20 
REMARK   13  A    between atoms: O4_20  and  P1_21 
REMARK   14  A    between atoms: P1_21  and  O6_23 
REMARK   15  A    between atoms: P1_21  and  O7_24 
REMARK   16  A    between atoms: O7_24  and  P2_25 
REMARK   17  A    between atoms: P2_25  and  O9_27 
REMARK   18  A    between atoms: P2_25  and  O10_28 
REMARK   19  A    between atoms: O10_28  and  C14_29 
REMARK   20  A    between atoms: C14_29  and  C15_30 
REMARK   21  A    between atoms: C16_31  and  O13_49 
REMARK   22  A    between atoms: C17_32  and  O12_48 
REMARK   23  A    between atoms: C18_33  and  N3_35 
REMARK   24  A    between atoms: C21_40  and  N7_47 
REMARK   25  A    between atoms: O13_49  and  P3_50 
REMARK   26  A    between atoms: P3_50  and  O15_52 
REMARK   27  A    between atoms: P3_50  and  O16_53 
ROOT
HETATM    1  C1  UNL     1      10.604  14.536  -4.739  1.00  0.00     0.104 C 
HETATM    2  C2  UNL     1      10.084  14.238  -6.113  1.00  0.00     0.182 C 
HETATM    3  O1  UNL     1      10.449  13.271  -6.777  1.00  0.00    -0.286 OA
ENDROOT
BRANCH   2   4
HETATM    4  S1  UNL     1       8.928  15.415  -6.722  1.00  0.00    -0.091 SA
BRANCH   4   5
HETATM    5  C3  UNL     1       7.552  14.311  -7.179  1.00  0.00     0.102 C 
BRANCH   5   6
HETATM    6  C4  UNL     1       6.950  13.615  -5.957  1.00  0.00     0.133 C 
BRANCH   6   7
HETATM    7  N1  UNL     1       6.956  12.171  -6.076  1.00  0.00    -0.360 N 
HETATM    8  C5  UNL     1       5.923  11.490  -6.678  1.00  0.00     0.219 C 
HETATM    9  O2  UNL     1       4.907  12.049  -7.075  1.00  0.00    -0.274 OA
HETATM   10  H8  UNL     1       7.746  11.656  -5.711  1.00  0.00     0.162 HD
BRANCH   8  11
HETATM   11  C6  UNL     1       6.151   9.996  -6.748  1.00  0.00     0.122 C 
BRANCH  11  12
HETATM   12  C7  UNL     1       7.317   9.554  -5.864  1.00  0.00     0.132 C 
BRANCH  12  13
HETATM   13  N2  UNL     1       7.978   8.362  -6.350  1.00  0.00    -0.358 N 
HETATM   14  C8  UNL     1       8.562   7.477  -5.462  1.00  0.00     0.247 C 
HETATM   15  O3  UNL     1       8.649   7.718  -4.265  1.00  0.00    -0.271 OA
HETATM   16  H13 UNL     1       7.604   7.975  -7.214  1.00  0.00     0.162 HD
BRANCH  14  17
HETATM   17  C9  UNL     1       9.071   6.172  -6.093  1.00  0.00     0.219 C 
BRANCH  17  18
HETATM   18  C10 UNL     1      10.615   6.065  -6.192  1.00  0.00     0.009 C 
HETATM   19  C11 UNL     1      11.284   6.054  -4.809  1.00  0.00     0.020 C 
HETATM   20  C12 UNL     1      11.046   4.785  -6.937  1.00  0.00     0.020 C 
BRANCH  18  21
HETATM   21  C13 UNL     1      11.080   7.318  -6.988  1.00  0.00     0.192 C 
BRANCH  21  22
HETATM   22  O4  UNL     1      12.070   8.055  -6.300  1.00  0.00    -0.296 OA
BRANCH  22  23
HETATM   23  P1  UNL     1      13.312   8.747  -7.042  1.00  0.00     0.401 P 
HETATM   24  O5  UNL     1      13.770   8.027  -8.271  1.00  0.00    -0.631 OA
BRANCH  23  25
HETATM   25  O6  UNL     1      14.465   8.941  -5.936  1.00  0.00    -0.307 OA
HETATM   26  H23 UNL     1      14.151   9.436  -5.168  1.00  0.00     0.222 HD
ENDBRANCH  23  25
BRANCH  23  27
HETATM   27  O7  UNL     1      12.859  10.253  -7.283  1.00  0.00    -0.195 OA
BRANCH  27  28
HETATM   28  P2  UNL     1      13.969  11.349  -7.609  1.00  0.00     0.401 P 
HETATM   29  O8  UNL     1      15.094  10.929  -8.498  1.00  0.00    -0.631 OA
BRANCH  28  30
HETATM   30  O9  UNL     1      13.118  12.577  -8.171  1.00  0.00    -0.307 OA
HETATM   31  H24 UNL     1      12.905  12.513  -9.134  1.00  0.00     0.222 HD
ENDBRANCH  28  30
BRANCH  28  32
HETATM   32  O10 UNL     1      14.386  11.913  -6.174  1.00  0.00    -0.294 OA
BRANCH  32  33
HETATM   33  C14 UNL     1      13.401  12.371  -5.286  1.00  0.00     0.215 C 
BRANCH  33  34
HETATM   34  C15 UNL     1      13.919  12.067  -3.881  1.00  0.00     0.180 C 
HETATM   35  C16 UNL     1      14.428  13.347  -3.231  1.00  0.00     0.197 C 
HETATM   36  C17 UNL     1      15.904  13.095  -2.989  1.00  0.00     0.199 C 
HETATM   37  C18 UNL     1      15.961  11.568  -2.901  1.00  0.00     0.262 C 
HETATM   38  O11 UNL     1      14.992  11.118  -3.874  1.00  0.00    -0.353 OA
BRANCH  35  39
HETATM   39  O13 UNL     1      13.710  13.541  -2.017  1.00  0.00    -0.286 OA
BRANCH  39  40
HETATM   40  P3  UNL     1      13.277  15.048  -1.705  1.00  0.00     0.391 P 
HETATM   41  O14 UNL     1      11.802  15.230  -1.545  1.00  0.00    -0.632 OA
BRANCH  40  42
HETATM   42  O15 UNL     1      13.993  15.820  -2.909  1.00  0.00    -0.307 OA
HETATM   43  H36 UNL     1      14.901  16.107  -2.649  1.00  0.00     0.222 HD
ENDBRANCH  40  42
BRANCH  40  44
HETATM   44  O16 UNL     1      14.201  15.389  -0.456  1.00  0.00    -0.307 OA
HETATM   45  H37 UNL     1      13.714  15.815   0.267  1.00  0.00     0.222 HD
ENDBRANCH  40  44
ENDBRANCH  39  40
ENDBRANCH  35  39
BRANCH  36  46
HETATM   46  O12 UNL     1      16.354  13.836  -1.852  1.00  0.00    -0.388 OA
HETATM   47  H35 UNL     1      15.605  13.839  -1.209  1.00  0.00     0.210 HD
ENDBRANCH  36  46
BRANCH  37  48
HETATM   48  N3  UNL     1      17.261  11.038  -3.258  1.00  0.00    -0.297 N 
HETATM   49  C19 UNL     1      17.596  10.363  -4.408  1.00  0.00     0.188 A 
HETATM   50  N4  UNL     1      18.887  10.125  -4.489  1.00  0.00    -0.346 N 
HETATM   51  C20 UNL     1      19.416  10.678  -3.336  1.00  0.00     0.116 A 
HETATM   52  H4  UNL     1      19.387   9.642  -5.235  1.00  0.00     0.167 HD
HETATM   53  C21 UNL     1      20.731  10.794  -2.851  1.00  0.00     0.109 A 
HETATM   54  C23 UNL     1      18.415  11.212  -2.546  1.00  0.00     0.142 A 
HETATM   55  N5  UNL     1      20.930  11.395  -1.652  1.00  0.00    -0.341 N 
HETATM   56  C22 UNL     1      19.854  11.849  -0.980  1.00  0.00     0.183 A 
HETATM   57  H5  UNL     1      21.869  11.501  -1.270  1.00  0.00     0.167 HD
HETATM   58  N6  UNL     1      18.556  11.802  -1.345  1.00  0.00    -0.336 N 
HETATM   59  H6  UNL     1      17.784  12.166  -0.786  1.00  0.00     0.168 HD
BRANCH  53  60
HETATM   60  N7  UNL     1      21.839  10.317  -3.532  1.00  0.00    -0.287 NA
HETATM   61  H33 UNL     1      22.713  10.774  -3.282  1.00  0.00     0.125 HD
HETATM   62  H34 UNL     1      21.665  10.173  -4.518  1.00  0.00     0.125 HD
ENDBRANCH  53  60
ENDBRANCH  37  48
ENDBRANCH  33  34
ENDBRANCH  32  33
ENDBRANCH  28  32
ENDBRANCH  27  28
ENDBRANCH  23  27
ENDBRANCH  22  23
ENDBRANCH  21  22
ENDBRANCH  18  21
ENDBRANCH  17  18
BRANCH  17  63
HETATM   63  O17 UNL     1       8.583   5.046  -5.356  1.00  0.00    -0.385 OA
HETATM   64  H38 UNL     1       9.236   4.828  -4.670  1.00  0.00     0.210 HD
ENDBRANCH  17  63
ENDBRANCH  14  17
ENDBRANCH  12  13
ENDBRANCH  11  12
ENDBRANCH   8  11
ENDBRANCH   6   7
ENDBRANCH   5   6
ENDBRANCH   4   5
ENDBRANCH   2   4
TORSDOF 27
ENDMDL
MODEL 19
REMARK VINA RESULT:      -5.5      4.055      6.269
REMARK  27 active torsions:
REMARK  status: ('A' for Active; 'I' for Inactive)
REMARK    1  A    between atoms: C2_2  and  S1_4 
REMARK    2  A    between atoms: S1_4  and  C3_5 
REMARK    3  A    between atoms: C3_5  and  C4_6 
REMARK    4  A    between atoms: C4_6  and  N1_7 
REMARK       I    between atoms: N1_7  and  C5_8 
REMARK    5  A    between atoms: C5_8  and  C6_10 
REMARK    6  A    between atoms: C6_10  and  C7_11 
REMARK    7  A    between atoms: C7_11  and  N2_12 
REMARK       I    between atoms: N2_12  and  C8_13 
REMARK    8  A    between atoms: C8_13  and  C9_15 
REMARK    9  A    between atoms: C9_15  and  C10_16 
REMARK   10  A    between atoms: C9_15  and  O17_54 
REMARK   11  A    between atoms: C10_16  and  C13_19 
REMARK   12  A    between atoms: C13_19  and  O4_20 
REMARK   13  A    between atoms: O4_20  and  P1_21 
REMARK   14  A    between atoms: P1_21  and  O6_23 
REMARK   15  A    between atoms: P1_21  and  O7_24 
REMARK   16  A    between atoms: O7_24  and  P2_25 
REMARK   17  A    between atoms: P2_25  and  O9_27 
REMARK   18  A    between atoms: P2_25  and  O10_28 
REMARK   19  A    between atoms: O10_28  and  C14_29 
REMARK   20  A    between atoms: C14_29  and  C15_30 
REMARK   21  A    between atoms: C16_31  and  O13_49 
REMARK   22  A    between atoms: C17_32  and  O12_48 
REMARK   23  A    between atoms: C18_33  and  N3_35 
REMARK   24  A    between atoms: C21_40  and  N7_47 
REMARK   25  A    between atoms: O13_49  and  P3_50 
REMARK   26  A    between atoms: P3_50  and  O15_52 
REMARK   27  A    between atoms: P3_50  and  O16_53 
ROOT
HETATM    1  C1  UNL     1      17.704   6.282 -12.064  1.00  0.00     0.104 C 
HETATM    2  C2  UNL     1      18.407   6.828 -10.859  1.00  0.00     0.182 C 
HETATM    3  O1  UNL     1      17.831   7.108  -9.811  1.00  0.00    -0.286 OA
ENDROOT
BRANCH   2   4
HETATM    4  S1  UNL     1      20.135   7.075 -11.078  1.00  0.00    -0.091 SA
BRANCH   4   5
HETATM    5  C3  UNL     1      20.718   6.808  -9.373  1.00  0.00     0.102 C 
BRANCH   5   6
HETATM    6  C4  UNL     1      20.992   8.129  -8.651  1.00  0.00     0.133 C 
BRANCH   6   7
HETATM    7  N1  UNL     1      21.231   7.952  -7.233  1.00  0.00    -0.360 N 
HETATM    8  C5  UNL     1      20.702   8.811  -6.297  1.00  0.00     0.219 C 
HETATM    9  O2  UNL     1      20.070   9.814  -6.605  1.00  0.00    -0.274 OA
HETATM   10  H8  UNL     1      21.797   7.171  -6.929  1.00  0.00     0.162 HD
BRANCH   8  11
HETATM   11  C6  UNL     1      21.026   8.417  -4.872  1.00  0.00     0.122 C 
BRANCH  11  12
HETATM   12  C7  UNL     1      19.785   7.946  -4.115  1.00  0.00     0.132 C 
BRANCH  12  13
HETATM   13  N2  UNL     1      18.547   8.287  -4.785  1.00  0.00    -0.358 N 
HETATM   14  C8  UNL     1      17.429   8.633  -4.050  1.00  0.00     0.247 C 
HETATM   15  O3  UNL     1      17.401   8.552  -2.828  1.00  0.00    -0.271 OA
HETATM   16  H13 UNL     1      18.650   8.711  -5.704  1.00  0.00     0.162 HD
BRANCH  14  17
HETATM   17  C9  UNL     1      16.242   9.141  -4.882  1.00  0.00     0.219 C 
BRANCH  17  18
HETATM   18  C10 UNL     1      15.376   8.021  -5.517  1.00  0.00     0.009 C 
HETATM   19  C11 UNL     1      15.884   7.617  -6.910  1.00  0.00     0.020 C 
HETATM   20  C12 UNL     1      15.352   6.756  -4.635  1.00  0.00     0.020 C 
BRANCH  18  21
HETATM   21  C13 UNL     1      13.940   8.607  -5.635  1.00  0.00     0.192 C 
BRANCH  21  22
HETATM   22  O4  UNL     1      13.793   9.451  -6.759  1.00  0.00    -0.296 OA
BRANCH  22  23
HETATM   23  P1  UNL     1      12.881  10.770  -6.744  1.00  0.00     0.401 P 
HETATM   24  O5  UNL     1      11.444  10.516  -6.413  1.00  0.00    -0.631 OA
BRANCH  23  25
HETATM   25  O6  UNL     1      13.103  11.504  -8.159  1.00  0.00    -0.307 OA
HETATM   26  H23 UNL     1      13.724  12.241  -8.090  1.00  0.00     0.222 HD
ENDBRANCH  23  25
BRANCH  23  27
HETATM   27  O7  UNL     1      13.624  11.771  -5.756  1.00  0.00    -0.195 OA
BRANCH  27  28
HETATM   28  P2  UNL     1      14.724  12.760  -6.346  1.00  0.00     0.401 P 
HETATM   29  O8  UNL     1      15.794  12.154  -7.194  1.00  0.00    -0.631 OA
BRANCH  28  30
HETATM   30  O9  UNL     1      13.855  13.873  -7.091  1.00  0.00    -0.307 OA
HETATM   31  H24 UNL     1      14.347  14.368  -7.790  1.00  0.00     0.222 HD
ENDBRANCH  28  30
BRANCH  28  32
HETATM   32  O10 UNL     1      15.227  13.583  -5.073  1.00  0.00    -0.294 OA
BRANCH  32  33
HETATM   33  C14 UNL     1      16.561  14.011  -4.995  1.00  0.00     0.215 C 
BRANCH  33  34
HETATM   34  C15 UNL     1      16.890  14.113  -3.506  1.00  0.00     0.180 C 
HETATM   35  C16 UNL     1      17.344  12.756  -2.985  1.00  0.00     0.197 C 
HETATM   36  C17 UNL     1      16.312  12.382  -1.938  1.00  0.00     0.199 C 
HETATM   37  C18 UNL     1      15.786  13.750  -1.500  1.00  0.00     0.262 C 
HETATM   38  O11 UNL     1      15.774  14.533  -2.714  1.00  0.00    -0.353 OA
BRANCH  35  39
HETATM   39  O13 UNL     1      18.644  12.910  -2.426  1.00  0.00    -0.286 OA
BRANCH  39  40
HETATM   40  P3  UNL     1      19.760  11.915  -2.993  1.00  0.00     0.391 P 
HETATM   41  O14 UNL     1      21.129  12.513  -3.046  1.00  0.00    -0.632 OA
BRANCH  40  42
HETATM   42  O15 UNL     1      19.091  11.472  -4.377  1.00  0.00    -0.307 OA
HETATM   43  H36 UNL     1      19.659  11.737  -5.139  1.00  0.00     0.222 HD
ENDBRANCH  40  42
BRANCH  40  44
HETATM   44  O16 UNL     1      19.548  10.642  -2.065  1.00  0.00    -0.307 OA
HETATM   45  H37 UNL     1      19.682  10.836  -1.123  1.00  0.00     0.222 HD
ENDBRANCH  40  44
ENDBRANCH  39  40
ENDBRANCH  35  39
BRANCH  36  46
HETATM   46  O12 UNL     1      16.903  11.553  -0.933  1.00  0.00    -0.388 OA
HETATM   47  H35 UNL     1      16.176  10.994  -0.571  1.00  0.00     0.210 HD
ENDBRANCH  36  46
BRANCH  37  48
HETATM   48  N3  UNL     1      14.437  13.686  -0.973  1.00  0.00    -0.297 N 
HETATM   49  C19 UNL     1      13.267  13.937  -1.651  1.00  0.00     0.188 A 
HETATM   50  N4  UNL     1      12.204  13.668  -0.926  1.00  0.00    -0.346 N 
HETATM   51  C20 UNL     1      12.709  13.215   0.280  1.00  0.00     0.116 A 
HETATM   52  H4  UNL     1      11.225  13.770  -1.193  1.00  0.00     0.167 HD
HETATM   53  C21 UNL     1      12.095  12.734   1.450  1.00  0.00     0.109 A 
HETATM   54  C23 UNL     1      14.091  13.258   0.278  1.00  0.00     0.142 A 
HETATM   55  N5  UNL     1      12.881  12.366   2.491  1.00  0.00    -0.341 N 
HETATM   56  C22 UNL     1      14.217  12.485   2.355  1.00  0.00     0.183 A 
HETATM   57  H5  UNL     1      12.472  12.009   3.355  1.00  0.00     0.167 HD
HETATM   58  N6  UNL     1      14.915  12.922   1.287  1.00  0.00    -0.336 N 
HETATM   59  H6  UNL     1      15.932  12.988   1.248  1.00  0.00     0.168 HD
BRANCH  53  60
HETATM   60  N7  UNL     1      10.722  12.624   1.600  1.00  0.00    -0.287 NA
HETATM   61  H33 UNL     1      10.260  12.101   0.859  1.00  0.00     0.125 HD
HETATM   62  H34 UNL     1      10.285  13.490   1.886  1.00  0.00     0.125 HD
ENDBRANCH  53  60
ENDBRANCH  37  48
ENDBRANCH  33  34
ENDBRANCH  32  33
ENDBRANCH  28  32
ENDBRANCH  27  28
ENDBRANCH  23  27
ENDBRANCH  22  23
ENDBRANCH  21  22
ENDBRANCH  18  21
ENDBRANCH  17  18
BRANCH  17  63
HETATM   63  O17 UNL     1      15.395   9.969  -4.079  1.00  0.00    -0.385 OA
HETATM   64  H38 UNL     1      15.037   9.425  -3.357  1.00  0.00     0.210 HD
ENDBRANCH  17  63
ENDBRANCH  14  17
ENDBRANCH  12  13
ENDBRANCH  11  12
ENDBRANCH   8  11
ENDBRANCH   6   7
ENDBRANCH   5   6
ENDBRANCH   4   5
ENDBRANCH   2   4
TORSDOF 27
ENDMDL
