MODEL 1
REMARK VINA RESULT:      -4.3      0.000      0.000
REMARK  2 active torsions:
REMARK  status: ('A' for Active; 'I' for Inactive)
REMARK    1  A    between atoms: C3_3  and  O1_8 
REMARK    2  A    between atoms: C6_6  and  N1_7 
ROOT
HETATM    1  C1  UNL     1      11.211   4.481  -6.694  1.00  0.00     0.026 A 
HETATM    2  C2  UNL     1      10.958   5.364  -7.746  1.00  0.00     0.038 A 
HETATM    3  C3  UNL     1       9.753   6.052  -7.792  1.00  0.00     0.065 A 
HETATM    4  C4  UNL     1       8.803   5.883  -6.791  1.00  0.00     0.038 A 
HETATM    5  C5  UNL     1       9.063   4.996  -5.741  1.00  0.00     0.026 A 
HETATM    6  C6  UNL     1      10.246   4.250  -5.709  1.00  0.00     0.005 A 
ENDROOT
BRANCH   6   7
HETATM    7  N1  UNL     1      10.549   3.457  -4.596  1.00  0.00    -0.303 NA
HETATM    8  H5  UNL     1      10.785   3.993  -3.767  1.00  0.00     0.124 HD
HETATM    9  H6  UNL     1      11.222   2.723  -4.787  1.00  0.00     0.124 HD
ENDBRANCH   6   7
BRANCH   3  10
HETATM   10  O1  UNL     1       9.545   6.906  -8.833  1.00  0.00    -0.361 OA
HETATM   11  H7  UNL     1       9.482   6.387  -9.651  1.00  0.00     0.217 HD
ENDBRANCH   3  10
TORSDOF 2
ENDMDL
MODEL 2
REMARK VINA RESULT:      -4.3      2.903      3.376
REMARK  2 active torsions:
REMARK  status: ('A' for Active; 'I' for Inactive)
REMARK    1  A    between atoms: C3_3  and  O1_8 
REMARK    2  A    between atoms: C6_6  and  N1_7 
ROOT
HETATM    1  C1  UNL     1      11.249   3.686  -8.062  1.00  0.00     0.026 A 
HETATM    2  C2  UNL     1      11.310   3.324  -6.714  1.00  0.00     0.038 A 
HETATM    3  C3  UNL     1      10.504   3.974  -5.790  1.00  0.00     0.065 A 
HETATM    4  C4  UNL     1       9.624   4.971  -6.196  1.00  0.00     0.038 A 
HETATM    5  C5  UNL     1       9.569   5.329  -7.547  1.00  0.00     0.026 A 
HETATM    6  C6  UNL     1      10.415   4.727  -8.483  1.00  0.00     0.005 A 
ENDROOT
BRANCH   6   7
HETATM    7  N1  UNL     1      10.270   5.006  -9.847  1.00  0.00    -0.303 NA
HETATM    8  H5  UNL     1       9.368   5.404 -10.087  1.00  0.00     0.124 HD
HETATM    9  H6  UNL     1      10.526   4.234 -10.453  1.00  0.00     0.124 HD
ENDBRANCH   6   7
BRANCH   3  10
HETATM   10  O1  UNL     1      10.590   3.590  -4.486  1.00  0.00    -0.361 OA
HETATM   11  H7  UNL     1      11.480   3.801  -4.159  1.00  0.00     0.217 HD
ENDBRANCH   3  10
TORSDOF 2
ENDMDL
MODEL 3
REMARK VINA RESULT:      -4.3      2.780      3.682
REMARK  2 active torsions:
REMARK  status: ('A' for Active; 'I' for Inactive)
REMARK    1  A    between atoms: C3_3  and  O1_8 
REMARK    2  A    between atoms: C6_6  and  N1_7 
ROOT
HETATM    1  C1  UNL     1       8.863   5.728  -6.746  1.00  0.00     0.026 A 
HETATM    2  C2  UNL     1       9.136   4.851  -5.694  1.00  0.00     0.038 A 
HETATM    3  C3  UNL     1      10.370   4.219  -5.627  1.00  0.00     0.065 A 
HETATM    4  C4  UNL     1      11.344   4.465  -6.588  1.00  0.00     0.038 A 
HETATM    5  C5  UNL     1      11.063   5.344  -7.639  1.00  0.00     0.026 A 
HETATM    6  C6  UNL     1       9.806   5.944  -7.756  1.00  0.00     0.005 A 
ENDROOT
BRANCH   6   7
HETATM    7  N1  UNL     1       9.575   6.911  -8.741  1.00  0.00    -0.303 NA
HETATM    8  H5  UNL     1      10.331   7.583  -8.838  1.00  0.00     0.124 HD
HETATM    9  H6  UNL     1       8.667   7.359  -8.672  1.00  0.00     0.124 HD
ENDBRANCH   6   7
BRANCH   3  10
HETATM   10  O1  UNL     1      10.598   3.372  -4.584  1.00  0.00    -0.361 OA
HETATM   11  H7  UNL     1      11.399   3.662  -4.120  1.00  0.00     0.217 HD
ENDBRANCH   3  10
TORSDOF 2
ENDMDL
MODEL 4
REMARK VINA RESULT:      -4.2      3.323      3.932
REMARK  2 active torsions:
REMARK  status: ('A' for Active; 'I' for Inactive)
REMARK    1  A    between atoms: C3_3  and  O1_8 
REMARK    2  A    between atoms: C6_6  and  N1_7 
ROOT
HETATM    1  C1  UNL     1      10.123   4.411  -8.411  1.00  0.00     0.026 A 
HETATM    2  C2  UNL     1      10.944   3.357  -8.005  1.00  0.00     0.038 A 
HETATM    3  C3  UNL     1      12.244   3.616  -7.595  1.00  0.00     0.065 A 
HETATM    4  C4  UNL     1      12.732   4.917  -7.569  1.00  0.00     0.038 A 
HETATM    5  C5  UNL     1      11.905   5.968  -7.978  1.00  0.00     0.026 A 
HETATM    6  C6  UNL     1      10.612   5.721  -8.450  1.00  0.00     0.005 A 
ENDROOT
BRANCH   6   7
HETATM    7  N1  UNL     1       9.753   6.786  -8.743  1.00  0.00    -0.303 NA
HETATM    8  H5  UNL     1       9.567   6.899  -9.735  1.00  0.00     0.124 HD
HETATM    9  H6  UNL     1      10.016   7.659  -8.298  1.00  0.00     0.124 HD
ENDBRANCH   6   7
BRANCH   3  10
HETATM   10  O1  UNL     1      13.012   2.560  -7.204  1.00  0.00    -0.361 OA
HETATM   11  H7  UNL     1      12.658   1.752  -7.609  1.00  0.00     0.217 HD
ENDBRANCH   3  10
TORSDOF 2
ENDMDL
MODEL 5
REMARK VINA RESULT:      -4.1      0.694      1.794
REMARK  2 active torsions:
REMARK  status: ('A' for Active; 'I' for Inactive)
REMARK    1  A    between atoms: C3_3  and  O1_8 
REMARK    2  A    between atoms: C6_6  and  N1_7 
ROOT
HETATM    1  C1  UNL     1       9.521   4.714  -5.921  1.00  0.00     0.026 A 
HETATM    2  C2  UNL     1       9.213   5.749  -6.806  1.00  0.00     0.038 A 
HETATM    3  C3  UNL     1       9.900   5.854  -8.007  1.00  0.00     0.065 A 
HETATM    4  C4  UNL     1      10.881   4.929  -8.345  1.00  0.00     0.038 A 
HETATM    5  C5  UNL     1      11.185   3.896  -7.453  1.00  0.00     0.026 A 
HETATM    6  C6  UNL     1      10.545   3.807  -6.213  1.00  0.00     0.005 A 
ENDROOT
BRANCH   6   7
HETATM    7  N1  UNL     1      10.770   2.705  -5.381  1.00  0.00    -0.303 NA
HETATM    8  H5  UNL     1       9.943   2.396  -4.880  1.00  0.00     0.124 HD
HETATM    9  H6  UNL     1      11.575   2.808  -4.771  1.00  0.00     0.124 HD
ENDBRANCH   6   7
BRANCH   3  10
HETATM   10  O1  UNL     1       9.568   6.877  -8.845  1.00  0.00    -0.361 OA
HETATM   11  H7  UNL     1       9.327   7.650  -8.310  1.00  0.00     0.217 HD
ENDBRANCH   3  10
TORSDOF 2
ENDMDL
MODEL 6
REMARK VINA RESULT:      -4.1      2.219      2.819
REMARK  2 active torsions:
REMARK  status: ('A' for Active; 'I' for Inactive)
REMARK    1  A    between atoms: C3_3  and  O1_8 
REMARK    2  A    between atoms: C6_6  and  N1_7 
ROOT
HETATM    1  C1  UNL     1      11.050   4.486  -5.950  1.00  0.00     0.026 A 
HETATM    2  C2  UNL     1       9.769   4.117  -6.365  1.00  0.00     0.038 A 
HETATM    3  C3  UNL     1       9.482   4.034  -7.720  1.00  0.00     0.065 A 
HETATM    4  C4  UNL     1      10.464   4.300  -8.669  1.00  0.00     0.038 A 
HETATM    5  C5  UNL     1      11.744   4.670  -8.245  1.00  0.00     0.026 A 
HETATM    6  C6  UNL     1      12.035   4.816  -6.885  1.00  0.00     0.005 A 
ENDROOT
BRANCH   6   7
HETATM    7  N1  UNL     1      13.347   5.069  -6.469  1.00  0.00    -0.303 NA
HETATM    8  H5  UNL     1      14.054   4.691  -7.093  1.00  0.00     0.124 HD
HETATM    9  H6  UNL     1      13.523   4.833  -5.498  1.00  0.00     0.124 HD
ENDBRANCH   6   7
BRANCH   3  10
HETATM   10  O1  UNL     1       8.222   3.668  -8.085  1.00  0.00    -0.361 OA
HETATM   11  H7  UNL     1       7.964   4.182  -8.867  1.00  0.00     0.217 HD
ENDBRANCH   3  10
TORSDOF 2
ENDMDL
MODEL 7
REMARK VINA RESULT:      -4.0      3.935      4.644
REMARK  2 active torsions:
REMARK  status: ('A' for Active; 'I' for Inactive)
REMARK    1  A    between atoms: C3_3  and  O1_8 
REMARK    2  A    between atoms: C6_6  and  N1_7 
ROOT
HETATM    1  C1  UNL     1      15.567   5.931  -8.126  1.00  0.00     0.026 A 
HETATM    2  C2  UNL     1      14.898   5.793  -9.344  1.00  0.00     0.038 A 
HETATM    3  C3  UNL     1      13.530   5.557  -9.355  1.00  0.00     0.065 A 
HETATM    4  C4  UNL     1      12.817   5.472  -8.164  1.00  0.00     0.038 A 
HETATM    5  C5  UNL     1      13.495   5.610  -6.948  1.00  0.00     0.026 A 
HETATM    6  C6  UNL     1      14.881   5.790  -6.916  1.00  0.00     0.005 A 
ENDROOT
BRANCH   6   7
HETATM    7  N1  UNL     1      15.531   6.046  -5.703  1.00  0.00    -0.303 NA
HETATM    8  H5  UNL     1      15.405   5.314  -5.011  1.00  0.00     0.124 HD
HETATM    9  H6  UNL     1      15.347   6.969  -5.326  1.00  0.00     0.124 HD
ENDBRANCH   6   7
BRANCH   3  10
HETATM   10  O1  UNL     1      12.913   5.431 -10.563  1.00  0.00    -0.361 OA
HETATM   11  H7  UNL     1      12.980   6.276 -11.035  1.00  0.00     0.217 HD
ENDBRANCH   3  10
TORSDOF 2
ENDMDL
MODEL 8
REMARK VINA RESULT:      -4.0      4.656      5.717
REMARK  2 active torsions:
REMARK  status: ('A' for Active; 'I' for Inactive)
REMARK    1  A    between atoms: C3_3  and  O1_8 
REMARK    2  A    between atoms: C6_6  and  N1_7 
ROOT
HETATM    1  C1  UNL     1      12.972   5.446  -8.117  1.00  0.00     0.026 A 
HETATM    2  C2  UNL     1      13.651   5.562  -6.902  1.00  0.00     0.038 A 
HETATM    3  C3  UNL     1      15.028   5.730  -6.897  1.00  0.00     0.065 A 
HETATM    4  C4  UNL     1      15.738   5.798  -8.091  1.00  0.00     0.038 A 
HETATM    5  C5  UNL     1      15.052   5.679  -9.303  1.00  0.00     0.026 A 
HETATM    6  C6  UNL     1      13.672   5.452  -9.328  1.00  0.00     0.005 A 
ENDROOT
BRANCH   6   7
HETATM    7  N1  UNL     1      12.979   5.453 -10.544  1.00  0.00    -0.303 NA
HETATM    8  H5  UNL     1      12.939   6.364 -10.989  1.00  0.00     0.124 HD
HETATM    9  H6  UNL     1      12.070   5.005 -10.498  1.00  0.00     0.124 HD
ENDBRANCH   6   7
BRANCH   3  10
HETATM   10  O1  UNL     1      15.653   5.842  -5.691  1.00  0.00    -0.361 OA
HETATM   11  H7  UNL     1      16.587   6.056  -5.845  1.00  0.00     0.217 HD
ENDBRANCH   3  10
TORSDOF 2
ENDMDL
MODEL 9
REMARK VINA RESULT:      -4.0      1.599      1.962
REMARK  2 active torsions:
REMARK  status: ('A' for Active; 'I' for Inactive)
REMARK    1  A    between atoms: C3_3  and  O1_8 
REMARK    2  A    between atoms: C6_6  and  N1_7 
ROOT
HETATM    1  C1  UNL     1      11.480   4.349  -8.459  1.00  0.00     0.026 A 
HETATM    2  C2  UNL     1      10.490   5.332  -8.534  1.00  0.00     0.038 A 
HETATM    3  C3  UNL     1       9.648   5.544  -7.452  1.00  0.00     0.065 A 
HETATM    4  C4  UNL     1       9.791   4.797  -6.287  1.00  0.00     0.038 A 
HETATM    5  C5  UNL     1      10.782   3.814  -6.220  1.00  0.00     0.026 A 
HETATM    6  C6  UNL     1      11.602   3.546  -7.321  1.00  0.00     0.005 A 
ENDROOT
BRANCH   6   7
HETATM    7  N1  UNL     1      12.667   2.646  -7.204  1.00  0.00    -0.303 NA
HETATM    8  H5  UNL     1      12.453   1.714  -7.547  1.00  0.00     0.124 HD
HETATM    9  H6  UNL     1      13.092   2.631  -6.283  1.00  0.00     0.124 HD
ENDBRANCH   6   7
BRANCH   3  10
HETATM   10  O1  UNL     1       8.697   6.513  -7.563  1.00  0.00    -0.361 OA
HETATM   11  H7  UNL     1       7.822   6.094  -7.540  1.00  0.00     0.217 HD
ENDBRANCH   3  10
TORSDOF 2
ENDMDL
MODEL 10
REMARK VINA RESULT:      -3.9      3.212      3.840
REMARK  2 active torsions:
REMARK  status: ('A' for Active; 'I' for Inactive)
REMARK    1  A    between atoms: C3_3  and  O1_8 
REMARK    2  A    between atoms: C6_6  and  N1_7 
ROOT
HETATM    1  C1  UNL     1      13.135   5.323  -8.132  1.00  0.00     0.026 A 
HETATM    2  C2  UNL     1      12.765   4.983  -6.829  1.00  0.00     0.038 A 
HETATM    3  C3  UNL     1      11.457   4.606  -6.562  1.00  0.00     0.065 A 
HETATM    4  C4  UNL     1      10.514   4.548  -7.583  1.00  0.00     0.038 A 
HETATM    5  C5  UNL     1      10.892   4.891  -8.885  1.00  0.00     0.026 A 
HETATM    6  C6  UNL     1      12.190   5.329  -9.163  1.00  0.00     0.005 A 
ENDROOT
BRANCH   6   7
HETATM    7  N1  UNL     1      12.590   5.555 -10.485  1.00  0.00    -0.303 NA
HETATM    8  H5  UNL     1      12.001   6.216 -10.982  1.00  0.00     0.124 HD
HETATM    9  H6  UNL     1      12.750   4.706 -11.016  1.00  0.00     0.124 HD
ENDBRANCH   6   7
BRANCH   3  10
HETATM   10  O1  UNL     1      11.135   4.279  -5.279  1.00  0.00    -0.361 OA
HETATM   11  H7  UNL     1      11.948   4.030  -4.810  1.00  0.00     0.217 HD
ENDBRANCH   3  10
TORSDOF 2
ENDMDL
MODEL 11
REMARK VINA RESULT:      -3.9      1.901      2.704
REMARK  2 active torsions:
REMARK  status: ('A' for Active; 'I' for Inactive)
REMARK    1  A    between atoms: C3_3  and  O1_8 
REMARK    2  A    between atoms: C6_6  and  N1_7 
ROOT
HETATM    1  C1  UNL     1      10.285   4.500  -7.600  1.00  0.00     0.026 A 
HETATM    2  C2  UNL     1      10.666   4.830  -8.903  1.00  0.00     0.038 A 
HETATM    3  C3  UNL     1      11.980   5.191  -9.165  1.00  0.00     0.065 A 
HETATM    4  C4  UNL     1      12.925   5.212  -8.145  1.00  0.00     0.038 A 
HETATM    5  C5  UNL     1      12.536   4.882  -6.843  1.00  0.00     0.026 A 
HETATM    6  C6  UNL     1      11.204   4.572  -6.549  1.00  0.00     0.005 A 
ENDROOT
BRANCH   6   7
HETATM    7  N1  UNL     1      10.850   4.129  -5.270  1.00  0.00    -0.303 NA
HETATM    8  H5  UNL     1      11.626   3.742  -4.743  1.00  0.00     0.124 HD
HETATM    9  H6  UNL     1      10.034   3.525  -5.257  1.00  0.00     0.124 HD
ENDBRANCH   6   7
BRANCH   3  10
HETATM   10  O1  UNL     1      12.313   5.502 -10.449  1.00  0.00    -0.361 OA
HETATM   11  H7  UNL     1      13.278   5.589 -10.507  1.00  0.00     0.217 HD
ENDBRANCH   3  10
TORSDOF 2
ENDMDL
MODEL 12
REMARK VINA RESULT:      -3.9      4.600      5.430
REMARK  2 active torsions:
REMARK  status: ('A' for Active; 'I' for Inactive)
REMARK    1  A    between atoms: C3_3  and  O1_8 
REMARK    2  A    between atoms: C6_6  and  N1_7 
ROOT
HETATM    1  C1  UNL     1      14.859   6.205  -9.176  1.00  0.00     0.026 A 
HETATM    2  C2  UNL     1      15.536   6.285  -7.957  1.00  0.00     0.038 A 
HETATM    3  C3  UNL     1      14.940   5.791  -6.805  1.00  0.00     0.065 A 
HETATM    4  C4  UNL     1      13.682   5.201  -6.856  1.00  0.00     0.038 A 
HETATM    5  C5  UNL     1      13.010   5.126  -8.080  1.00  0.00     0.026 A 
HETATM    6  C6  UNL     1      13.568   5.671  -9.240  1.00  0.00     0.005 A 
ENDROOT
BRANCH   6   7
HETATM    7  N1  UNL     1      12.943   5.484 -10.478  1.00  0.00    -0.303 NA
HETATM    8  H5  UNL     1      13.574   5.177 -11.212  1.00  0.00     0.124 HD
HETATM    9  H6  UNL     1      12.365   6.267 -10.768  1.00  0.00     0.124 HD
ENDBRANCH   6   7
BRANCH   3  10
HETATM   10  O1  UNL     1      15.634   5.886  -5.636  1.00  0.00    -0.361 OA
HETATM   11  H7  UNL     1      15.063   6.300  -4.970  1.00  0.00     0.217 HD
ENDBRANCH   3  10
TORSDOF 2
ENDMDL
MODEL 13
REMARK VINA RESULT:      -3.9      2.675      3.320
REMARK  2 active torsions:
REMARK  status: ('A' for Active; 'I' for Inactive)
REMARK    1  A    between atoms: C3_3  and  O1_8 
REMARK    2  A    between atoms: C6_6  and  N1_7 
ROOT
HETATM    1  C1  UNL     1       9.580   4.105  -5.865  1.00  0.00     0.026 A 
HETATM    2  C2  UNL     1      10.892   3.626  -5.882  1.00  0.00     0.038 A 
HETATM    3  C3  UNL     1      11.550   3.465  -7.093  1.00  0.00     0.065 A 
HETATM    4  C4  UNL     1      10.921   3.793  -8.289  1.00  0.00     0.038 A 
HETATM    5  C5  UNL     1       9.608   4.271  -8.265  1.00  0.00     0.026 A 
HETATM    6  C6  UNL     1       8.908   4.384  -7.059  1.00  0.00     0.005 A 
ENDROOT
BRANCH   6   7
HETATM    7  N1  UNL     1       7.639   4.974  -7.033  1.00  0.00    -0.303 NA
HETATM    8  H5  UNL     1       6.989   4.517  -6.401  1.00  0.00     0.124 HD
HETATM    9  H6  UNL     1       7.239   5.128  -7.953  1.00  0.00     0.124 HD
ENDBRANCH   6   7
BRANCH   3  10
HETATM   10  O1  UNL     1      12.830   2.998  -7.067  1.00  0.00    -0.361 OA
HETATM   11  H7  UNL     1      13.342   3.458  -7.751  1.00  0.00     0.217 HD
ENDBRANCH   3  10
TORSDOF 2
ENDMDL
MODEL 14
REMARK VINA RESULT:      -3.8      2.925      3.522
REMARK  2 active torsions:
REMARK  status: ('A' for Active; 'I' for Inactive)
REMARK    1  A    between atoms: C3_3  and  O1_8 
REMARK    2  A    between atoms: C6_6  and  N1_7 
ROOT
HETATM    1  C1  UNL     1      10.588   5.087  -9.004  1.00  0.00     0.026 A 
HETATM    2  C2  UNL     1      11.959   5.313  -9.148  1.00  0.00     0.038 A 
HETATM    3  C3  UNL     1      12.864   4.509  -8.470  1.00  0.00     0.065 A 
HETATM    4  C4  UNL     1      12.419   3.469  -7.662  1.00  0.00     0.038 A 
HETATM    5  C5  UNL     1      11.046   3.249  -7.521  1.00  0.00     0.026 A 
HETATM    6  C6  UNL     1      10.118   4.085  -8.149  1.00  0.00     0.005 A 
ENDROOT
BRANCH   6   7
HETATM    7  N1  UNL     1       8.751   3.785  -8.099  1.00  0.00    -0.303 NA
HETATM    8  H5  UNL     1       8.518   2.878  -8.492  1.00  0.00     0.124 HD
HETATM    9  H6  UNL     1       8.156   4.525  -8.455  1.00  0.00     0.124 HD
ENDBRANCH   6   7
BRANCH   3  10
HETATM   10  O1  UNL     1      14.193   4.760  -8.639  1.00  0.00    -0.361 OA
HETATM   11  H7  UNL     1      14.326   5.721  -8.657  1.00  0.00     0.217 HD
ENDBRANCH   3  10
TORSDOF 2
ENDMDL
MODEL 15
REMARK VINA RESULT:      -3.8      2.435      2.872
REMARK  2 active torsions:
REMARK  status: ('A' for Active; 'I' for Inactive)
REMARK    1  A    between atoms: C3_3  and  O1_8 
REMARK    2  A    between atoms: C6_6  and  N1_7 
ROOT
HETATM    1  C1  UNL     1      13.215   5.486  -8.192  1.00  0.00     0.026 A 
HETATM    2  C2  UNL     1      12.200   5.189  -9.105  1.00  0.00     0.038 A 
HETATM    3  C3  UNL     1      11.018   4.615  -8.658  1.00  0.00     0.065 A 
HETATM    4  C4  UNL     1      10.828   4.348  -7.307  1.00  0.00     0.038 A 
HETATM    5  C5  UNL     1      11.849   4.647  -6.399  1.00  0.00     0.026 A 
HETATM    6  C6  UNL     1      13.069   5.170  -6.838  1.00  0.00     0.005 A 
ENDROOT
BRANCH   6   7
HETATM    7  N1  UNL     1      14.036   5.576  -5.911  1.00  0.00    -0.303 NA
HETATM    8  H5  UNL     1      13.833   5.290  -4.958  1.00  0.00     0.124 HD
HETATM    9  H6  UNL     1      14.280   6.559  -5.976  1.00  0.00     0.124 HD
ENDBRANCH   6   7
BRANCH   3  10
HETATM   10  O1  UNL     1      10.052   4.343  -9.579  1.00  0.00    -0.361 OA
HETATM   11  H7  UNL     1      10.065   5.038 -10.257  1.00  0.00     0.217 HD
ENDBRANCH   3  10
TORSDOF 2
ENDMDL
MODEL 16
REMARK VINA RESULT:      -3.7      2.861      3.303
REMARK  2 active torsions:
REMARK  status: ('A' for Active; 'I' for Inactive)
REMARK    1  A    between atoms: C3_3  and  O1_8 
REMARK    2  A    between atoms: C6_6  and  N1_7 
ROOT
HETATM    1  C1  UNL     1      11.306   3.396  -7.830  1.00  0.00     0.026 A 
HETATM    2  C2  UNL     1      12.618   3.873  -7.820  1.00  0.00     0.038 A 
HETATM    3  C3  UNL     1      12.880   5.175  -8.221  1.00  0.00     0.065 A 
HETATM    4  C4  UNL     1      11.846   6.016  -8.618  1.00  0.00     0.038 A 
HETATM    5  C5  UNL     1      10.535   5.531  -8.627  1.00  0.00     0.026 A 
HETATM    6  C6  UNL     1      10.258   4.204  -8.283  1.00  0.00     0.005 A 
ENDROOT
BRANCH   6   7
HETATM    7  N1  UNL     1       8.933   3.764  -8.181  1.00  0.00    -0.303 NA
HETATM    8  H5  UNL     1       8.265   4.369  -8.649  1.00  0.00     0.124 HD
HETATM    9  H6  UNL     1       8.649   3.534  -7.235  1.00  0.00     0.124 HD
ENDBRANCH   6   7
BRANCH   3  10
HETATM   10  O1  UNL     1      14.174   5.604  -8.193  1.00  0.00    -0.361 OA
HETATM   11  H7  UNL     1      14.752   4.836  -8.059  1.00  0.00     0.217 HD
ENDBRANCH   3  10
TORSDOF 2
ENDMDL
MODEL 17
REMARK VINA RESULT:      -3.7      1.722      2.186
REMARK  2 active torsions:
REMARK  status: ('A' for Active; 'I' for Inactive)
REMARK    1  A    between atoms: C3_3  and  O1_8 
REMARK    2  A    between atoms: C6_6  and  N1_7 
ROOT
HETATM    1  C1  UNL     1      12.230   3.375  -7.521  1.00  0.00     0.026 A 
HETATM    2  C2  UNL     1      12.689   4.210  -8.543  1.00  0.00     0.038 A 
HETATM    3  C3  UNL     1      12.040   5.411  -8.793  1.00  0.00     0.065 A 
HETATM    4  C4  UNL     1      10.947   5.798  -8.026  1.00  0.00     0.038 A 
HETATM    5  C5  UNL     1      10.493   4.957  -7.006  1.00  0.00     0.026 A 
HETATM    6  C6  UNL     1      11.097   3.716  -6.777  1.00  0.00     0.005 A 
ENDROOT
BRANCH   6   7
HETATM    7  N1  UNL     1      10.712   2.937  -5.681  1.00  0.00    -0.303 NA
HETATM    8  H5  UNL     1      10.047   2.206  -5.913  1.00  0.00     0.124 HD
HETATM    9  H6  UNL     1      10.424   3.479  -4.873  1.00  0.00     0.124 HD
ENDBRANCH   6   7
BRANCH   3  10
HETATM   10  O1  UNL     1      12.520   6.199  -9.796  1.00  0.00    -0.361 OA
HETATM   11  H7  UNL     1      13.260   5.739 -10.225  1.00  0.00     0.217 HD
ENDBRANCH   3  10
TORSDOF 2
ENDMDL
MODEL 18
REMARK VINA RESULT:      -3.4      4.502      5.202
REMARK  2 active torsions:
REMARK  status: ('A' for Active; 'I' for Inactive)
REMARK    1  A    between atoms: C3_3  and  O1_8 
REMARK    2  A    between atoms: C6_6  and  N1_7 
ROOT
HETATM    1  C1  UNL     1      14.238   7.130  -8.681  1.00  0.00     0.026 A 
HETATM    2  C2  UNL     1      14.251   6.733  -7.343  1.00  0.00     0.038 A 
HETATM    3  C3  UNL     1      13.585   5.576  -6.962  1.00  0.00     0.065 A 
HETATM    4  C4  UNL     1      12.920   4.800  -7.905  1.00  0.00     0.038 A 
HETATM    5  C5  UNL     1      12.910   5.205  -9.243  1.00  0.00     0.026 A 
HETATM    6  C6  UNL     1      13.525   6.398  -9.635  1.00  0.00     0.005 A 
ENDROOT
BRANCH   6   7
HETATM    7  N1  UNL     1      13.613   6.733 -10.992  1.00  0.00    -0.303 NA
HETATM    8  H5  UNL     1      12.756   6.565 -11.509  1.00  0.00     0.124 HD
HETATM    9  H6  UNL     1      14.427   6.348 -11.458  1.00  0.00     0.124 HD
ENDBRANCH   6   7
BRANCH   3  10
HETATM   10  O1  UNL     1      13.623   5.220  -5.647  1.00  0.00    -0.361 OA
HETATM   11  H7  UNL     1      12.716   5.062  -5.343  1.00  0.00     0.217 HD
ENDBRANCH   3  10
TORSDOF 2
ENDMDL
MODEL 19
REMARK VINA RESULT:      -3.2      4.915      5.842
REMARK  2 active torsions:
REMARK  status: ('A' for Active; 'I' for Inactive)
REMARK    1  A    between atoms: C3_3  and  O1_8 
REMARK    2  A    between atoms: C6_6  and  N1_7 
ROOT
HETATM    1  C1  UNL     1      13.959   7.561  -7.808  1.00  0.00     0.026 A 
HETATM    2  C2  UNL     1      13.364   6.304  -7.681  1.00  0.00     0.038 A 
HETATM    3  C3  UNL     1      14.064   5.271  -7.074  1.00  0.00     0.065 A 
HETATM    4  C4  UNL     1      15.344   5.480  -6.575  1.00  0.00     0.038 A 
HETATM    5  C5  UNL     1      15.933   6.742  -6.706  1.00  0.00     0.026 A 
HETATM    6  C6  UNL     1      15.268   7.779  -7.368  1.00  0.00     0.005 A 
ENDROOT
BRANCH   6   7
HETATM    7  N1  UNL     1      15.815   9.067  -7.389  1.00  0.00    -0.303 NA
HETATM    8  H5  UNL     1      15.137   9.800  -7.207  1.00  0.00     0.124 HD
HETATM    9  H6  UNL     1      16.381   9.258  -8.208  1.00  0.00     0.124 HD
ENDBRANCH   6   7
BRANCH   3  10
HETATM   10  O1  UNL     1      13.448   4.060  -6.967  1.00  0.00    -0.361 OA
HETATM   11  H7  UNL     1      14.110   3.398  -6.710  1.00  0.00     0.217 HD
ENDBRANCH   3  10
TORSDOF 2
ENDMDL
MODEL 20
REMARK VINA RESULT:      -3.2      4.651      5.337
REMARK  2 active torsions:
REMARK  status: ('A' for Active; 'I' for Inactive)
REMARK    1  A    between atoms: C3_3  and  O1_8 
REMARK    2  A    between atoms: C6_6  and  N1_7 
ROOT
HETATM    1  C1  UNL     1      15.377   5.533  -6.551  1.00  0.00     0.026 A 
HETATM    2  C2  UNL     1      16.063   6.748  -6.608  1.00  0.00     0.038 A 
HETATM    3  C3  UNL     1      15.481   7.838  -7.240  1.00  0.00     0.065 A 
HETATM    4  C4  UNL     1      14.213   7.736  -7.803  1.00  0.00     0.038 A 
HETATM    5  C5  UNL     1      13.534   6.515  -7.744  1.00  0.00     0.026 A 
HETATM    6  C6  UNL     1      14.128   5.390  -7.163  1.00  0.00     0.005 A 
ENDROOT
BRANCH   6   7
HETATM    7  N1  UNL     1      13.395   4.209  -7.003  1.00  0.00    -0.303 NA
HETATM    8  H5  UNL     1      13.705   3.452  -7.604  1.00  0.00     0.124 HD
HETATM    9  H6  UNL     1      12.390   4.343  -7.036  1.00  0.00     0.124 HD
ENDBRANCH   6   7
BRANCH   3  10
HETATM   10  O1  UNL     1      16.180   9.007  -7.271  1.00  0.00    -0.361 OA
HETATM   11  H7  UNL     1      16.093   9.443  -6.409  1.00  0.00     0.217 HD
ENDBRANCH   3  10
TORSDOF 2
ENDMDL
