MODEL 1
REMARK VINA RESULT:      -4.0      0.000      0.000
REMARK  2 active torsions:
REMARK  status: ('A' for Active; 'I' for Inactive)
REMARK    1  A    between atoms: C3_3  and  O1_8 
REMARK    2  A    between atoms: C6_6  and  N1_7 
ROOT
HETATM    1  C1  UNL     1       9.866  17.033  -4.383  1.00  0.00     0.026 A 
HETATM    2  C2  UNL     1      11.012  16.464  -3.822  1.00  0.00     0.038 A 
HETATM    3  C3  UNL     1      10.890  15.565  -2.772  1.00  0.00     0.065 A 
HETATM    4  C4  UNL     1       9.637  15.213  -2.283  1.00  0.00     0.038 A 
HETATM    5  C5  UNL     1       8.495  15.788  -2.849  1.00  0.00     0.026 A 
HETATM    6  C6  UNL     1       8.600  16.740  -3.868  1.00  0.00     0.005 A 
ENDROOT
BRANCH   6   7
HETATM    7  N1  UNL     1       7.450  17.218  -4.507  1.00  0.00    -0.303 NA
HETATM    8  H5  UNL     1       7.007  16.536  -5.114  1.00  0.00     0.124 HD
HETATM    9  H6  UNL     1       7.578  18.116  -4.962  1.00  0.00     0.124 HD
ENDBRANCH   6   7
BRANCH   3  10
HETATM   10  O1  UNL     1      12.031  15.030  -2.254  1.00  0.00    -0.361 OA
HETATM   11  H7  UNL     1      12.418  15.668  -1.633  1.00  0.00     0.217 HD
ENDBRANCH   3  10
TORSDOF 2
ENDMDL
MODEL 2
REMARK VINA RESULT:      -3.9      2.785      3.267
REMARK  2 active torsions:
REMARK  status: ('A' for Active; 'I' for Inactive)
REMARK    1  A    between atoms: C3_3  and  O1_8 
REMARK    2  A    between atoms: C6_6  and  N1_7 
ROOT
HETATM    1  C1  UNL     1      11.004  16.673  -3.976  1.00  0.00     0.026 A 
HETATM    2  C2  UNL     1       9.802  17.126  -4.524  1.00  0.00     0.038 A 
HETATM    3  C3  UNL     1       8.598  16.758  -3.941  1.00  0.00     0.065 A 
HETATM    4  C4  UNL     1       8.577  15.955  -2.805  1.00  0.00     0.038 A 
HETATM    5  C5  UNL     1       9.784  15.505  -2.263  1.00  0.00     0.026 A 
HETATM    6  C6  UNL     1      11.005  15.817  -2.871  1.00  0.00     0.005 A 
ENDROOT
BRANCH   6   7
HETATM    7  N1  UNL     1      12.210  15.462  -2.254  1.00  0.00    -0.303 NA
HETATM    8  H5  UNL     1      13.034  15.755  -2.770  1.00  0.00     0.124 HD
HETATM    9  H6  UNL     1      12.256  14.488  -1.973  1.00  0.00     0.124 HD
ENDBRANCH   6   7
BRANCH   3  10
HETATM   10  O1  UNL     1       7.447  17.222  -4.504  1.00  0.00    -0.361 OA
HETATM   11  H7  UNL     1       6.693  16.844  -4.024  1.00  0.00     0.217 HD
ENDBRANCH   3  10
TORSDOF 2
ENDMDL
MODEL 3
REMARK VINA RESULT:      -3.5      9.844     10.116
REMARK  2 active torsions:
REMARK  status: ('A' for Active; 'I' for Inactive)
REMARK    1  A    between atoms: C3_3  and  O1_8 
REMARK    2  A    between atoms: C6_6  and  N1_7 
ROOT
HETATM    1  C1  UNL     1       6.756  10.440 -10.462  1.00  0.00     0.026 A 
HETATM    2  C2  UNL     1       6.566  10.686  -9.101  1.00  0.00     0.038 A 
HETATM    3  C3  UNL     1       5.635   9.942  -8.390  1.00  0.00     0.065 A 
HETATM    4  C4  UNL     1       4.901   8.942  -9.017  1.00  0.00     0.038 A 
HETATM    5  C5  UNL     1       5.095   8.702 -10.381  1.00  0.00     0.026 A 
HETATM    6  C6  UNL     1       5.986   9.480 -11.127  1.00  0.00     0.005 A 
ENDROOT
BRANCH   6   7
HETATM    7  N1  UNL     1       6.260   9.155 -12.460  1.00  0.00    -0.303 NA
HETATM    8  H5  UNL     1       6.807   8.306 -12.568  1.00  0.00     0.124 HD
HETATM    9  H6  UNL     1       6.634   9.926 -13.002  1.00  0.00     0.124 HD
ENDBRANCH   6   7
BRANCH   3  10
HETATM   10  O1  UNL     1       5.482  10.212  -7.063  1.00  0.00    -0.361 OA
HETATM   11  H7  UNL     1       5.434  11.174  -6.946  1.00  0.00     0.217 HD
ENDBRANCH   3  10
TORSDOF 2
ENDMDL
MODEL 4
REMARK VINA RESULT:      -3.5     10.876     11.190
REMARK  2 active torsions:
REMARK  status: ('A' for Active; 'I' for Inactive)
REMARK    1  A    between atoms: C3_3  and  O1_8 
REMARK    2  A    between atoms: C6_6  and  N1_7 
ROOT
HETATM    1  C1  UNL     1       6.319   9.916 -10.460  1.00  0.00     0.026 A 
HETATM    2  C2  UNL     1       5.705   9.230 -11.510  1.00  0.00     0.038 A 
HETATM    3  C3  UNL     1       4.716   8.296 -11.236  1.00  0.00     0.065 A 
HETATM    4  C4  UNL     1       4.318   8.049  -9.927  1.00  0.00     0.038 A 
HETATM    5  C5  UNL     1       4.939   8.739  -8.881  1.00  0.00     0.026 A 
HETATM    6  C6  UNL     1       5.978   9.640  -9.133  1.00  0.00     0.005 A 
ENDROOT
BRANCH   6   7
HETATM    7  N1  UNL     1       6.509  10.411  -8.093  1.00  0.00    -0.303 NA
HETATM    8  H5  UNL     1       7.308  10.974  -8.369  1.00  0.00     0.124 HD
HETATM    9  H6  UNL     1       6.682   9.889  -7.241  1.00  0.00     0.124 HD
ENDBRANCH   6   7
BRANCH   3  10
HETATM   10  O1  UNL     1       4.139   7.650 -12.288  1.00  0.00    -0.361 OA
HETATM   11  H7  UNL     1       3.570   8.277 -12.763  1.00  0.00     0.217 HD
ENDBRANCH   3  10
TORSDOF 2
ENDMDL
MODEL 5
REMARK VINA RESULT:      -3.4      3.180      3.683
REMARK  2 active torsions:
REMARK  status: ('A' for Active; 'I' for Inactive)
REMARK    1  A    between atoms: C3_3  and  O1_8 
REMARK    2  A    between atoms: C6_6  and  N1_7 
ROOT
HETATM    1  C1  UNL     1      11.341  16.622  -5.118  1.00  0.00     0.026 A 
HETATM    2  C2  UNL     1       9.959  16.630  -4.918  1.00  0.00     0.038 A 
HETATM    3  C3  UNL     1       9.425  17.312  -3.833  1.00  0.00     0.065 A 
HETATM    4  C4  UNL     1      10.253  18.002  -2.954  1.00  0.00     0.038 A 
HETATM    5  C5  UNL     1      11.635  17.988  -3.161  1.00  0.00     0.026 A 
HETATM    6  C6  UNL     1      12.196  17.258  -4.213  1.00  0.00     0.005 A 
ENDROOT
BRANCH   6   7
HETATM    7  N1  UNL     1      13.567  17.347  -4.482  1.00  0.00    -0.303 NA
HETATM    8  H5  UNL     1      13.788  17.361  -5.473  1.00  0.00     0.124 HD
HETATM    9  H6  UNL     1      14.130  16.677  -3.969  1.00  0.00     0.124 HD
ENDBRANCH   6   7
BRANCH   3  10
HETATM   10  O1  UNL     1       8.072  17.299  -3.674  1.00  0.00    -0.361 OA
HETATM   11  H7  UNL     1       7.691  18.018  -4.202  1.00  0.00     0.217 HD
ENDBRANCH   3  10
TORSDOF 2
ENDMDL
MODEL 6
REMARK VINA RESULT:      -3.4     10.056     10.374
REMARK  2 active torsions:
REMARK  status: ('A' for Active; 'I' for Inactive)
REMARK    1  A    between atoms: C3_3  and  O1_8 
REMARK    2  A    between atoms: C6_6  and  N1_7 
ROOT
HETATM    1  C1  UNL     1       6.078   9.637 -11.222  1.00  0.00     0.026 A 
HETATM    2  C2  UNL     1       5.192   8.683 -10.717  1.00  0.00     0.038 A 
HETATM    3  C3  UNL     1       4.948   8.626  -9.352  1.00  0.00     0.065 A 
HETATM    4  C4  UNL     1       5.565   9.520  -8.485  1.00  0.00     0.038 A 
HETATM    5  C5  UNL     1       6.451  10.472  -8.997  1.00  0.00     0.026 A 
HETATM    6  C6  UNL     1       6.755  10.507 -10.362  1.00  0.00     0.005 A 
ENDROOT
BRANCH   6   7
HETATM    7  N1  UNL     1       7.549  11.536 -10.881  1.00  0.00    -0.303 NA
HETATM    8  H5  UNL     1       8.466  11.601 -10.450  1.00  0.00     0.124 HD
HETATM    9  H6  UNL     1       7.079  12.434 -10.926  1.00  0.00     0.124 HD
ENDBRANCH   6   7
BRANCH   3  10
HETATM   10  O1  UNL     1       4.075   7.682  -8.899  1.00  0.00    -0.361 OA
HETATM   11  H7  UNL     1       4.573   7.014  -8.401  1.00  0.00     0.217 HD
ENDBRANCH   3  10
TORSDOF 2
ENDMDL
MODEL 7
REMARK VINA RESULT:      -3.2      9.919     10.331
REMARK  2 active torsions:
REMARK  status: ('A' for Active; 'I' for Inactive)
REMARK    1  A    between atoms: C3_3  and  O1_8 
REMARK    2  A    between atoms: C6_6  and  N1_7 
ROOT
HETATM    1  C1  UNL     1       4.773   8.936  -8.950  1.00  0.00     0.026 A 
HETATM    2  C2  UNL     1       4.990   8.679 -10.305  1.00  0.00     0.038 A 
HETATM    3  C3  UNL     1       5.960   9.394 -10.994  1.00  0.00     0.065 A 
HETATM    4  C4  UNL     1       6.729  10.352 -10.342  1.00  0.00     0.038 A 
HETATM    5  C5  UNL     1       6.505  10.604  -8.986  1.00  0.00     0.026 A 
HETATM    6  C6  UNL     1       5.493   9.936  -8.289  1.00  0.00     0.005 A 
ENDROOT
BRANCH   6   7
HETATM    7  N1  UNL     1       5.356  10.109  -6.907  1.00  0.00    -0.303 NA
HETATM    8  H5  UNL     1       6.044  10.737  -6.505  1.00  0.00     0.124 HD
HETATM    9  H6  UNL     1       5.278   9.239  -6.391  1.00  0.00     0.124 HD
ENDBRANCH   6   7
BRANCH   3  10
HETATM   10  O1  UNL     1       6.144   9.112 -12.314  1.00  0.00    -0.361 OA
HETATM   11  H7  UNL     1       6.107   9.942 -12.816  1.00  0.00     0.217 HD
ENDBRANCH   3  10
TORSDOF 2
ENDMDL
MODEL 8
REMARK VINA RESULT:      -2.9      3.173      3.817
REMARK  2 active torsions:
REMARK  status: ('A' for Active; 'I' for Inactive)
REMARK    1  A    between atoms: C3_3  and  O1_8 
REMARK    2  A    between atoms: C6_6  and  N1_7 
ROOT
HETATM    1  C1  UNL     1      12.876  16.940  -4.639  1.00  0.00     0.026 A 
HETATM    2  C2  UNL     1      12.345  16.727  -5.913  1.00  0.00     0.038 A 
HETATM    3  C3  UNL     1      10.974  16.575  -6.070  1.00  0.00     0.065 A 
HETATM    4  C4  UNL     1      10.123  16.651  -4.973  1.00  0.00     0.038 A 
HETATM    5  C5  UNL     1      10.662  16.864  -3.701  1.00  0.00     0.026 A 
HETATM    6  C6  UNL     1      12.045  16.960  -3.515  1.00  0.00     0.005 A 
ENDROOT
BRANCH   6   7
HETATM    7  N1  UNL     1      12.566  17.292  -2.259  1.00  0.00    -0.303 NA
HETATM    8  H5  UNL     1      13.420  16.793  -2.027  1.00  0.00     0.124 HD
HETATM    9  H6  UNL     1      11.883  17.257  -1.509  1.00  0.00     0.124 HD
ENDBRANCH   6   7
BRANCH   3  10
HETATM   10  O1  UNL     1      10.495  16.371  -7.329  1.00  0.00    -0.361 OA
HETATM   11  H7  UNL     1      11.081  16.818  -7.960  1.00  0.00     0.217 HD
ENDBRANCH   3  10
TORSDOF 2
ENDMDL
MODEL 9
REMARK VINA RESULT:      -2.9      8.740      9.007
REMARK  2 active torsions:
REMARK  status: ('A' for Active; 'I' for Inactive)
REMARK    1  A    between atoms: C3_3  and  O1_8 
REMARK    2  A    between atoms: C6_6  and  N1_7 
ROOT
HETATM    1  C1  UNL     1       6.699  10.475 -10.901  1.00  0.00     0.026 A 
HETATM    2  C2  UNL     1       7.113  11.787 -10.662  1.00  0.00     0.038 A 
HETATM    3  C3  UNL     1       7.130  12.277  -9.364  1.00  0.00     0.065 A 
HETATM    4  C4  UNL     1       6.754  11.469  -8.297  1.00  0.00     0.038 A 
HETATM    5  C5  UNL     1       6.339  10.157  -8.544  1.00  0.00     0.026 A 
HETATM    6  C6  UNL     1       6.259   9.664  -9.850  1.00  0.00     0.005 A 
ENDROOT
BRANCH   6   7
HETATM    7  N1  UNL     1       5.958   8.316 -10.078  1.00  0.00    -0.303 NA
HETATM    8  H5  UNL     1       6.762   7.759 -10.349  1.00  0.00     0.124 HD
HETATM    9  H6  UNL     1       5.163   8.171 -10.691  1.00  0.00     0.124 HD
ENDBRANCH   6   7
BRANCH   3  10
HETATM   10  O1  UNL     1       7.543  13.562  -9.172  1.00  0.00    -0.361 OA
HETATM   11  H7  UNL     1       8.512  13.571  -9.119  1.00  0.00     0.217 HD
ENDBRANCH   3  10
TORSDOF 2
ENDMDL
MODEL 10
REMARK VINA RESULT:      -2.9     12.915     13.458
REMARK  2 active torsions:
REMARK  status: ('A' for Active; 'I' for Inactive)
REMARK    1  A    between atoms: C3_3  and  O1_8 
REMARK    2  A    between atoms: C6_6  and  N1_7 
ROOT
HETATM    1  C1  UNL     1       6.604  11.749 -16.633  1.00  0.00     0.026 A 
HETATM    2  C2  UNL     1       7.478  12.645 -17.254  1.00  0.00     0.038 A 
HETATM    3  C3  UNL     1       8.147  13.592 -16.492  1.00  0.00     0.065 A 
HETATM    4  C4  UNL     1       7.968  13.648 -15.115  1.00  0.00     0.038 A 
HETATM    5  C5  UNL     1       7.091  12.749 -14.501  1.00  0.00     0.026 A 
HETATM    6  C6  UNL     1       6.363  11.826 -15.258  1.00  0.00     0.005 A 
ENDROOT
BRANCH   6   7
HETATM    7  N1  UNL     1       5.580  10.855 -14.624  1.00  0.00    -0.303 NA
HETATM    8  H5  UNL     1       5.299  10.095 -15.235  1.00  0.00     0.124 HD
HETATM    9  H6  UNL     1       4.802  11.235 -14.097  1.00  0.00     0.124 HD
ENDBRANCH   6   7
BRANCH   3  10
HETATM   10  O1  UNL     1       8.993  14.446 -17.134  1.00  0.00    -0.361 OA
HETATM   11  H7  UNL     1       9.644  13.923 -17.630  1.00  0.00     0.217 HD
ENDBRANCH   3  10
TORSDOF 2
ENDMDL
MODEL 11
REMARK VINA RESULT:      -2.8     12.933     13.486
REMARK  2 active torsions:
REMARK  status: ('A' for Active; 'I' for Inactive)
REMARK    1  A    between atoms: C3_3  and  O1_8 
REMARK    2  A    between atoms: C6_6  and  N1_7 
ROOT
HETATM    1  C1  UNL     1       7.444  12.648 -17.254  1.00  0.00     0.026 A 
HETATM    2  C2  UNL     1       6.577  11.762 -16.611  1.00  0.00     0.038 A 
HETATM    3  C3  UNL     1       6.412  11.838 -15.235  1.00  0.00     0.065 A 
HETATM    4  C4  UNL     1       7.089  12.800 -14.493  1.00  0.00     0.038 A 
HETATM    5  C5  UNL     1       7.956  13.683 -15.144  1.00  0.00     0.026 A 
HETATM    6  C6  UNL     1       8.180  13.583 -16.520  1.00  0.00     0.005 A 
ENDROOT
BRANCH   6   7
HETATM    7  N1  UNL     1       8.956  14.545 -17.179  1.00  0.00    -0.303 NA
HETATM    8  H5  UNL     1       8.929  15.460 -16.741  1.00  0.00     0.124 HD
HETATM    9  H6  UNL     1       8.791  14.590 -18.179  1.00  0.00     0.124 HD
ENDBRANCH   6   7
BRANCH   3  10
HETATM   10  O1  UNL     1       5.555  10.958 -14.645  1.00  0.00    -0.361 OA
HETATM   11  H7  UNL     1       5.646  11.036 -13.682  1.00  0.00     0.217 HD
ENDBRANCH   3  10
TORSDOF 2
ENDMDL
MODEL 12
REMARK VINA RESULT:      -2.7      5.464      6.137
REMARK  2 active torsions:
REMARK  status: ('A' for Active; 'I' for Inactive)
REMARK    1  A    between atoms: C3_3  and  O1_8 
REMARK    2  A    between atoms: C6_6  and  N1_7 
ROOT
HETATM    1  C1  UNL     1      11.861  16.543 -10.183  1.00  0.00     0.026 A 
HETATM    2  C2  UNL     1      13.074  17.061  -9.721  1.00  0.00     0.038 A 
HETATM    3  C3  UNL     1      13.290  17.192  -8.356  1.00  0.00     0.065 A 
HETATM    4  C4  UNL     1      12.317  16.797  -7.444  1.00  0.00     0.038 A 
HETATM    5  C5  UNL     1      11.105  16.281  -7.915  1.00  0.00     0.026 A 
HETATM    6  C6  UNL     1      10.846  16.197  -9.286  1.00  0.00     0.005 A 
ENDROOT
BRANCH   6   7
HETATM    7  N1  UNL     1       9.682  15.570  -9.746  1.00  0.00    -0.303 NA
HETATM    8  H5  UNL     1       9.382  14.792  -9.168  1.00  0.00     0.124 HD
HETATM    9  H6  UNL     1       9.707  15.332 -10.732  1.00  0.00     0.124 HD
ENDBRANCH   6   7
BRANCH   3  10
HETATM   10  O1  UNL     1      14.486  17.698  -7.945  1.00  0.00    -0.361 OA
HETATM   11  H7  UNL     1      15.198  17.175  -8.347  1.00  0.00     0.217 HD
ENDBRANCH   3  10
TORSDOF 2
ENDMDL
MODEL 13
REMARK VINA RESULT:      -2.7      5.958      6.918
REMARK  2 active torsions:
REMARK  status: ('A' for Active; 'I' for Inactive)
REMARK    1  A    between atoms: C3_3  and  O1_8 
REMARK    2  A    between atoms: C6_6  and  N1_7 
ROOT
HETATM    1  C1  UNL     1      12.330  16.834  -7.465  1.00  0.00     0.026 A 
HETATM    2  C2  UNL     1      11.093  16.381  -7.931  1.00  0.00     0.038 A 
HETATM    3  C3  UNL     1      10.875  16.259  -9.296  1.00  0.00     0.065 A 
HETATM    4  C4  UNL     1      11.882  16.567 -10.204  1.00  0.00     0.038 A 
HETATM    5  C5  UNL     1      13.117  17.021  -9.731  1.00  0.00     0.026 A 
HETATM    6  C6  UNL     1      13.336  17.207  -8.362  1.00  0.00     0.005 A 
ENDROOT
BRANCH   6   7
HETATM    7  N1  UNL     1      14.609  17.546  -7.892  1.00  0.00    -0.303 NA
HETATM    8  H5  UNL     1      15.081  16.788  -7.408  1.00  0.00     0.124 HD
HETATM    9  H6  UNL     1      14.636  18.414  -7.368  1.00  0.00     0.124 HD
ENDBRANCH   6   7
BRANCH   3  10
HETATM   10  O1  UNL     1       9.657  15.811  -9.710  1.00  0.00    -0.361 OA
HETATM   11  H7  UNL     1       9.237  16.505 -10.244  1.00  0.00     0.217 HD
ENDBRANCH   3  10
TORSDOF 2
ENDMDL
MODEL 14
REMARK VINA RESULT:      -2.7      8.594      9.132
REMARK  2 active torsions:
REMARK  status: ('A' for Active; 'I' for Inactive)
REMARK    1  A    between atoms: C3_3  and  O1_8 
REMARK    2  A    between atoms: C6_6  and  N1_7 
ROOT
HETATM    1  C1  UNL     1       9.455  15.001 -12.106  1.00  0.00     0.026 A 
HETATM    2  C2  UNL     1       8.794  14.224 -13.059  1.00  0.00     0.038 A 
HETATM    3  C3  UNL     1       7.777  13.367 -12.663  1.00  0.00     0.065 A 
HETATM    4  C4  UNL     1       7.399  13.287 -11.327  1.00  0.00     0.038 A 
HETATM    5  C5  UNL     1       8.066  14.067 -10.378  1.00  0.00     0.026 A 
HETATM    6  C6  UNL     1       9.132  14.893 -10.750  1.00  0.00     0.005 A 
ENDROOT
BRANCH   6   7
HETATM    7  N1  UNL     1       9.714  15.757  -9.815  1.00  0.00    -0.303 NA
HETATM    8  H5  UNL     1      10.562  16.206 -10.147  1.00  0.00     0.124 HD
HETATM    9  H6  UNL     1       9.829  15.348  -8.894  1.00  0.00     0.124 HD
ENDBRANCH   6   7
BRANCH   3  10
HETATM   10  O1  UNL     1       7.154  12.627 -13.623  1.00  0.00    -0.361 OA
HETATM   11  H7  UNL     1       6.346  12.245 -13.244  1.00  0.00     0.217 HD
ENDBRANCH   3  10
TORSDOF 2
ENDMDL
MODEL 15
REMARK VINA RESULT:      -2.6     12.168     12.757
REMARK  2 active torsions:
REMARK  status: ('A' for Active; 'I' for Inactive)
REMARK    1  A    between atoms: C3_3  and  O1_8 
REMARK    2  A    between atoms: C6_6  and  N1_7 
ROOT
HETATM    1  C1  UNL     1       7.080  12.693 -13.882  1.00  0.00     0.026 A 
HETATM    2  C2  UNL     1       7.923  13.769 -14.169  1.00  0.00     0.038 A 
HETATM    3  C3  UNL     1       8.246  14.057 -15.487  1.00  0.00     0.065 A 
HETATM    4  C4  UNL     1       7.725  13.294 -16.527  1.00  0.00     0.038 A 
HETATM    5  C5  UNL     1       6.882  12.218 -16.232  1.00  0.00     0.026 A 
HETATM    6  C6  UNL     1       6.592  11.877 -14.907  1.00  0.00     0.005 A 
ENDROOT
BRANCH   6   7
HETATM    7  N1  UNL     1       5.656  10.875 -14.626  1.00  0.00    -0.303 NA
HETATM    8  H5  UNL     1       5.121  10.579 -15.436  1.00  0.00     0.124 HD
HETATM    9  H6  UNL     1       5.066  11.078 -13.826  1.00  0.00     0.124 HD
ENDBRANCH   6   7
BRANCH   3  10
HETATM   10  O1  UNL     1       9.070  15.116 -15.726  1.00  0.00    -0.361 OA
HETATM   11  H7  UNL     1       8.697  15.640 -16.453  1.00  0.00     0.217 HD
ENDBRANCH   3  10
TORSDOF 2
ENDMDL
MODEL 16
REMARK VINA RESULT:      -2.6      8.439      8.923
REMARK  2 active torsions:
REMARK  status: ('A' for Active; 'I' for Inactive)
REMARK    1  A    between atoms: C3_3  and  O1_8 
REMARK    2  A    between atoms: C6_6  and  N1_7 
ROOT
HETATM    1  C1  UNL     1       8.778  14.373 -13.080  1.00  0.00     0.026 A 
HETATM    2  C2  UNL     1       9.388  15.114 -12.065  1.00  0.00     0.038 A 
HETATM    3  C3  UNL     1       8.983  14.940 -10.749  1.00  0.00     0.065 A 
HETATM    4  C4  UNL     1       7.987  14.023 -10.430  1.00  0.00     0.038 A 
HETATM    5  C5  UNL     1       7.381  13.286 -11.452  1.00  0.00     0.026 A 
HETATM    6  C6  UNL     1       7.734  13.490 -12.790  1.00  0.00     0.005 A 
ENDROOT
BRANCH   6   7
HETATM    7  N1  UNL     1       7.208  12.666 -13.791  1.00  0.00    -0.303 NA
HETATM    8  H5  UNL     1       6.602  13.153 -14.444  1.00  0.00     0.124 HD
HETATM    9  H6  UNL     1       6.790  11.810 -13.440  1.00  0.00     0.124 HD
ENDBRANCH   6   7
BRANCH   3  10
HETATM   10  O1  UNL     1       9.604  15.679  -9.787  1.00  0.00    -0.361 OA
HETATM   11  H7  UNL     1       9.632  15.160  -8.968  1.00  0.00     0.217 HD
ENDBRANCH   3  10
TORSDOF 2
ENDMDL
MODEL 17
REMARK VINA RESULT:      -2.6      8.741      9.431
REMARK  2 active torsions:
REMARK  status: ('A' for Active; 'I' for Inactive)
REMARK    1  A    between atoms: C3_3  and  O1_8 
REMARK    2  A    between atoms: C6_6  and  N1_7 
ROOT
HETATM    1  C1  UNL     1      11.977  15.806 -12.690  1.00  0.00     0.026 A 
HETATM    2  C2  UNL     1      11.376  16.223 -11.500  1.00  0.00     0.038 A 
HETATM    3  C3  UNL     1      10.137  15.713 -11.140  1.00  0.00     0.065 A 
HETATM    4  C4  UNL     1       9.495  14.779 -11.945  1.00  0.00     0.038 A 
HETATM    5  C5  UNL     1      10.102  14.367 -13.136  1.00  0.00     0.026 A 
HETATM    6  C6  UNL     1      11.323  14.913 -13.544  1.00  0.00     0.005 A 
ENDROOT
BRANCH   6   7
HETATM    7  N1  UNL     1      11.978  14.409 -14.673  1.00  0.00    -0.303 NA
HETATM    8  H5  UNL     1      11.628  13.507 -14.979  1.00  0.00     0.124 HD
HETATM    9  H6  UNL     1      12.990  14.426 -14.603  1.00  0.00     0.124 HD
ENDBRANCH   6   7
BRANCH   3  10
HETATM   10  O1  UNL     1       9.585  16.143  -9.971  1.00  0.00    -0.361 OA
HETATM   11  H7  UNL     1       8.689  16.468 -10.152  1.00  0.00     0.217 HD
ENDBRANCH   3  10
TORSDOF 2
ENDMDL
MODEL 18
REMARK VINA RESULT:      -2.5     11.768     12.484
REMARK  2 active torsions:
REMARK  status: ('A' for Active; 'I' for Inactive)
REMARK    1  A    between atoms: C3_3  and  O1_8 
REMARK    2  A    between atoms: C6_6  and  N1_7 
ROOT
HETATM    1  C1  UNL     1      11.402  14.573 -15.078  1.00  0.00     0.026 A 
HETATM    2  C2  UNL     1      10.498  15.144 -14.180  1.00  0.00     0.038 A 
HETATM    3  C3  UNL     1       9.141  15.134 -14.469  1.00  0.00     0.065 A 
HETATM    4  C4  UNL     1       8.671  14.546 -15.639  1.00  0.00     0.038 A 
HETATM    5  C5  UNL     1       9.582  13.978 -16.534  1.00  0.00     0.026 A 
HETATM    6  C6  UNL     1      10.958  14.030 -16.288  1.00  0.00     0.005 A 
ENDROOT
BRANCH   6   7
HETATM    7  N1  UNL     1      11.851  13.356 -17.128  1.00  0.00    -0.303 NA
HETATM    8  H5  UNL     1      11.532  13.286 -18.090  1.00  0.00     0.124 HD
HETATM    9  H6  UNL     1      12.167  12.465 -16.760  1.00  0.00     0.124 HD
ENDBRANCH   6   7
BRANCH   3  10
HETATM   10  O1  UNL     1       8.291  15.698 -13.566  1.00  0.00    -0.361 OA
HETATM   11  H7  UNL     1       8.789  15.905 -12.759  1.00  0.00     0.217 HD
ENDBRANCH   3  10
TORSDOF 2
ENDMDL
MODEL 19
REMARK VINA RESULT:      -0.6     10.193     10.546
REMARK  2 active torsions:
REMARK  status: ('A' for Active; 'I' for Inactive)
REMARK    1  A    between atoms: C3_3  and  O1_8 
REMARK    2  A    between atoms: C6_6  and  N1_7 
ROOT
HETATM    1  C1  UNL     1       5.624   9.267  -8.601  1.00  0.00     0.026 A 
HETATM    2  C2  UNL     1       6.458  10.280  -9.079  1.00  0.00     0.038 A 
HETATM    3  C3  UNL     1       6.634  10.438 -10.447  1.00  0.00     0.065 A 
HETATM    4  C4  UNL     1       5.973   9.608 -11.346  1.00  0.00     0.038 A 
HETATM    5  C5  UNL     1       5.141   8.595 -10.860  1.00  0.00     0.026 A 
HETATM    6  C6  UNL     1       4.997   8.383  -9.485  1.00  0.00     0.005 A 
ENDROOT
BRANCH   6   7
HETATM    7  N1  UNL     1       4.072   7.447  -9.009  1.00  0.00    -0.303 NA
HETATM    8  H5  UNL     1       3.640   7.712  -8.129  1.00  0.00     0.124 HD
HETATM    9  H6  UNL     1       4.421   6.495  -8.996  1.00  0.00     0.124 HD
ENDBRANCH   6   7
BRANCH   3  10
HETATM   10  O1  UNL     1       7.453  11.439 -10.874  1.00  0.00    -0.361 OA
HETATM   11  H7  UNL     1       8.370  11.201 -10.660  1.00  0.00     0.217 HD
ENDBRANCH   3  10
TORSDOF 2
ENDMDL
MODEL 20
REMARK VINA RESULT:       1.4      4.416      5.213
REMARK  2 active torsions:
REMARK  status: ('A' for Active; 'I' for Inactive)
REMARK    1  A    between atoms: C3_3  and  O1_8 
REMARK    2  A    between atoms: C6_6  and  N1_7 
ROOT
HETATM    1  C1  UNL     1       9.643  16.073  -7.898  1.00  0.00     0.026 A 
HETATM    2  C2  UNL     1      10.498  15.921  -8.992  1.00  0.00     0.038 A 
HETATM    3  C3  UNL     1      11.840  16.251  -8.867  1.00  0.00     0.065 A 
HETATM    4  C4  UNL     1      12.345  16.715  -7.657  1.00  0.00     0.038 A 
HETATM    5  C5  UNL     1      11.483  16.866  -6.567  1.00  0.00     0.026 A 
HETATM    6  C6  UNL     1      10.116  16.595  -6.691  1.00  0.00     0.005 A 
ENDROOT
BRANCH   6   7
HETATM    7  N1  UNL     1       9.286  16.634  -5.565  1.00  0.00    -0.303 NA
HETATM    8  H5  UNL     1       9.545  15.970  -4.843  1.00  0.00     0.124 HD
HETATM    9  H6  UNL     1       8.296  16.599  -5.784  1.00  0.00     0.124 HD
ENDBRANCH   6   7
BRANCH   3  10
HETATM   10  O1  UNL     1      12.643  16.086  -9.956  1.00  0.00    -0.361 OA
HETATM   11  H7  UNL     1      12.264  16.584 -10.698  1.00  0.00     0.217 HD
ENDBRANCH   3  10
TORSDOF 2
ENDMDL
