MODEL 1
REMARK VINA RESULT:      -5.7      0.000      0.000
REMARK  27 active torsions:
REMARK  status: ('A' for Active; 'I' for Inactive)
REMARK    1  A    between atoms: C2_2  and  S1_4 
REMARK    2  A    between atoms: S1_4  and  C3_5 
REMARK    3  A    between atoms: C3_5  and  C4_6 
REMARK    4  A    between atoms: C4_6  and  N1_7 
REMARK       I    between atoms: N1_7  and  C5_8 
REMARK    5  A    between atoms: C5_8  and  C6_10 
REMARK    6  A    between atoms: C6_10  and  C7_11 
REMARK    7  A    between atoms: C7_11  and  N2_12 
REMARK       I    between atoms: N2_12  and  C8_13 
REMARK    8  A    between atoms: C8_13  and  C9_15 
REMARK    9  A    between atoms: C9_15  and  C10_16 
REMARK   10  A    between atoms: C9_15  and  O17_54 
REMARK   11  A    between atoms: C10_16  and  C13_19 
REMARK   12  A    between atoms: C13_19  and  O4_20 
REMARK   13  A    between atoms: O4_20  and  P1_21 
REMARK   14  A    between atoms: P1_21  and  O6_23 
REMARK   15  A    between atoms: P1_21  and  O7_24 
REMARK   16  A    between atoms: O7_24  and  P2_25 
REMARK   17  A    between atoms: P2_25  and  O9_27 
REMARK   18  A    between atoms: P2_25  and  O10_28 
REMARK   19  A    between atoms: O10_28  and  C14_29 
REMARK   20  A    between atoms: C14_29  and  C15_30 
REMARK   21  A    between atoms: C16_31  and  O13_49 
REMARK   22  A    between atoms: C17_32  and  O12_48 
REMARK   23  A    between atoms: C18_33  and  N3_35 
REMARK   24  A    between atoms: C21_40  and  N7_47 
REMARK   25  A    between atoms: O13_49  and  P3_50 
REMARK   26  A    between atoms: P3_50  and  O15_52 
REMARK   27  A    between atoms: P3_50  and  O16_53 
ROOT
HETATM    1  C1  UNL     1      10.396  11.584  -8.899  1.00  0.00     0.104 C 
HETATM    2  C2  UNL     1      11.572  11.222  -9.754  1.00  0.00     0.182 C 
HETATM    3  O1  UNL     1      11.970  10.070  -9.901  1.00  0.00    -0.286 OA
ENDROOT
BRANCH   2   4
HETATM    4  S1  UNL     1      12.369  12.596 -10.509  1.00  0.00    -0.091 SA
BRANCH   4   5
HETATM    5  C3  UNL     1      13.938  11.822 -11.016  1.00  0.00     0.102 C 
BRANCH   5   6
HETATM    6  C4  UNL     1      15.129  12.761 -10.814  1.00  0.00     0.133 C 
BRANCH   6   7
HETATM    7  N1  UNL     1      16.221  12.134 -10.098  1.00  0.00    -0.360 N 
HETATM    8  C5  UNL     1      17.016  12.842  -9.226  1.00  0.00     0.219 C 
HETATM    9  O2  UNL     1      16.903  14.051  -9.063  1.00  0.00    -0.274 OA
HETATM   10  H8  UNL     1      16.394  11.148 -10.241  1.00  0.00     0.162 HD
BRANCH   8  11
HETATM   11  C6  UNL     1      18.061  11.988  -8.542  1.00  0.00     0.122 C 
BRANCH  11  12
HETATM   12  C7  UNL     1      18.173  12.308  -7.051  1.00  0.00     0.132 C 
BRANCH  12  13
HETATM   13  N2  UNL     1      16.962  12.011  -6.315  1.00  0.00    -0.358 N 
HETATM   14  C8  UNL     1      16.281  13.020  -5.660  1.00  0.00     0.247 C 
HETATM   15  O3  UNL     1      16.724  14.159  -5.575  1.00  0.00    -0.271 OA
HETATM   16  H13 UNL     1      16.412  11.233  -6.672  1.00  0.00     0.162 HD
BRANCH  14  17
HETATM   17  C9  UNL     1      14.925  12.604  -5.071  1.00  0.00     0.219 C 
BRANCH  17  18
HETATM   18  C10 UNL     1      13.727  12.750  -6.046  1.00  0.00     0.009 C 
HETATM   19  C11 UNL     1      12.453  13.223  -5.331  1.00  0.00     0.020 C 
HETATM   20  C12 UNL     1      14.038  13.753  -7.176  1.00  0.00     0.020 C 
BRANCH  18  21
HETATM   21  C13 UNL     1      13.494  11.335  -6.650  1.00  0.00     0.192 C 
BRANCH  21  22
HETATM   22  O4  UNL     1      14.446  11.009  -7.642  1.00  0.00    -0.296 OA
BRANCH  22  23
HETATM   23  P1  UNL     1      14.996   9.520  -7.865  1.00  0.00     0.401 P 
HETATM   24  O5  UNL     1      15.700   9.316  -9.169  1.00  0.00    -0.631 OA
BRANCH  23  25
HETATM   25  O6  UNL     1      13.751   8.525  -7.636  1.00  0.00    -0.307 OA
HETATM   26  H23 UNL     1      12.920   8.910  -7.941  1.00  0.00     0.222 HD
ENDBRANCH  23  25
BRANCH  23  27
HETATM   27  O7  UNL     1      15.879   9.211  -6.578  1.00  0.00    -0.195 OA
BRANCH  27  28
HETATM   28  P2  UNL     1      16.938   8.023  -6.638  1.00  0.00     0.401 P 
HETATM   29  O8  UNL     1      18.265   8.328  -7.252  1.00  0.00    -0.631 OA
BRANCH  28  30
HETATM   30  O9  UNL     1      17.021   7.529  -5.121  1.00  0.00    -0.307 OA
HETATM   31  H24 UNL     1      16.727   8.204  -4.461  1.00  0.00     0.222 HD
ENDBRANCH  28  30
BRANCH  28  32
HETATM   32  O10 UNL     1      16.126   6.815  -7.295  1.00  0.00    -0.294 OA
BRANCH  32  33
HETATM   33  C14 UNL     1      15.504   5.859  -6.477  1.00  0.00     0.215 C 
BRANCH  33  34
HETATM   34  C15 UNL     1      14.832   4.862  -7.420  1.00  0.00     0.180 C 
HETATM   35  C16 UNL     1      14.786   5.437  -8.830  1.00  0.00     0.197 C 
HETATM   36  C17 UNL     1      13.308   5.551  -9.151  1.00  0.00     0.199 C 
HETATM   37  C18 UNL     1      12.697   4.482  -8.241  1.00  0.00     0.262 C 
HETATM   38  O11 UNL     1      13.490   4.545  -7.035  1.00  0.00    -0.353 OA
BRANCH  35  39
HETATM   39  O13 UNL     1      15.456   4.529  -9.699  1.00  0.00    -0.286 OA
BRANCH  39  40
HETATM   40  P3  UNL     1      16.418   5.198 -10.787  1.00  0.00     0.391 P 
HETATM   41  O14 UNL     1      17.708   4.468 -10.980  1.00  0.00    -0.632 OA
BRANCH  40  42
HETATM   42  O15 UNL     1      16.490   6.699 -10.239  1.00  0.00    -0.307 OA
HETATM   43  H36 UNL     1      15.664   7.191 -10.460  1.00  0.00     0.222 HD
ENDBRANCH  40  42
BRANCH  40  44
HETATM   44  O16 UNL     1      15.444   5.316 -12.038  1.00  0.00    -0.307 OA
HETATM   45  H37 UNL     1      14.583   4.893 -11.887  1.00  0.00     0.222 HD
ENDBRANCH  40  44
ENDBRANCH  39  40
ENDBRANCH  35  39
BRANCH  36  46
HETATM   46  O12 UNL     1      13.094   5.416 -10.558  1.00  0.00    -0.388 OA
HETATM   47  H35 UNL     1      12.184   5.755 -10.735  1.00  0.00     0.210 HD
ENDBRANCH  36  46
BRANCH  37  48
HETATM   48  N3  UNL     1      11.315   4.761  -7.906  1.00  0.00    -0.297 N 
HETATM   49  C19 UNL     1      10.392   5.431  -8.674  1.00  0.00     0.188 A 
HETATM   50  N4  UNL     1       9.189   5.408  -8.143  1.00  0.00    -0.346 N 
HETATM   51  C20 UNL     1       9.339   4.682  -6.974  1.00  0.00     0.116 A 
HETATM   52  H4  UNL     1       8.337   5.830  -8.510  1.00  0.00     0.167 HD
HETATM   53  C21 UNL     1       8.428   4.269  -5.986  1.00  0.00     0.109 A 
HETATM   54  C23 UNL     1      10.659   4.309  -6.795  1.00  0.00     0.142 A 
HETATM   55  N5  UNL     1       8.895   3.561  -4.929  1.00  0.00    -0.341 N 
HETATM   56  C22 UNL     1      10.214   3.290  -4.874  1.00  0.00     0.183 A 
HETATM   57  H5  UNL     1       8.264   3.241  -4.194  1.00  0.00     0.167 HD
HETATM   58  N6  UNL     1      11.175   3.623  -5.761  1.00  0.00    -0.336 N 
HETATM   59  H6  UNL     1      12.162   3.386  -5.660  1.00  0.00     0.168 HD
BRANCH  53  60
HETATM   60  N7  UNL     1       7.074   4.558  -6.029  1.00  0.00    -0.287 NA
HETATM   61  H33 UNL     1       6.740   5.122  -5.250  1.00  0.00     0.125 HD
HETATM   62  H34 UNL     1       6.508   3.761  -6.289  1.00  0.00     0.125 HD
ENDBRANCH  53  60
ENDBRANCH  37  48
ENDBRANCH  33  34
ENDBRANCH  32  33
ENDBRANCH  28  32
ENDBRANCH  27  28
ENDBRANCH  23  27
ENDBRANCH  22  23
ENDBRANCH  21  22
ENDBRANCH  18  21
ENDBRANCH  17  18
BRANCH  17  63
HETATM   63  O17 UNL     1      14.979  11.247  -4.618  1.00  0.00    -0.385 OA
HETATM   64  H38 UNL     1      14.305  11.131  -3.928  1.00  0.00     0.210 HD
ENDBRANCH  17  63
ENDBRANCH  14  17
ENDBRANCH  12  13
ENDBRANCH  11  12
ENDBRANCH   8  11
ENDBRANCH   6   7
ENDBRANCH   5   6
ENDBRANCH   4   5
ENDBRANCH   2   4
TORSDOF 27
ENDMDL
MODEL 2
REMARK VINA RESULT:      -5.7      4.285      7.487
REMARK  27 active torsions:
REMARK  status: ('A' for Active; 'I' for Inactive)
REMARK    1  A    between atoms: C2_2  and  S1_4 
REMARK    2  A    between atoms: S1_4  and  C3_5 
REMARK    3  A    between atoms: C3_5  and  C4_6 
REMARK    4  A    between atoms: C4_6  and  N1_7 
REMARK       I    between atoms: N1_7  and  C5_8 
REMARK    5  A    between atoms: C5_8  and  C6_10 
REMARK    6  A    between atoms: C6_10  and  C7_11 
REMARK    7  A    between atoms: C7_11  and  N2_12 
REMARK       I    between atoms: N2_12  and  C8_13 
REMARK    8  A    between atoms: C8_13  and  C9_15 
REMARK    9  A    between atoms: C9_15  and  C10_16 
REMARK   10  A    between atoms: C9_15  and  O17_54 
REMARK   11  A    between atoms: C10_16  and  C13_19 
REMARK   12  A    between atoms: C13_19  and  O4_20 
REMARK   13  A    between atoms: O4_20  and  P1_21 
REMARK   14  A    between atoms: P1_21  and  O6_23 
REMARK   15  A    between atoms: P1_21  and  O7_24 
REMARK   16  A    between atoms: O7_24  and  P2_25 
REMARK   17  A    between atoms: P2_25  and  O9_27 
REMARK   18  A    between atoms: P2_25  and  O10_28 
REMARK   19  A    between atoms: O10_28  and  C14_29 
REMARK   20  A    between atoms: C14_29  and  C15_30 
REMARK   21  A    between atoms: C16_31  and  O13_49 
REMARK   22  A    between atoms: C17_32  and  O12_48 
REMARK   23  A    between atoms: C18_33  and  N3_35 
REMARK   24  A    between atoms: C21_40  and  N7_47 
REMARK   25  A    between atoms: O13_49  and  P3_50 
REMARK   26  A    between atoms: P3_50  and  O15_52 
REMARK   27  A    between atoms: P3_50  and  O16_53 
ROOT
HETATM    1  C1  UNL     1      11.633   4.695  -6.907  1.00  0.00     0.104 C 
HETATM    2  C2  UNL     1      10.486   4.121  -6.133  1.00  0.00     0.182 C 
HETATM    3  O1  UNL     1      10.625   3.507  -5.078  1.00  0.00    -0.286 OA
ENDROOT
BRANCH   2   4
HETATM    4  S1  UNL     1       8.913   4.363  -6.880  1.00  0.00    -0.091 SA
BRANCH   4   5
HETATM    5  C3  UNL     1       8.618   6.110  -6.457  1.00  0.00     0.102 C 
BRANCH   5   6
HETATM    6  C4  UNL     1       8.802   7.029  -7.666  1.00  0.00     0.133 C 
BRANCH   6   7
HETATM    7  N1  UNL     1       7.860   8.129  -7.681  1.00  0.00    -0.360 N 
HETATM    8  C5  UNL     1       8.238   9.400  -8.049  1.00  0.00     0.219 C 
HETATM    9  O2  UNL     1       9.399   9.695  -8.307  1.00  0.00    -0.274 OA
HETATM   10  H8  UNL     1       6.900   7.951  -7.420  1.00  0.00     0.162 HD
BRANCH   8  11
HETATM   11  C6  UNL     1       7.092  10.389  -8.050  1.00  0.00     0.122 C 
BRANCH  11  12
HETATM   12  C7  UNL     1       7.155  11.334  -9.249  1.00  0.00     0.132 C 
BRANCH  12  13
HETATM   13  N2  UNL     1       8.508  11.694  -9.618  1.00  0.00    -0.358 N 
HETATM   14  C8  UNL     1       8.978  12.972  -9.378  1.00  0.00     0.247 C 
HETATM   15  O3  UNL     1       8.252  13.867  -8.964  1.00  0.00    -0.271 OA
HETATM   16  H13 UNL     1       9.186  10.936  -9.591  1.00  0.00     0.162 HD
BRANCH  14  17
HETATM   17  C9  UNL     1      10.477  13.169  -9.652  1.00  0.00     0.219 C 
BRANCH  17  18
HETATM   18  C10 UNL     1      11.345  13.346  -8.378  1.00  0.00     0.009 C 
HETATM   19  C11 UNL     1      10.952  14.598  -7.580  1.00  0.00     0.020 C 
HETATM   20  C12 UNL     1      11.226  12.128  -7.440  1.00  0.00     0.020 C 
BRANCH  18  21
HETATM   21  C13 UNL     1      12.812  13.483  -8.877  1.00  0.00     0.192 C 
BRANCH  21  22
HETATM   22  O4  UNL     1      13.515  12.258  -8.823  1.00  0.00    -0.296 OA
BRANCH  22  23
HETATM   23  P1  UNL     1      14.534  11.788  -9.969  1.00  0.00     0.401 P 
HETATM   24  O5  UNL     1      15.836  12.525  -9.971  1.00  0.00    -0.631 OA
BRANCH  23  25
HETATM   25  O6  UNL     1      13.736  11.876 -11.365  1.00  0.00    -0.307 OA
HETATM   26  H23 UNL     1      12.881  11.430 -11.321  1.00  0.00     0.222 HD
ENDBRANCH  23  25
BRANCH  23  27
HETATM   27  O7  UNL     1      14.661  10.213  -9.785  1.00  0.00    -0.195 OA
BRANCH  27  28
HETATM   28  P2  UNL     1      13.516   9.274 -10.371  1.00  0.00     0.401 P 
HETATM   29  O8  UNL     1      12.106   9.630 -10.027  1.00  0.00    -0.631 OA
BRANCH  28  30
HETATM   30  O9  UNL     1      13.820   9.260 -11.938  1.00  0.00    -0.307 OA
HETATM   31  H24 UNL     1      13.955  10.157 -12.331  1.00  0.00     0.222 HD
ENDBRANCH  28  30
BRANCH  28  32
HETATM   32  O10 UNL     1      13.981   7.800  -9.968  1.00  0.00    -0.294 OA
BRANCH  32  33
HETATM   33  C14 UNL     1      13.202   6.693 -10.337  1.00  0.00     0.215 C 
BRANCH  33  34
HETATM   34  C15 UNL     1      14.000   5.455  -9.928  1.00  0.00     0.180 C 
HETATM   35  C16 UNL     1      15.376   5.871  -9.428  1.00  0.00     0.197 C 
HETATM   36  C17 UNL     1      16.349   5.224 -10.396  1.00  0.00     0.199 C 
HETATM   37  C18 UNL     1      15.541   4.032 -10.916  1.00  0.00     0.262 C 
HETATM   38  O11 UNL     1      14.188   4.531 -11.006  1.00  0.00    -0.353 OA
BRANCH  35  39
HETATM   39  O13 UNL     1      15.531   5.378  -8.101  1.00  0.00    -0.286 OA
BRANCH  39  40
HETATM   40  P3  UNL     1      15.755   6.491  -6.975  1.00  0.00     0.391 P 
HETATM   41  O14 UNL     1      15.979   5.928  -5.609  1.00  0.00    -0.632 OA
BRANCH  40  42
HETATM   42  O15 UNL     1      14.462   7.406  -7.196  1.00  0.00    -0.307 OA
HETATM   43  H36 UNL     1      13.832   6.974  -7.822  1.00  0.00     0.222 HD
ENDBRANCH  40  42
BRANCH  40  44
HETATM   44  O16 UNL     1      16.925   7.357  -7.615  1.00  0.00    -0.307 OA
HETATM   45  H37 UNL     1      17.748   6.855  -7.727  1.00  0.00     0.222 HD
ENDBRANCH  40  44
ENDBRANCH  39  40
ENDBRANCH  35  39
BRANCH  36  46
HETATM   46  O12 UNL     1      17.587   4.941  -9.739  1.00  0.00    -0.388 OA
HETATM   47  H35 UNL     1      17.462   5.185  -8.791  1.00  0.00     0.210 HD
ENDBRANCH  36  46
BRANCH  37  48
HETATM   48  N3  UNL     1      15.968   3.603 -12.233  1.00  0.00    -0.297 N 
HETATM   49  C19 UNL     1      15.667   4.194 -13.438  1.00  0.00     0.188 A 
HETATM   50  N4  UNL     1      16.312   3.639 -14.441  1.00  0.00    -0.346 N 
HETATM   51  C20 UNL     1      17.072   2.641 -13.856  1.00  0.00     0.116 A 
HETATM   52  H4  UNL     1      16.263   3.887 -15.428  1.00  0.00     0.167 HD
HETATM   53  C21 UNL     1      18.002   1.724 -14.376  1.00  0.00     0.109 A 
HETATM   54  C23 UNL     1      16.839   2.582 -12.495  1.00  0.00     0.142 A 
HETATM   55  N5  UNL     1      18.587   0.842 -13.529  1.00  0.00    -0.341 N 
HETATM   56  C22 UNL     1      18.244   0.886 -12.226  1.00  0.00     0.183 A 
HETATM   57  H5  UNL     1      19.269   0.164 -13.868  1.00  0.00     0.167 HD
HETATM   58  N6  UNL     1      17.379   1.720 -11.615  1.00  0.00    -0.336 N 
HETATM   59  H6  UNL     1      17.162   1.701 -10.618  1.00  0.00     0.168 HD
BRANCH  53  60
HETATM   60  N7  UNL     1      18.347   1.665 -15.717  1.00  0.00    -0.287 NA
HETATM   61  H33 UNL     1      19.341   1.528 -15.888  1.00  0.00     0.125 HD
HETATM   62  H34 UNL     1      17.881   2.367 -16.275  1.00  0.00     0.125 HD
ENDBRANCH  53  60
ENDBRANCH  37  48
ENDBRANCH  33  34
ENDBRANCH  32  33
ENDBRANCH  28  32
ENDBRANCH  27  28
ENDBRANCH  23  27
ENDBRANCH  22  23
ENDBRANCH  21  22
ENDBRANCH  18  21
ENDBRANCH  17  18
BRANCH  17  63
HETATM   63  O17 UNL     1      10.990  12.063 -10.401  1.00  0.00    -0.385 OA
HETATM   64  H38 UNL     1      10.238  11.522 -10.696  1.00  0.00     0.210 HD
ENDBRANCH  17  63
ENDBRANCH  14  17
ENDBRANCH  12  13
ENDBRANCH  11  12
ENDBRANCH   8  11
ENDBRANCH   6   7
ENDBRANCH   5   6
ENDBRANCH   4   5
ENDBRANCH   2   4
TORSDOF 27
ENDMDL
MODEL 3
REMARK VINA RESULT:      -5.6      2.917      4.497
REMARK  27 active torsions:
REMARK  status: ('A' for Active; 'I' for Inactive)
REMARK    1  A    between atoms: C2_2  and  S1_4 
REMARK    2  A    between atoms: S1_4  and  C3_5 
REMARK    3  A    between atoms: C3_5  and  C4_6 
REMARK    4  A    between atoms: C4_6  and  N1_7 
REMARK       I    between atoms: N1_7  and  C5_8 
REMARK    5  A    between atoms: C5_8  and  C6_10 
REMARK    6  A    between atoms: C6_10  and  C7_11 
REMARK    7  A    between atoms: C7_11  and  N2_12 
REMARK       I    between atoms: N2_12  and  C8_13 
REMARK    8  A    between atoms: C8_13  and  C9_15 
REMARK    9  A    between atoms: C9_15  and  C10_16 
REMARK   10  A    between atoms: C9_15  and  O17_54 
REMARK   11  A    between atoms: C10_16  and  C13_19 
REMARK   12  A    between atoms: C13_19  and  O4_20 
REMARK   13  A    between atoms: O4_20  and  P1_21 
REMARK   14  A    between atoms: P1_21  and  O6_23 
REMARK   15  A    between atoms: P1_21  and  O7_24 
REMARK   16  A    between atoms: O7_24  and  P2_25 
REMARK   17  A    between atoms: P2_25  and  O9_27 
REMARK   18  A    between atoms: P2_25  and  O10_28 
REMARK   19  A    between atoms: O10_28  and  C14_29 
REMARK   20  A    between atoms: C14_29  and  C15_30 
REMARK   21  A    between atoms: C16_31  and  O13_49 
REMARK   22  A    between atoms: C17_32  and  O12_48 
REMARK   23  A    between atoms: C18_33  and  N3_35 
REMARK   24  A    between atoms: C21_40  and  N7_47 
REMARK   25  A    between atoms: O13_49  and  P3_50 
REMARK   26  A    between atoms: P3_50  and  O15_52 
REMARK   27  A    between atoms: P3_50  and  O16_53 
ROOT
HETATM    1  C1  UNL     1       4.452   8.707  -8.789  1.00  0.00     0.104 C 
HETATM    2  C2  UNL     1       5.462   9.734  -8.379  1.00  0.00     0.182 C 
HETATM    3  O1  UNL     1       5.441  10.304  -7.291  1.00  0.00    -0.286 OA
ENDROOT
BRANCH   2   4
HETATM    4  S1  UNL     1       6.671  10.093  -9.605  1.00  0.00    -0.091 SA
BRANCH   4   5
HETATM    5  C3  UNL     1       7.412  11.599  -8.898  1.00  0.00     0.102 C 
BRANCH   5   6
HETATM    6  C4  UNL     1       7.415  12.757  -9.898  1.00  0.00     0.133 C 
BRANCH   6   7
HETATM    7  N1  UNL     1       8.666  12.869 -10.620  1.00  0.00    -0.360 N 
HETATM    8  C5  UNL     1       9.451  13.996 -10.536  1.00  0.00     0.219 C 
HETATM    9  O2  UNL     1       9.107  14.996  -9.918  1.00  0.00    -0.274 OA
HETATM   10  H8  UNL     1       8.969  12.093 -11.192  1.00  0.00     0.162 HD
BRANCH   8  11
HETATM   11  C6  UNL     1      10.741  13.887 -11.321  1.00  0.00     0.122 C 
BRANCH  11  12
HETATM   12  C7  UNL     1      11.806  13.095 -10.562  1.00  0.00     0.132 C 
BRANCH  12  13
HETATM   13  N2  UNL     1      11.795  13.351  -9.137  1.00  0.00    -0.358 N 
HETATM   14  C8  UNL     1      11.380  12.368  -8.257  1.00  0.00     0.247 C 
HETATM   15  O3  UNL     1      10.903  11.308  -8.641  1.00  0.00    -0.271 OA
HETATM   16  H13 UNL     1      12.497  14.008  -8.805  1.00  0.00     0.162 HD
BRANCH  14  17
HETATM   17  C9  UNL     1      11.586  12.706  -6.772  1.00  0.00     0.219 C 
BRANCH  17  18
HETATM   18  C10 UNL     1      13.052  12.582  -6.282  1.00  0.00     0.009 C 
HETATM   19  C11 UNL     1      13.935  13.725  -6.803  1.00  0.00     0.020 C 
HETATM   20  C12 UNL     1      13.135  12.582  -4.742  1.00  0.00     0.020 C 
BRANCH  18  21
HETATM   21  C13 UNL     1      13.574  11.225  -6.835  1.00  0.00     0.192 C 
BRANCH  21  22
HETATM   22  O4  UNL     1      14.749  11.374  -7.605  1.00  0.00    -0.296 OA
BRANCH  22  23
HETATM   23  P1  UNL     1      16.124  10.628  -7.250  1.00  0.00     0.401 P 
HETATM   24  O5  UNL     1      16.903  11.275  -6.148  1.00  0.00    -0.631 OA
BRANCH  23  25
HETATM   25  O6  UNL     1      16.944  10.482  -8.627  1.00  0.00    -0.307 OA
HETATM   26  H23 UNL     1      17.536  11.230  -8.777  1.00  0.00     0.222 HD
ENDBRANCH  23  25
BRANCH  23  27
HETATM   27  O7  UNL     1      15.711   9.116  -6.973  1.00  0.00    -0.195 OA
BRANCH  27  28
HETATM   28  P2  UNL     1      16.736   7.957  -7.354  1.00  0.00     0.401 P 
HETATM   29  O8  UNL     1      18.183   8.220  -7.093  1.00  0.00    -0.631 OA
BRANCH  28  30
HETATM   30  O9  UNL     1      16.155   6.686  -6.581  1.00  0.00    -0.307 OA
HETATM   31  H24 UNL     1      16.169   5.851  -7.110  1.00  0.00     0.222 HD
ENDBRANCH  28  30
BRANCH  28  32
HETATM   32  O10 UNL     1      16.355   7.585  -8.860  1.00  0.00    -0.294 OA
BRANCH  32  33
HETATM   33  C14 UNL     1      16.067   6.255  -9.202  1.00  0.00     0.215 C 
BRANCH  33  34
HETATM   34  C15 UNL     1      14.666   6.265  -9.812  1.00  0.00     0.180 C 
HETATM   35  C16 UNL     1      14.020   7.627  -9.595  1.00  0.00     0.197 C 
HETATM   36  C17 UNL     1      12.801   7.342  -8.737  1.00  0.00     0.199 C 
HETATM   37  C18 UNL     1      12.499   5.882  -9.082  1.00  0.00     0.262 C 
HETATM   38  O11 UNL     1      13.801   5.276  -9.242  1.00  0.00    -0.353 OA
BRANCH  35  39
HETATM   39  O13 UNL     1      13.668   8.157 -10.869  1.00  0.00    -0.286 OA
BRANCH  39  40
HETATM   40  P3  UNL     1      14.232   9.618 -11.187  1.00  0.00     0.391 P 
HETATM   41  O14 UNL     1      15.724   9.707 -11.161  1.00  0.00    -0.632 OA
BRANCH  40  42
HETATM   42  O15 UNL     1      13.419  10.492 -10.122  1.00  0.00    -0.307 OA
HETATM   43  H36 UNL     1      13.374  11.436 -10.406  1.00  0.00     0.222 HD
ENDBRANCH  40  42
BRANCH  40  44
HETATM   44  O16 UNL     1      13.499   9.947 -12.559  1.00  0.00    -0.307 OA
HETATM   45  H37 UNL     1      13.568  10.882 -12.809  1.00  0.00     0.222 HD
ENDBRANCH  40  44
ENDBRANCH  39  40
ENDBRANCH  35  39
BRANCH  36  46
HETATM   46  O12 UNL     1      11.776   8.304  -8.998  1.00  0.00    -0.388 OA
HETATM   47  H35 UNL     1      12.213   9.060  -9.458  1.00  0.00     0.210 HD
ENDBRANCH  36  46
BRANCH  37  48
HETATM   48  N3  UNL     1      11.793   5.194  -8.019  1.00  0.00    -0.297 N 
HETATM   49  C19 UNL     1      12.268   4.172  -7.231  1.00  0.00     0.188 A 
HETATM   50  N4  UNL     1      11.428   3.849  -6.272  1.00  0.00    -0.346 N 
HETATM   51  C20 UNL     1      10.357   4.708  -6.443  1.00  0.00     0.116 A 
HETATM   52  H4  UNL     1      11.541   3.127  -5.561  1.00  0.00     0.167 HD
HETATM   53  C21 UNL     1       9.164   4.899  -5.725  1.00  0.00     0.109 A 
HETATM   54  C23 UNL     1      10.553   5.520  -7.546  1.00  0.00     0.142 A 
HETATM   55  N5  UNL     1       8.287   5.836  -6.160  1.00  0.00    -0.341 N 
HETATM   56  C22 UNL     1       8.600   6.539  -7.266  1.00  0.00     0.183 A 
HETATM   57  H5  UNL     1       7.412   6.005  -5.662  1.00  0.00     0.167 HD
HETATM   58  N6  UNL     1       9.710   6.451  -8.028  1.00  0.00    -0.336 N 
HETATM   59  H6  UNL     1       9.888   7.016  -8.859  1.00  0.00     0.168 HD
BRANCH  53  60
HETATM   60  N7  UNL     1       8.830   4.169  -4.595  1.00  0.00    -0.287 NA
HETATM   61  H33 UNL     1       9.256   3.246  -4.552  1.00  0.00     0.125 HD
HETATM   62  H34 UNL     1       7.848   4.229  -4.363  1.00  0.00     0.125 HD
ENDBRANCH  53  60
ENDBRANCH  37  48
ENDBRANCH  33  34
ENDBRANCH  32  33
ENDBRANCH  28  32
ENDBRANCH  27  28
ENDBRANCH  23  27
ENDBRANCH  22  23
ENDBRANCH  21  22
ENDBRANCH  18  21
ENDBRANCH  17  18
BRANCH  17  63
HETATM   63  O17 UNL     1      11.127  14.035  -6.501  1.00  0.00    -0.385 OA
HETATM   64  H38 UNL     1      10.160  14.005  -6.399  1.00  0.00     0.210 HD
ENDBRANCH  17  63
ENDBRANCH  14  17
ENDBRANCH  12  13
ENDBRANCH  11  12
ENDBRANCH   8  11
ENDBRANCH   6   7
ENDBRANCH   5   6
ENDBRANCH   4   5
ENDBRANCH   2   4
TORSDOF 27
ENDMDL
MODEL 4
REMARK VINA RESULT:      -5.5      4.297      6.965
REMARK  27 active torsions:
REMARK  status: ('A' for Active; 'I' for Inactive)
REMARK    1  A    between atoms: C2_2  and  S1_4 
REMARK    2  A    between atoms: S1_4  and  C3_5 
REMARK    3  A    between atoms: C3_5  and  C4_6 
REMARK    4  A    between atoms: C4_6  and  N1_7 
REMARK       I    between atoms: N1_7  and  C5_8 
REMARK    5  A    between atoms: C5_8  and  C6_10 
REMARK    6  A    between atoms: C6_10  and  C7_11 
REMARK    7  A    between atoms: C7_11  and  N2_12 
REMARK       I    between atoms: N2_12  and  C8_13 
REMARK    8  A    between atoms: C8_13  and  C9_15 
REMARK    9  A    between atoms: C9_15  and  C10_16 
REMARK   10  A    between atoms: C9_15  and  O17_54 
REMARK   11  A    between atoms: C10_16  and  C13_19 
REMARK   12  A    between atoms: C13_19  and  O4_20 
REMARK   13  A    between atoms: O4_20  and  P1_21 
REMARK   14  A    between atoms: P1_21  and  O6_23 
REMARK   15  A    between atoms: P1_21  and  O7_24 
REMARK   16  A    between atoms: O7_24  and  P2_25 
REMARK   17  A    between atoms: P2_25  and  O9_27 
REMARK   18  A    between atoms: P2_25  and  O10_28 
REMARK   19  A    between atoms: O10_28  and  C14_29 
REMARK   20  A    between atoms: C14_29  and  C15_30 
REMARK   21  A    between atoms: C16_31  and  O13_49 
REMARK   22  A    between atoms: C17_32  and  O12_48 
REMARK   23  A    between atoms: C18_33  and  N3_35 
REMARK   24  A    between atoms: C21_40  and  N7_47 
REMARK   25  A    between atoms: O13_49  and  P3_50 
REMARK   26  A    between atoms: P3_50  and  O15_52 
REMARK   27  A    between atoms: P3_50  and  O16_53 
ROOT
HETATM    1  C1  UNL     1       8.600   5.505  -6.043  1.00  0.00     0.104 C 
HETATM    2  C2  UNL     1       8.697   4.294  -6.920  1.00  0.00     0.182 C 
HETATM    3  O1  UNL     1       7.810   3.447  -7.000  1.00  0.00    -0.286 OA
ENDROOT
BRANCH   2   4
HETATM    4  S1  UNL     1      10.211   4.157  -7.803  1.00  0.00    -0.091 SA
BRANCH   4   5
HETATM    5  C3  UNL     1      10.833   5.863  -7.647  1.00  0.00     0.102 C 
BRANCH   5   6
HETATM    6  C4  UNL     1      12.165   6.053  -8.375  1.00  0.00     0.133 C 
BRANCH   6   7
HETATM    7  N1  UNL     1      13.267   6.300  -7.468  1.00  0.00    -0.360 N 
HETATM    8  C5  UNL     1      14.048   5.277  -6.982  1.00  0.00     0.219 C 
HETATM    9  O2  UNL     1      13.812   4.098  -7.217  1.00  0.00    -0.274 OA
HETATM   10  H8  UNL     1      13.468   7.253  -7.195  1.00  0.00     0.162 HD
BRANCH   8  11
HETATM   11  C6  UNL     1      15.178   5.755  -6.096  1.00  0.00     0.122 C 
BRANCH  11  12
HETATM   12  C7  UNL     1      16.006   6.850  -6.769  1.00  0.00     0.132 C 
BRANCH  12  13
HETATM   13  N2  UNL     1      16.010   8.094  -6.028  1.00  0.00    -0.358 N 
HETATM   14  C8  UNL     1      17.185   8.806  -5.868  1.00  0.00     0.247 C 
HETATM   15  O3  UNL     1      18.268   8.367  -6.233  1.00  0.00    -0.271 OA
HETATM   16  H13 UNL     1      15.144   8.627  -6.062  1.00  0.00     0.162 HD
BRANCH  14  17
HETATM   17  C9  UNL     1      17.017  10.188  -5.219  1.00  0.00     0.219 C 
BRANCH  17  18
HETATM   18  C10 UNL     1      17.373  11.381  -6.146  1.00  0.00     0.009 C 
HETATM   19  C11 UNL     1      16.929  12.726  -5.552  1.00  0.00     0.020 C 
HETATM   20  C12 UNL     1      18.890  11.456  -6.412  1.00  0.00     0.020 C 
BRANCH  18  21
HETATM   21  C13 UNL     1      16.617  11.124  -7.481  1.00  0.00     0.192 C 
BRANCH  21  22
HETATM   22  O4  UNL     1      15.282  11.586  -7.441  1.00  0.00    -0.296 OA
BRANCH  22  23
HETATM   23  P1  UNL     1      14.071  10.811  -8.151  1.00  0.00     0.401 P 
HETATM   24  O5  UNL     1      12.821  11.622  -8.288  1.00  0.00    -0.631 OA
BRANCH  23  25
HETATM   25  O6  UNL     1      13.866   9.432  -7.346  1.00  0.00    -0.307 OA
HETATM   26  H23 UNL     1      13.637   9.584  -6.420  1.00  0.00     0.222 HD
ENDBRANCH  23  25
BRANCH  23  27
HETATM   27  O7  UNL     1      14.672  10.280  -9.525  1.00  0.00    -0.195 OA
BRANCH  27  28
HETATM   28  P2  UNL     1      13.948   9.070 -10.266  1.00  0.00     0.401 P 
HETATM   29  O8  UNL     1      12.457   9.022 -10.186  1.00  0.00    -0.631 OA
BRANCH  28  30
HETATM   30  O9  UNL     1      14.517   9.158 -11.755  1.00  0.00    -0.307 OA
HETATM   31  H24 UNL     1      15.443   8.826 -11.854  1.00  0.00     0.222 HD
ENDBRANCH  28  30
BRANCH  28  32
HETATM   32  O10 UNL     1      14.717   7.775  -9.734  1.00  0.00    -0.294 OA
BRANCH  32  33
HETATM   33  C14 UNL     1      14.969   6.702 -10.603  1.00  0.00     0.215 C 
BRANCH  33  34
HETATM   34  C15 UNL     1      16.254   6.043 -10.105  1.00  0.00     0.180 C 
HETATM   35  C16 UNL     1      17.449   6.607 -10.862  1.00  0.00     0.197 C 
HETATM   36  C17 UNL     1      18.039   5.415 -11.591  1.00  0.00     0.199 C 
HETATM   37  C18 UNL     1      17.582   4.243 -10.719  1.00  0.00     0.262 C 
HETATM   38  O11 UNL     1      16.258   4.622 -10.280  1.00  0.00    -0.353 OA
BRANCH  35  39
HETATM   39  O13 UNL     1      18.355   7.157  -9.911  1.00  0.00    -0.286 OA
BRANCH  39  40
HETATM   40  P3  UNL     1      18.747   8.689 -10.139  1.00  0.00     0.391 P 
HETATM   41  O14 UNL     1      17.630   9.524 -10.678  1.00  0.00    -0.632 OA
BRANCH  40  42
HETATM   42  O15 UNL     1      20.057   8.532 -11.045  1.00  0.00    -0.307 OA
HETATM   43  H36 UNL     1      19.829   8.143 -11.923  1.00  0.00     0.222 HD
ENDBRANCH  40  42
BRANCH  40  44
HETATM   44  O16 UNL     1      19.337   9.079  -8.715  1.00  0.00    -0.307 OA
HETATM   45  H37 UNL     1      18.787   9.725  -8.244  1.00  0.00     0.222 HD
ENDBRANCH  40  44
ENDBRANCH  39  40
ENDBRANCH  35  39
BRANCH  36  46
HETATM   46  O12 UNL     1      19.447   5.590 -11.770  1.00  0.00    -0.388 OA
HETATM   47  H35 UNL     1      19.586   6.547 -11.965  1.00  0.00     0.210 HD
ENDBRANCH  36  46
BRANCH  37  48
HETATM   48  N3  UNL     1      17.490   3.001 -11.458  1.00  0.00    -0.297 N 
HETATM   49  C19 UNL     1      16.715   2.747 -12.565  1.00  0.00     0.188 A 
HETATM   50  N4  UNL     1      16.952   1.561 -13.080  1.00  0.00    -0.346 N 
HETATM   51  C20 UNL     1      17.934   1.019 -12.269  1.00  0.00     0.116 A 
HETATM   52  H4  UNL     1      16.511   1.134 -13.895  1.00  0.00     0.167 HD
HETATM   53  C21 UNL     1      18.641  -0.195 -12.310  1.00  0.00     0.109 A 
HETATM   54  C23 UNL     1      18.249   1.885 -11.237  1.00  0.00     0.142 A 
HETATM   55  N5  UNL     1      19.557  -0.446 -11.343  1.00  0.00    -0.341 N 
HETATM   56  C22 UNL     1      19.742   0.483 -10.383  1.00  0.00     0.183 A 
HETATM   57  H5  UNL     1      20.092  -1.314 -11.341  1.00  0.00     0.167 HD
HETATM   58  N6  UNL     1      19.134   1.679 -10.247  1.00  0.00    -0.336 N 
HETATM   59  H6  UNL     1      19.321   2.340  -9.492  1.00  0.00     0.168 HD
BRANCH  53  60
HETATM   60  N7  UNL     1      18.444  -1.159 -13.286  1.00  0.00    -0.287 NA
HETATM   61  H33 UNL     1      17.468  -1.389 -13.456  1.00  0.00     0.125 HD
HETATM   62  H34 UNL     1      19.088  -1.935 -13.209  1.00  0.00     0.125 HD
ENDBRANCH  53  60
ENDBRANCH  37  48
ENDBRANCH  33  34
ENDBRANCH  32  33
ENDBRANCH  28  32
ENDBRANCH  27  28
ENDBRANCH  23  27
ENDBRANCH  22  23
ENDBRANCH  21  22
ENDBRANCH  18  21
ENDBRANCH  17  18
BRANCH  17  63
HETATM   63  O17 UNL     1      15.672  10.356  -4.758  1.00  0.00    -0.385 OA
HETATM   64  H38 UNL     1      15.280  11.106  -5.237  1.00  0.00     0.210 HD
ENDBRANCH  17  63
ENDBRANCH  14  17
ENDBRANCH  12  13
ENDBRANCH  11  12
ENDBRANCH   8  11
ENDBRANCH   6   7
ENDBRANCH   5   6
ENDBRANCH   4   5
ENDBRANCH   2   4
TORSDOF 27
ENDMDL
MODEL 5
REMARK VINA RESULT:      -5.3      4.545      9.102
REMARK  27 active torsions:
REMARK  status: ('A' for Active; 'I' for Inactive)
REMARK    1  A    between atoms: C2_2  and  S1_4 
REMARK    2  A    between atoms: S1_4  and  C3_5 
REMARK    3  A    between atoms: C3_5  and  C4_6 
REMARK    4  A    between atoms: C4_6  and  N1_7 
REMARK       I    between atoms: N1_7  and  C5_8 
REMARK    5  A    between atoms: C5_8  and  C6_10 
REMARK    6  A    between atoms: C6_10  and  C7_11 
REMARK    7  A    between atoms: C7_11  and  N2_12 
REMARK       I    between atoms: N2_12  and  C8_13 
REMARK    8  A    between atoms: C8_13  and  C9_15 
REMARK    9  A    between atoms: C9_15  and  C10_16 
REMARK   10  A    between atoms: C9_15  and  O17_54 
REMARK   11  A    between atoms: C10_16  and  C13_19 
REMARK   12  A    between atoms: C13_19  and  O4_20 
REMARK   13  A    between atoms: O4_20  and  P1_21 
REMARK   14  A    between atoms: P1_21  and  O6_23 
REMARK   15  A    between atoms: P1_21  and  O7_24 
REMARK   16  A    between atoms: O7_24  and  P2_25 
REMARK   17  A    between atoms: P2_25  and  O9_27 
REMARK   18  A    between atoms: P2_25  and  O10_28 
REMARK   19  A    between atoms: O10_28  and  C14_29 
REMARK   20  A    between atoms: C14_29  and  C15_30 
REMARK   21  A    between atoms: C16_31  and  O13_49 
REMARK   22  A    between atoms: C17_32  and  O12_48 
REMARK   23  A    between atoms: C18_33  and  N3_35 
REMARK   24  A    between atoms: C21_40  and  N7_47 
REMARK   25  A    between atoms: O13_49  and  P3_50 
REMARK   26  A    between atoms: P3_50  and  O15_52 
REMARK   27  A    between atoms: P3_50  and  O16_53 
ROOT
HETATM    1  C1  UNL     1      21.246   5.536 -12.655  1.00  0.00     0.104 C 
HETATM    2  C2  UNL     1      20.124   4.546 -12.731  1.00  0.00     0.182 C 
HETATM    3  O1  UNL     1      19.393   4.429 -13.712  1.00  0.00    -0.286 OA
ENDROOT
BRANCH   2   4
HETATM    4  S1  UNL     1      19.908   3.582 -11.277  1.00  0.00    -0.091 SA
BRANCH   4   5
HETATM    5  C3  UNL     1      19.825   1.913 -12.004  1.00  0.00     0.102 C 
BRANCH   5   6
HETATM    6  C4  UNL     1      18.402   1.352 -11.983  1.00  0.00     0.133 C 
BRANCH   6   7
HETATM    7  N1  UNL     1      17.412   2.322 -12.403  1.00  0.00    -0.360 N 
HETATM    8  C5  UNL     1      16.630   2.122 -13.517  1.00  0.00     0.219 C 
HETATM    9  O2  UNL     1      16.775   1.160 -14.262  1.00  0.00    -0.274 OA
HETATM   10  H8  UNL     1      17.292   3.163 -11.855  1.00  0.00     0.162 HD
BRANCH   8  11
HETATM   11  C6  UNL     1      15.623   3.228 -13.748  1.00  0.00     0.122 C 
BRANCH  11  12
HETATM   12  C7  UNL     1      15.949   4.477 -12.931  1.00  0.00     0.132 C 
BRANCH  12  13
HETATM   13  N2  UNL     1      14.880   4.865 -12.035  1.00  0.00    -0.358 N 
HETATM   14  C8  UNL     1      14.908   4.479 -10.708  1.00  0.00     0.247 C 
HETATM   15  O3  UNL     1      15.756   3.711 -10.271  1.00  0.00    -0.271 OA
HETATM   16  H13 UNL     1      14.425   5.749 -12.253  1.00  0.00     0.162 HD
BRANCH  14  17
HETATM   17  C9  UNL     1      13.812   5.103  -9.832  1.00  0.00     0.219 C 
BRANCH  17  18
HETATM   18  C10 UNL     1      14.271   6.334  -9.007  1.00  0.00     0.009 C 
HETATM   19  C11 UNL     1      14.098   6.116  -7.497  1.00  0.00     0.020 C 
HETATM   20  C12 UNL     1      15.753   6.671  -9.272  1.00  0.00     0.020 C 
BRANCH  18  21
HETATM   21  C13 UNL     1      13.374   7.517  -9.470  1.00  0.00     0.192 C 
BRANCH  21  22
HETATM   22  O4  UNL     1      13.778   8.043 -10.718  1.00  0.00    -0.296 OA
BRANCH  22  23
HETATM   23  P1  UNL     1      13.743   9.611 -11.055  1.00  0.00     0.401 P 
HETATM   24  O5  UNL     1      12.641  10.359 -10.373  1.00  0.00    -0.631 OA
BRANCH  23  25
HETATM   25  O6  UNL     1      13.722   9.742 -12.659  1.00  0.00    -0.307 OA
HETATM   26  H23 UNL     1      14.363   9.153 -13.078  1.00  0.00     0.222 HD
ENDBRANCH  23  25
BRANCH  23  27
HETATM   27  O7  UNL     1      15.208  10.135 -10.721  1.00  0.00    -0.195 OA
BRANCH  27  28
HETATM   28  P2  UNL     1      15.746  11.438 -11.462  1.00  0.00     0.401 P 
HETATM   29  O8  UNL     1      16.393  11.241 -12.794  1.00  0.00    -0.631 OA
BRANCH  28  30
HETATM   30  O9  UNL     1      14.470  12.396 -11.493  1.00  0.00    -0.307 OA
HETATM   31  H24 UNL     1      14.069  12.506 -12.390  1.00  0.00     0.222 HD
ENDBRANCH  28  30
BRANCH  28  32
HETATM   32  O10 UNL     1      16.636  12.171 -10.356  1.00  0.00    -0.294 OA
BRANCH  32  33
HETATM   33  C14 UNL     1      17.591  13.124 -10.742  1.00  0.00     0.215 C 
BRANCH  33  34
HETATM   34  C15 UNL     1      18.949  12.559 -10.332  1.00  0.00     0.180 C 
HETATM   35  C16 UNL     1      19.401  11.516 -11.346  1.00  0.00     0.197 C 
HETATM   36  C17 UNL     1      19.494  10.225 -10.555  1.00  0.00     0.199 C 
HETATM   37  C18 UNL     1      19.731  10.735  -9.131  1.00  0.00     0.262 C 
HETATM   38  O11 UNL     1      18.928  11.933  -9.044  1.00  0.00    -0.353 OA
BRANCH  35  39
HETATM   39  O13 UNL     1      20.665  11.921 -11.862  1.00  0.00    -0.286 OA
BRANCH  39  40
HETATM   40  P3  UNL     1      20.763  12.010 -13.455  1.00  0.00     0.391 P 
HETATM   41  O14 UNL     1      21.359  13.287 -13.952  1.00  0.00    -0.632 OA
BRANCH  40  42
HETATM   42  O15 UNL     1      19.251  11.689 -13.866  1.00  0.00    -0.307 OA
HETATM   43  H36 UNL     1      18.870  10.993 -13.280  1.00  0.00     0.222 HD
ENDBRANCH  40  42
BRANCH  40  44
HETATM   44  O16 UNL     1      21.526  10.658 -13.800  1.00  0.00    -0.307 OA
HETATM   45  H37 UNL     1      21.024   9.867 -13.546  1.00  0.00     0.222 HD
ENDBRANCH  40  44
ENDBRANCH  39  40
ENDBRANCH  35  39
BRANCH  36  46
HETATM   46  O12 UNL     1      20.489   9.368 -11.120  1.00  0.00    -0.388 OA
HETATM   47  H35 UNL     1      20.013   8.572 -11.456  1.00  0.00     0.210 HD
ENDBRANCH  36  46
BRANCH  37  48
HETATM   48  N3  UNL     1      19.280   9.797  -8.123  1.00  0.00    -0.297 N 
HETATM   49  C19 UNL     1      20.059   8.958  -7.361  1.00  0.00     0.188 A 
HETATM   50  N4  UNL     1      19.360   8.322  -6.446  1.00  0.00    -0.346 N 
HETATM   51  C20 UNL     1      18.065   8.776  -6.619  1.00  0.00     0.116 A 
HETATM   52  H4  UNL     1      19.698   7.647  -5.760  1.00  0.00     0.167 HD
HETATM   53  C21 UNL     1      16.864   8.515  -5.935  1.00  0.00     0.109 A 
HETATM   54  C23 UNL     1      17.994   9.660  -7.680  1.00  0.00     0.142 A 
HETATM   55  N5  UNL     1      15.729   9.121  -6.363  1.00  0.00    -0.341 N 
HETATM   56  C22 UNL     1      15.807   9.943  -7.428  1.00  0.00     0.183 A 
HETATM   57  H5  UNL     1      14.840   8.959  -5.890  1.00  0.00     0.167 HD
HETATM   58  N6  UNL     1      16.895  10.274  -8.153  1.00  0.00    -0.336 N 
HETATM   59  H6  UNL     1      16.886  10.906  -8.954  1.00  0.00     0.168 HD
BRANCH  53  60
HETATM   60  N7  UNL     1      16.777   7.660  -4.848  1.00  0.00    -0.287 NA
HETATM   61  H33 UNL     1      16.545   8.120  -3.971  1.00  0.00     0.125 HD
HETATM   62  H34 UNL     1      17.522   6.978  -4.822  1.00  0.00     0.125 HD
ENDBRANCH  53  60
ENDBRANCH  37  48
ENDBRANCH  33  34
ENDBRANCH  32  33
ENDBRANCH  28  32
ENDBRANCH  27  28
ENDBRANCH  23  27
ENDBRANCH  22  23
ENDBRANCH  21  22
ENDBRANCH  18  21
ENDBRANCH  17  18
BRANCH  17  63
HETATM   63  O17 UNL     1      12.695   5.489 -10.640  1.00  0.00    -0.385 OA
HETATM   64  H38 UNL     1      12.820   6.415 -10.906  1.00  0.00     0.210 HD
ENDBRANCH  17  63
ENDBRANCH  14  17
ENDBRANCH  12  13
ENDBRANCH  11  12
ENDBRANCH   8  11
ENDBRANCH   6   7
ENDBRANCH   5   6
ENDBRANCH   4   5
ENDBRANCH   2   4
TORSDOF 27
ENDMDL
MODEL 6
REMARK VINA RESULT:      -5.2      3.776      7.454
REMARK  27 active torsions:
REMARK  status: ('A' for Active; 'I' for Inactive)
REMARK    1  A    between atoms: C2_2  and  S1_4 
REMARK    2  A    between atoms: S1_4  and  C3_5 
REMARK    3  A    between atoms: C3_5  and  C4_6 
REMARK    4  A    between atoms: C4_6  and  N1_7 
REMARK       I    between atoms: N1_7  and  C5_8 
REMARK    5  A    between atoms: C5_8  and  C6_10 
REMARK    6  A    between atoms: C6_10  and  C7_11 
REMARK    7  A    between atoms: C7_11  and  N2_12 
REMARK       I    between atoms: N2_12  and  C8_13 
REMARK    8  A    between atoms: C8_13  and  C9_15 
REMARK    9  A    between atoms: C9_15  and  C10_16 
REMARK   10  A    between atoms: C9_15  and  O17_54 
REMARK   11  A    between atoms: C10_16  and  C13_19 
REMARK   12  A    between atoms: C13_19  and  O4_20 
REMARK   13  A    between atoms: O4_20  and  P1_21 
REMARK   14  A    between atoms: P1_21  and  O6_23 
REMARK   15  A    between atoms: P1_21  and  O7_24 
REMARK   16  A    between atoms: O7_24  and  P2_25 
REMARK   17  A    between atoms: P2_25  and  O9_27 
REMARK   18  A    between atoms: P2_25  and  O10_28 
REMARK   19  A    between atoms: O10_28  and  C14_29 
REMARK   20  A    between atoms: C14_29  and  C15_30 
REMARK   21  A    between atoms: C16_31  and  O13_49 
REMARK   22  A    between atoms: C17_32  and  O12_48 
REMARK   23  A    between atoms: C18_33  and  N3_35 
REMARK   24  A    between atoms: C21_40  and  N7_47 
REMARK   25  A    between atoms: O13_49  and  P3_50 
REMARK   26  A    between atoms: P3_50  and  O15_52 
REMARK   27  A    between atoms: P3_50  and  O16_53 
ROOT
HETATM    1  C1  UNL     1      17.255   1.456 -13.328  1.00  0.00     0.104 C 
HETATM    2  C2  UNL     1      16.053   2.200 -13.826  1.00  0.00     0.182 C 
HETATM    3  O1  UNL     1      15.110   1.654 -14.394  1.00  0.00    -0.286 OA
ENDROOT
BRANCH   2   4
HETATM    4  S1  UNL     1      16.117   3.938 -13.567  1.00  0.00    -0.091 SA
BRANCH   4   5
HETATM    5  C3  UNL     1      15.227   4.061 -11.982  1.00  0.00     0.102 C 
BRANCH   5   6
HETATM    6  C4  UNL     1      16.171   4.386 -10.823  1.00  0.00     0.133 C 
BRANCH   6   7
HETATM    7  N1  UNL     1      17.548   4.533 -11.247  1.00  0.00    -0.360 N 
HETATM    8  C5  UNL     1      18.531   3.665 -10.829  1.00  0.00     0.219 C 
HETATM    9  O2  UNL     1      18.321   2.772 -10.017  1.00  0.00    -0.274 OA
HETATM   10  H8  UNL     1      17.786   5.291 -11.873  1.00  0.00     0.162 HD
BRANCH   8  11
HETATM   11  C6  UNL     1      19.887   3.962 -11.431  1.00  0.00     0.122 C 
BRANCH  11  12
HETATM   12  C7  UNL     1      19.902   5.296 -12.177  1.00  0.00     0.132 C 
BRANCH  12  13
HETATM   13  N2  UNL     1      20.574   6.348 -11.445  1.00  0.00    -0.358 N 
HETATM   14  C8  UNL     1      19.848   7.224 -10.659  1.00  0.00     0.247 C 
HETATM   15  O3  UNL     1      18.624   7.223 -10.642  1.00  0.00    -0.271 OA
HETATM   16  H13 UNL     1      21.526   6.138 -11.151  1.00  0.00     0.162 HD
BRANCH  14  17
HETATM   17  C9  UNL     1      20.697   8.174  -9.801  1.00  0.00     0.219 C 
BRANCH  17  18
HETATM   18  C10 UNL     1      20.215   9.649  -9.807  1.00  0.00     0.009 C 
HETATM   19  C11 UNL     1      21.306  10.616  -9.325  1.00  0.00     0.020 C 
HETATM   20  C12 UNL     1      19.773  10.093 -11.216  1.00  0.00     0.020 C 
BRANCH  18  21
HETATM   21  C13 UNL     1      19.002   9.705  -8.834  1.00  0.00     0.192 C 
BRANCH  21  22
HETATM   22  O4  UNL     1      19.365  10.154  -7.545  1.00  0.00    -0.296 OA
BRANCH  22  23
HETATM   23  P1  UNL     1      18.933   9.391  -6.203  1.00  0.00     0.401 P 
HETATM   24  O5  UNL     1      18.184  10.244  -5.228  1.00  0.00    -0.631 OA
BRANCH  23  25
HETATM   25  O6  UNL     1      20.267   8.728  -5.594  1.00  0.00    -0.307 OA
HETATM   26  H23 UNL     1      20.217   8.629  -4.634  1.00  0.00     0.222 HD
ENDBRANCH  23  25
BRANCH  23  27
HETATM   27  O7  UNL     1      18.145   8.101  -6.699  1.00  0.00    -0.195 OA
BRANCH  27  28
HETATM   28  P2  UNL     1      16.796   7.691  -5.959  1.00  0.00     0.401 P 
HETATM   29  O8  UNL     1      16.904   7.304  -4.520  1.00  0.00    -0.631 OA
BRANCH  28  30
HETATM   30  O9  UNL     1      15.836   8.938  -6.228  1.00  0.00    -0.307 OA
HETATM   31  H24 UNL     1      16.311   9.764  -6.488  1.00  0.00     0.222 HD
ENDBRANCH  28  30
BRANCH  28  32
HETATM   32  O10 UNL     1      16.140   6.602  -6.926  1.00  0.00    -0.294 OA
BRANCH  32  33
HETATM   33  C14 UNL     1      15.135   5.749  -6.444  1.00  0.00     0.215 C 
BRANCH  33  34
HETATM   34  C15 UNL     1      13.818   6.283  -7.005  1.00  0.00     0.180 C 
HETATM   35  C16 UNL     1      13.270   5.314  -8.044  1.00  0.00     0.197 C 
HETATM   36  C17 UNL     1      13.245   6.109  -9.336  1.00  0.00     0.199 C 
HETATM   37  C18 UNL     1      13.143   7.548  -8.827  1.00  0.00     0.262 C 
HETATM   38  O11 UNL     1      13.955   7.563  -7.632  1.00  0.00    -0.353 OA
BRANCH  35  39
HETATM   39  O13 UNL     1      11.966   4.917  -7.633  1.00  0.00    -0.286 OA
BRANCH  39  40
HETATM   40  P3  UNL     1      11.760   3.347  -7.413  1.00  0.00     0.391 P 
HETATM   41  O14 UNL     1      13.033   2.564  -7.435  1.00  0.00    -0.632 OA
BRANCH  40  42
HETATM   42  O15 UNL     1      10.673   3.026  -8.542  1.00  0.00    -0.307 OA
HETATM   43  H36 UNL     1      10.907   2.200  -9.027  1.00  0.00     0.222 HD
ENDBRANCH  40  42
BRANCH  40  44
HETATM   44  O16 UNL     1      10.905   3.325  -6.072  1.00  0.00    -0.307 OA
HETATM   45  H37 UNL     1      11.433   3.537  -5.286  1.00  0.00     0.222 HD
ENDBRANCH  40  44
ENDBRANCH  39  40
ENDBRANCH  35  39
BRANCH  36  46
HETATM   46  O12 UNL     1      12.198   5.638 -10.188  1.00  0.00    -0.388 OA
HETATM   47  H35 UNL     1      11.677   6.433 -10.454  1.00  0.00     0.210 HD
ENDBRANCH  36  46
BRANCH  37  48
HETATM   48  N3  UNL     1      13.680   8.511  -9.768  1.00  0.00    -0.297 N 
HETATM   49  C19 UNL     1      13.852   8.343 -11.122  1.00  0.00     0.188 A 
HETATM   50  N4  UNL     1      14.244   9.448 -11.716  1.00  0.00    -0.346 N 
HETATM   51  C20 UNL     1      14.326  10.381 -10.697  1.00  0.00     0.116 A 
HETATM   52  H4  UNL     1      14.443   9.588 -12.706  1.00  0.00     0.167 HD
HETATM   53  C21 UNL     1      14.645  11.750 -10.682  1.00  0.00     0.109 A 
HETATM   54  C23 UNL     1      14.017   9.804  -9.479  1.00  0.00     0.142 A 
HETATM   55  N5  UNL     1      14.649  12.403  -9.494  1.00  0.00    -0.341 N 
HETATM   56  C22 UNL     1      14.350  11.704  -8.381  1.00  0.00     0.183 A 
HETATM   57  H5  UNL     1      14.872  13.397  -9.444  1.00  0.00     0.167 HD
HETATM   58  N6  UNL     1      14.022  10.400  -8.274  1.00  0.00    -0.336 N 
HETATM   59  H6  UNL     1      13.806   9.928  -7.395  1.00  0.00     0.168 HD
BRANCH  53  60
HETATM   60  N7  UNL     1      14.967  12.470 -11.822  1.00  0.00    -0.287 NA
HETATM   61  H33 UNL     1      14.486  12.160 -12.663  1.00  0.00     0.125 HD
HETATM   62  H34 UNL     1      15.958  12.654 -11.905  1.00  0.00     0.125 HD
ENDBRANCH  53  60
ENDBRANCH  37  48
ENDBRANCH  33  34
ENDBRANCH  32  33
ENDBRANCH  28  32
ENDBRANCH  27  28
ENDBRANCH  23  27
ENDBRANCH  22  23
ENDBRANCH  21  22
ENDBRANCH  18  21
ENDBRANCH  17  18
BRANCH  17  63
HETATM   63  O17 UNL     1      20.735   7.714  -8.446  1.00  0.00    -0.385 OA
HETATM   64  H38 UNL     1      20.477   6.777  -8.438  1.00  0.00     0.210 HD
ENDBRANCH  17  63
ENDBRANCH  14  17
ENDBRANCH  12  13
ENDBRANCH  11  12
ENDBRANCH   8  11
ENDBRANCH   6   7
ENDBRANCH   5   6
ENDBRANCH   4   5
ENDBRANCH   2   4
TORSDOF 27
ENDMDL
MODEL 7
REMARK VINA RESULT:      -5.2      5.495      8.798
REMARK  27 active torsions:
REMARK  status: ('A' for Active; 'I' for Inactive)
REMARK    1  A    between atoms: C2_2  and  S1_4 
REMARK    2  A    between atoms: S1_4  and  C3_5 
REMARK    3  A    between atoms: C3_5  and  C4_6 
REMARK    4  A    between atoms: C4_6  and  N1_7 
REMARK       I    between atoms: N1_7  and  C5_8 
REMARK    5  A    between atoms: C5_8  and  C6_10 
REMARK    6  A    between atoms: C6_10  and  C7_11 
REMARK    7  A    between atoms: C7_11  and  N2_12 
REMARK       I    between atoms: N2_12  and  C8_13 
REMARK    8  A    between atoms: C8_13  and  C9_15 
REMARK    9  A    between atoms: C9_15  and  C10_16 
REMARK   10  A    between atoms: C9_15  and  O17_54 
REMARK   11  A    between atoms: C10_16  and  C13_19 
REMARK   12  A    between atoms: C13_19  and  O4_20 
REMARK   13  A    between atoms: O4_20  and  P1_21 
REMARK   14  A    between atoms: P1_21  and  O6_23 
REMARK   15  A    between atoms: P1_21  and  O7_24 
REMARK   16  A    between atoms: O7_24  and  P2_25 
REMARK   17  A    between atoms: P2_25  and  O9_27 
REMARK   18  A    between atoms: P2_25  and  O10_28 
REMARK   19  A    between atoms: O10_28  and  C14_29 
REMARK   20  A    between atoms: C14_29  and  C15_30 
REMARK   21  A    between atoms: C16_31  and  O13_49 
REMARK   22  A    between atoms: C17_32  and  O12_48 
REMARK   23  A    between atoms: C18_33  and  N3_35 
REMARK   24  A    between atoms: C21_40  and  N7_47 
REMARK   25  A    between atoms: O13_49  and  P3_50 
REMARK   26  A    between atoms: P3_50  and  O15_52 
REMARK   27  A    between atoms: P3_50  and  O16_53 
ROOT
HETATM    1  C1  UNL     1      15.765   3.628 -14.037  1.00  0.00     0.104 C 
HETATM    2  C2  UNL     1      16.657   2.455 -14.304  1.00  0.00     0.182 C 
HETATM    3  O1  UNL     1      17.875   2.550 -14.437  1.00  0.00    -0.286 OA
ENDROOT
BRANCH   2   4
HETATM    4  S1  UNL     1      15.812   0.920 -14.453  1.00  0.00    -0.091 SA
BRANCH   4   5
HETATM    5  C3  UNL     1      17.225  -0.231 -14.435  1.00  0.00     0.102 C 
BRANCH   5   6
HETATM    6  C4  UNL     1      17.716  -0.552 -15.848  1.00  0.00     0.133 C 
BRANCH   6   7
HETATM    7  N1  UNL     1      18.665   0.422 -16.345  1.00  0.00    -0.360 N 
HETATM    8  C5  UNL     1      20.018   0.289 -16.133  1.00  0.00     0.219 C 
HETATM    9  O2  UNL     1      20.493  -0.609 -15.448  1.00  0.00    -0.274 OA
HETATM   10  H8  UNL     1      18.319   1.215 -16.869  1.00  0.00     0.162 HD
BRANCH   8  11
HETATM   11  C6  UNL     1      20.837   1.383 -16.783  1.00  0.00     0.122 C 
BRANCH  11  12
HETATM   12  C7  UNL     1      21.539   2.262 -15.748  1.00  0.00     0.132 C 
BRANCH  12  13
HETATM   13  N2  UNL     1      20.904   2.225 -14.448  1.00  0.00    -0.358 N 
HETATM   14  C8  UNL     1      21.441   2.935 -13.390  1.00  0.00     0.247 C 
HETATM   15  O3  UNL     1      22.516   3.515 -13.473  1.00  0.00    -0.271 OA
HETATM   16  H13 UNL     1      19.895   2.094 -14.457  1.00  0.00     0.162 HD
BRANCH  14  17
HETATM   17  C9  UNL     1      20.576   2.952 -12.121  1.00  0.00     0.219 C 
BRANCH  17  18
HETATM   18  C10 UNL     1      19.788   4.270 -11.898  1.00  0.00     0.009 C 
HETATM   19  C11 UNL     1      19.524   5.016 -13.214  1.00  0.00     0.020 C 
HETATM   20  C12 UNL     1      18.429   4.008 -11.218  1.00  0.00     0.020 C 
BRANCH  18  21
HETATM   21  C13 UNL     1      20.678   5.147 -10.970  1.00  0.00     0.192 C 
BRANCH  21  22
HETATM   22  O4  UNL     1      20.734   6.494 -11.395  1.00  0.00    -0.296 OA
BRANCH  22  23
HETATM   23  P1  UNL     1      20.201   7.712 -10.498  1.00  0.00     0.401 P 
HETATM   24  O5  UNL     1      20.399   9.060 -11.117  1.00  0.00    -0.631 OA
BRANCH  23  25
HETATM   25  O6  UNL     1      20.883   7.556  -9.049  1.00  0.00    -0.307 OA
HETATM   26  H23 UNL     1      21.837   7.705  -9.080  1.00  0.00     0.222 HD
ENDBRANCH  23  25
BRANCH  23  27
HETATM   27  O7  UNL     1      18.688   7.348 -10.169  1.00  0.00    -0.195 OA
BRANCH  27  28
HETATM   28  P2  UNL     1      17.856   8.309  -9.208  1.00  0.00     0.401 P 
HETATM   29  O8  UNL     1      18.349   8.456  -7.806  1.00  0.00    -0.631 OA
BRANCH  28  30
HETATM   30  O9  UNL     1      17.797   9.681 -10.024  1.00  0.00    -0.307 OA
HETATM   31  H24 UNL     1      16.919  10.134  -9.988  1.00  0.00     0.222 HD
ENDBRANCH  28  30
BRANCH  28  32
HETATM   32  O10 UNL     1      16.349   7.807  -9.369  1.00  0.00    -0.294 OA
BRANCH  32  33
HETATM   33  C14 UNL     1      16.088   6.505  -9.825  1.00  0.00     0.215 C 
BRANCH  33  34
HETATM   34  C15 UNL     1      14.624   6.491 -10.261  1.00  0.00     0.180 C 
HETATM   35  C16 UNL     1      13.965   7.816  -9.898  1.00  0.00     0.197 C 
HETATM   36  C17 UNL     1      12.870   7.444  -8.917  1.00  0.00     0.199 C 
HETATM   37  C18 UNL     1      12.575   5.991  -9.297  1.00  0.00     0.262 C 
HETATM   38  O11 UNL     1      13.866   5.444  -9.643  1.00  0.00    -0.353 OA
BRANCH  35  39
HETATM   39  O13 UNL     1      13.445   8.391 -11.092  1.00  0.00    -0.286 OA
BRANCH  39  40
HETATM   40  P3  UNL     1      13.842   9.917 -11.352  1.00  0.00     0.391 P 
HETATM   41  O14 UNL     1      15.223  10.266 -10.900  1.00  0.00    -0.632 OA
BRANCH  40  42
HETATM   42  O15 UNL     1      12.619  10.669 -10.645  1.00  0.00    -0.307 OA
HETATM   43  H36 UNL     1      12.551  10.407  -9.696  1.00  0.00     0.222 HD
ENDBRANCH  40  42
BRANCH  40  44
HETATM   44  O16 UNL     1      13.513  10.070 -12.900  1.00  0.00    -0.307 OA
HETATM   45  H37 UNL     1      14.074   9.510 -13.461  1.00  0.00     0.222 HD
ENDBRANCH  40  44
ENDBRANCH  39  40
ENDBRANCH  35  39
BRANCH  36  46
HETATM   46  O12 UNL     1      11.790   8.378  -9.003  1.00  0.00    -0.388 OA
HETATM   47  H35 UNL     1      11.106   8.071  -8.362  1.00  0.00     0.210 HD
ENDBRANCH  36  46
BRANCH  37  48
HETATM   48  N3  UNL     1      12.026   5.228  -8.194  1.00  0.00    -0.297 N 
HETATM   49  C19 UNL     1      12.663   4.259  -7.455  1.00  0.00     0.188 A 
HETATM   50  N4  UNL     1      11.934   3.845  -6.442  1.00  0.00    -0.346 N 
HETATM   51  C20 UNL     1      10.769   4.585  -6.525  1.00  0.00     0.116 A 
HETATM   52  H4  UNL     1      12.175   3.136  -5.749  1.00  0.00     0.167 HD
HETATM   53  C21 UNL     1       9.618   4.645  -5.720  1.00  0.00     0.109 A 
HETATM   54  C23 UNL     1      10.796   5.418  -7.629  1.00  0.00     0.142 A 
HETATM   55  N5  UNL     1       8.617   5.485  -6.079  1.00  0.00    -0.341 N 
HETATM   56  C22 UNL     1       8.772   6.221  -7.197  1.00  0.00     0.183 A 
HETATM   57  H5  UNL     1       7.768   5.557  -5.518  1.00  0.00     0.167 HD
HETATM   58  N6  UNL     1       9.826   6.256  -8.038  1.00  0.00    -0.336 N 
HETATM   59  H6  UNL     1       9.881   6.839  -8.873  1.00  0.00     0.168 HD
BRANCH  53  60
HETATM   60  N7  UNL     1       9.447   3.879  -4.578  1.00  0.00    -0.287 NA
HETATM   61  H33 UNL     1       9.295   4.420  -3.729  1.00  0.00     0.125 HD
HETATM   62  H34 UNL     1      10.100   3.110  -4.517  1.00  0.00     0.125 HD
ENDBRANCH  53  60
ENDBRANCH  37  48
ENDBRANCH  33  34
ENDBRANCH  32  33
ENDBRANCH  28  32
ENDBRANCH  27  28
ENDBRANCH  23  27
ENDBRANCH  22  23
ENDBRANCH  21  22
ENDBRANCH  18  21
ENDBRANCH  17  18
BRANCH  17  63
HETATM   63  O17 UNL     1      19.645   1.865 -12.144  1.00  0.00    -0.385 OA
HETATM   64  H38 UNL     1      20.142   1.045 -12.302  1.00  0.00     0.210 HD
ENDBRANCH  17  63
ENDBRANCH  14  17
ENDBRANCH  12  13
ENDBRANCH  11  12
ENDBRANCH   8  11
ENDBRANCH   6   7
ENDBRANCH   5   6
ENDBRANCH   4   5
ENDBRANCH   2   4
TORSDOF 27
ENDMDL
MODEL 8
REMARK VINA RESULT:      -5.1      3.298      8.263
REMARK  27 active torsions:
REMARK  status: ('A' for Active; 'I' for Inactive)
REMARK    1  A    between atoms: C2_2  and  S1_4 
REMARK    2  A    between atoms: S1_4  and  C3_5 
REMARK    3  A    between atoms: C3_5  and  C4_6 
REMARK    4  A    between atoms: C4_6  and  N1_7 
REMARK       I    between atoms: N1_7  and  C5_8 
REMARK    5  A    between atoms: C5_8  and  C6_10 
REMARK    6  A    between atoms: C6_10  and  C7_11 
REMARK    7  A    between atoms: C7_11  and  N2_12 
REMARK       I    between atoms: N2_12  and  C8_13 
REMARK    8  A    between atoms: C8_13  and  C9_15 
REMARK    9  A    between atoms: C9_15  and  C10_16 
REMARK   10  A    between atoms: C9_15  and  O17_54 
REMARK   11  A    between atoms: C10_16  and  C13_19 
REMARK   12  A    between atoms: C13_19  and  O4_20 
REMARK   13  A    between atoms: O4_20  and  P1_21 
REMARK   14  A    between atoms: P1_21  and  O6_23 
REMARK   15  A    between atoms: P1_21  and  O7_24 
REMARK   16  A    between atoms: O7_24  and  P2_25 
REMARK   17  A    between atoms: P2_25  and  O9_27 
REMARK   18  A    between atoms: P2_25  and  O10_28 
REMARK   19  A    between atoms: O10_28  and  C14_29 
REMARK   20  A    between atoms: C14_29  and  C15_30 
REMARK   21  A    between atoms: C16_31  and  O13_49 
REMARK   22  A    between atoms: C17_32  and  O12_48 
REMARK   23  A    between atoms: C18_33  and  N3_35 
REMARK   24  A    between atoms: C21_40  and  N7_47 
REMARK   25  A    between atoms: O13_49  and  P3_50 
REMARK   26  A    between atoms: P3_50  and  O15_52 
REMARK   27  A    between atoms: P3_50  and  O16_53 
ROOT
HETATM    1  C1  UNL     1      11.607   3.373  -7.720  1.00  0.00     0.104 C 
HETATM    2  C2  UNL     1      11.180   4.104  -6.484  1.00  0.00     0.182 C 
HETATM    3  O1  UNL     1      11.932   4.825  -5.833  1.00  0.00    -0.286 OA
ENDROOT
BRANCH   2   4
HETATM    4  S1  UNL     1       9.512   3.813  -6.010  1.00  0.00    -0.091 SA
BRANCH   4   5
HETATM    5  C3  UNL     1       8.936   5.526  -5.783  1.00  0.00     0.102 C 
BRANCH   5   6
HETATM    6  C4  UNL     1       8.932   6.305  -7.099  1.00  0.00     0.133 C 
BRANCH   6   7
HETATM    7  N1  UNL     1       8.154   7.525  -7.025  1.00  0.00    -0.360 N 
HETATM    8  C5  UNL     1       8.502   8.650  -7.737  1.00  0.00     0.219 C 
HETATM    9  O2  UNL     1       9.526   8.716  -8.407  1.00  0.00    -0.274 OA
HETATM   10  H8  UNL     1       7.330   7.542  -6.439  1.00  0.00     0.162 HD
BRANCH   8  11
HETATM   11  C6  UNL     1       7.527   9.794  -7.562  1.00  0.00     0.122 C 
BRANCH  11  12
HETATM   12  C7  UNL     1       7.340  10.587  -8.855  1.00  0.00     0.132 C 
BRANCH  12  13
HETATM   13  N2  UNL     1       8.534  11.297  -9.263  1.00  0.00    -0.358 N 
HETATM   14  C8  UNL     1       8.604  12.672  -9.137  1.00  0.00     0.247 C 
HETATM   15  O3  UNL     1       7.640  13.345  -8.797  1.00  0.00    -0.271 OA
HETATM   16  H13 UNL     1       9.405  10.777  -9.176  1.00  0.00     0.162 HD
BRANCH  14  17
HETATM   17  C9  UNL     1       9.984  13.277  -9.438  1.00  0.00     0.219 C 
BRANCH  17  18
HETATM   18  C10 UNL     1      10.912  13.408  -8.202  1.00  0.00     0.009 C 
HETATM   19  C11 UNL     1      10.471  14.543  -7.266  1.00  0.00     0.020 C 
HETATM   20  C12 UNL     1      10.948  12.103  -7.382  1.00  0.00     0.020 C 
BRANCH  18  21
HETATM   21  C13 UNL     1      12.330  13.715  -8.763  1.00  0.00     0.192 C 
BRANCH  21  22
HETATM   22  O4  UNL     1      13.186  12.592  -8.706  1.00  0.00    -0.296 OA
BRANCH  22  23
HETATM   23  P1  UNL     1      14.264  12.261  -9.846  1.00  0.00     0.401 P 
HETATM   24  O5  UNL     1      15.496  13.107  -9.788  1.00  0.00    -0.631 OA
BRANCH  23  25
HETATM   25  O6  UNL     1      13.489  12.338 -11.255  1.00  0.00    -0.307 OA
HETATM   26  H23 UNL     1      13.935  11.824 -11.941  1.00  0.00     0.222 HD
ENDBRANCH  23  25
BRANCH  23  27
HETATM   27  O7  UNL     1      14.525  10.696  -9.722  1.00  0.00    -0.195 OA
BRANCH  27  28
HETATM   28  P2  UNL     1      13.436   9.686 -10.298  1.00  0.00     0.401 P 
HETATM   29  O8  UNL     1      12.002  10.016 -10.039  1.00  0.00    -0.631 OA
BRANCH  28  30
HETATM   30  O9  UNL     1      13.811   9.586 -11.847  1.00  0.00    -0.307 OA
HETATM   31  H24 UNL     1      13.736   8.675 -12.223  1.00  0.00     0.222 HD
ENDBRANCH  28  30
BRANCH  28  32
HETATM   32  O10 UNL     1      13.927   8.256  -9.785  1.00  0.00    -0.294 OA
BRANCH  32  33
HETATM   33  C14 UNL     1      14.456   7.326 -10.694  1.00  0.00     0.215 C 
BRANCH  33  34
HETATM   34  C15 UNL     1      15.807   6.895 -10.126  1.00  0.00     0.180 C 
HETATM   35  C16 UNL     1      15.900   7.294  -8.659  1.00  0.00     0.197 C 
HETATM   36  C17 UNL     1      17.061   8.270  -8.600  1.00  0.00     0.199 C 
HETATM   37  C18 UNL     1      17.895   7.854  -9.813  1.00  0.00     0.262 C 
HETATM   38  O11 UNL     1      16.916   7.489 -10.811  1.00  0.00    -0.353 OA
BRANCH  35  39
HETATM   39  O13 UNL     1      16.149   6.118  -7.897  1.00  0.00    -0.286 OA
BRANCH  39  40
HETATM   40  P3  UNL     1      15.305   5.981  -6.546  1.00  0.00     0.391 P 
HETATM   41  O14 UNL     1      16.061   6.383  -5.321  1.00  0.00    -0.632 OA
BRANCH  40  42
HETATM   42  O15 UNL     1      14.817   4.461  -6.650  1.00  0.00    -0.307 OA
HETATM   43  H36 UNL     1      15.540   3.844  -6.386  1.00  0.00     0.222 HD
ENDBRANCH  40  42
BRANCH  40  44
HETATM   44  O16 UNL     1      13.995   6.807  -6.907  1.00  0.00    -0.307 OA
HETATM   45  H37 UNL     1      13.182   6.292  -6.793  1.00  0.00     0.222 HD
ENDBRANCH  40  44
ENDBRANCH  39  40
ENDBRANCH  35  39
BRANCH  36  46
HETATM   46  O12 UNL     1      17.692   8.212  -7.318  1.00  0.00    -0.388 OA
HETATM   47  H35 UNL     1      17.151   8.777  -6.716  1.00  0.00     0.210 HD
ENDBRANCH  36  46
BRANCH  37  48
HETATM   48  N3  UNL     1      18.705   8.939 -10.330  1.00  0.00    -0.297 N 
HETATM   49  C19 UNL     1      20.065   9.098 -10.197  1.00  0.00     0.188 A 
HETATM   50  N4  UNL     1      20.517  10.120 -10.889  1.00  0.00    -0.346 N 
HETATM   51  C20 UNL     1      19.396  10.648 -11.505  1.00  0.00     0.116 A 
HETATM   52  H4  UNL     1      21.480  10.451 -10.956  1.00  0.00     0.167 HD
HETATM   53  C21 UNL     1      19.216  11.713 -12.404  1.00  0.00     0.109 A 
HETATM   54  C23 UNL     1      18.261   9.949 -11.137  1.00  0.00     0.142 A 
HETATM   55  N5  UNL     1      17.961  11.997 -12.831  1.00  0.00    -0.341 N 
HETATM   56  C22 UNL     1      16.944  11.244 -12.368  1.00  0.00     0.183 A 
HETATM   57  H5  UNL     1      17.792  12.760 -13.486  1.00  0.00     0.167 HD
HETATM   58  N6  UNL     1      16.996  10.198 -11.517  1.00  0.00    -0.336 N 
HETATM   59  H6  UNL     1      16.183   9.667 -11.204  1.00  0.00     0.168 HD
BRANCH  53  60
HETATM   60  N7  UNL     1      20.257  12.500 -12.872  1.00  0.00    -0.287 NA
HETATM   61  H33 UNL     1      20.175  12.764 -13.851  1.00  0.00     0.125 HD
HETATM   62  H34 UNL     1      21.164  12.181 -12.560  1.00  0.00     0.125 HD
ENDBRANCH  53  60
ENDBRANCH  37  48
ENDBRANCH  33  34
ENDBRANCH  32  33
ENDBRANCH  28  32
ENDBRANCH  27  28
ENDBRANCH  23  27
ENDBRANCH  22  23
ENDBRANCH  21  22
ENDBRANCH  18  21
ENDBRANCH  17  18
BRANCH  17  63
HETATM   63  O17 UNL     1      10.658  12.497 -10.432  1.00  0.00    -0.385 OA
HETATM   64  H38 UNL     1      11.159  13.104 -11.003  1.00  0.00     0.210 HD
ENDBRANCH  17  63
ENDBRANCH  14  17
ENDBRANCH  12  13
ENDBRANCH  11  12
ENDBRANCH   8  11
ENDBRANCH   6   7
ENDBRANCH   5   6
ENDBRANCH   4   5
ENDBRANCH   2   4
TORSDOF 27
ENDMDL
MODEL 9
REMARK VINA RESULT:      -5.1      2.899      4.689
REMARK  27 active torsions:
REMARK  status: ('A' for Active; 'I' for Inactive)
REMARK    1  A    between atoms: C2_2  and  S1_4 
REMARK    2  A    between atoms: S1_4  and  C3_5 
REMARK    3  A    between atoms: C3_5  and  C4_6 
REMARK    4  A    between atoms: C4_6  and  N1_7 
REMARK       I    between atoms: N1_7  and  C5_8 
REMARK    5  A    between atoms: C5_8  and  C6_10 
REMARK    6  A    between atoms: C6_10  and  C7_11 
REMARK    7  A    between atoms: C7_11  and  N2_12 
REMARK       I    between atoms: N2_12  and  C8_13 
REMARK    8  A    between atoms: C8_13  and  C9_15 
REMARK    9  A    between atoms: C9_15  and  C10_16 
REMARK   10  A    between atoms: C9_15  and  O17_54 
REMARK   11  A    between atoms: C10_16  and  C13_19 
REMARK   12  A    between atoms: C13_19  and  O4_20 
REMARK   13  A    between atoms: O4_20  and  P1_21 
REMARK   14  A    between atoms: P1_21  and  O6_23 
REMARK   15  A    between atoms: P1_21  and  O7_24 
REMARK   16  A    between atoms: O7_24  and  P2_25 
REMARK   17  A    between atoms: P2_25  and  O9_27 
REMARK   18  A    between atoms: P2_25  and  O10_28 
REMARK   19  A    between atoms: O10_28  and  C14_29 
REMARK   20  A    between atoms: C14_29  and  C15_30 
REMARK   21  A    between atoms: C16_31  and  O13_49 
REMARK   22  A    between atoms: C17_32  and  O12_48 
REMARK   23  A    between atoms: C18_33  and  N3_35 
REMARK   24  A    between atoms: C21_40  and  N7_47 
REMARK   25  A    between atoms: O13_49  and  P3_50 
REMARK   26  A    between atoms: P3_50  and  O15_52 
REMARK   27  A    between atoms: P3_50  and  O16_53 
ROOT
HETATM    1  C1  UNL     1      12.040  13.038  -0.559  1.00  0.00     0.104 C 
HETATM    2  C2  UNL     1      12.150  14.483  -0.179  1.00  0.00     0.182 C 
HETATM    3  O1  UNL     1      13.015  14.917   0.579  1.00  0.00    -0.286 OA
ENDROOT
BRANCH   2   4
HETATM    4  S1  UNL     1      10.909  15.514  -0.878  1.00  0.00    -0.091 SA
BRANCH   4   5
HETATM    5  C3  UNL     1      10.298  14.429  -2.208  1.00  0.00     0.102 C 
BRANCH   5   6
HETATM    6  C4  UNL     1      10.775  14.892  -3.586  1.00  0.00     0.133 C 
BRANCH   6   7
HETATM    7  N1  UNL     1      11.868  14.092  -4.098  1.00  0.00    -0.360 N 
HETATM    8  C5  UNL     1      12.021  13.851  -5.444  1.00  0.00     0.219 C 
HETATM    9  O2  UNL     1      11.205  14.226  -6.278  1.00  0.00    -0.274 OA
HETATM   10  H8  UNL     1      12.539  13.709  -3.445  1.00  0.00     0.162 HD
BRANCH   8  11
HETATM   11  C6  UNL     1      13.257  13.041  -5.771  1.00  0.00     0.122 C 
BRANCH  11  12
HETATM   12  C7  UNL     1      13.545  11.984  -4.706  1.00  0.00     0.132 C 
BRANCH  12  13
HETATM   13  N2  UNL     1      14.935  11.951  -4.302  1.00  0.00    -0.358 N 
HETATM   14  C8  UNL     1      15.383  12.768  -3.280  1.00  0.00     0.247 C 
HETATM   15  O3  UNL     1      14.670  13.621  -2.767  1.00  0.00    -0.271 OA
HETATM   16  H13 UNL     1      15.405  11.056  -4.422  1.00  0.00     0.162 HD
BRANCH  14  17
HETATM   17  C9  UNL     1      16.829  12.506  -2.833  1.00  0.00     0.219 C 
BRANCH  17  18
HETATM   18  C10 UNL     1      17.900  13.302  -3.625  1.00  0.00     0.009 C 
HETATM   19  C11 UNL     1      17.279  14.163  -4.734  1.00  0.00     0.020 C 
HETATM   20  C12 UNL     1      18.711  14.232  -2.700  1.00  0.00     0.020 C 
BRANCH  18  21
HETATM   21  C13 UNL     1      18.843  12.237  -4.255  1.00  0.00     0.192 C 
BRANCH  21  22
HETATM   22  O4  UNL     1      18.133  11.240  -4.961  1.00  0.00    -0.296 OA
BRANCH  22  23
HETATM   23  P1  UNL     1      18.812  10.313  -6.079  1.00  0.00     0.401 P 
HETATM   24  O5  UNL     1      20.246  10.640  -6.356  1.00  0.00    -0.631 OA
BRANCH  23  25
HETATM   25  O6  UNL     1      17.866  10.385  -7.380  1.00  0.00    -0.307 OA
HETATM   26  H23 UNL     1      17.797  11.283  -7.727  1.00  0.00     0.222 HD
ENDBRANCH  23  25
BRANCH  23  27
HETATM   27  O7  UNL     1      18.552   8.822  -5.590  1.00  0.00    -0.195 OA
BRANCH  27  28
HETATM   28  P2  UNL     1      17.066   8.248  -5.623  1.00  0.00     0.401 P 
HETATM   29  O8  UNL     1      16.735   7.170  -4.643  1.00  0.00    -0.631 OA
BRANCH  28  30
HETATM   30  O9  UNL     1      16.165   9.558  -5.478  1.00  0.00    -0.307 OA
HETATM   31  H24 UNL     1      15.270   9.480  -5.891  1.00  0.00     0.222 HD
ENDBRANCH  28  30
BRANCH  28  32
HETATM   32  O10 UNL     1      16.823   7.893  -7.160  1.00  0.00    -0.294 OA
BRANCH  32  33
HETATM   33  C14 UNL     1      15.525   7.927  -7.693  1.00  0.00     0.215 C 
BRANCH  33  34
HETATM   34  C15 UNL     1      15.081   6.472  -7.829  1.00  0.00     0.180 C 
HETATM   35  C16 UNL     1      14.998   6.094  -9.302  1.00  0.00     0.197 C 
HETATM   36  C17 UNL     1      13.539   5.750  -9.530  1.00  0.00     0.199 C 
HETATM   37  C18 UNL     1      13.083   5.333  -8.129  1.00  0.00     0.262 C 
HETATM   38  O11 UNL     1      13.798   6.222  -7.243  1.00  0.00    -0.353 OA
BRANCH  35  39
HETATM   39  O13 UNL     1      15.854   4.977  -9.519  1.00  0.00    -0.286 OA
BRANCH  39  40
HETATM   40  P3  UNL     1      16.934   5.152 -10.684  1.00  0.00     0.391 P 
HETATM   41  O14 UNL     1      17.671   6.452 -10.632  1.00  0.00    -0.632 OA
BRANCH  40  42
HETATM   42  O15 UNL     1      16.034   4.863 -11.974  1.00  0.00    -0.307 OA
HETATM   43  H36 UNL     1      15.292   5.511 -12.034  1.00  0.00     0.222 HD
ENDBRANCH  40  42
BRANCH  40  44
HETATM   44  O16 UNL     1      17.784   3.817 -10.529  1.00  0.00    -0.307 OA
HETATM   45  H37 UNL     1      17.583   3.161 -11.215  1.00  0.00     0.222 HD
ENDBRANCH  40  44
ENDBRANCH  39  40
ENDBRANCH  35  39
BRANCH  36  46
HETATM   46  O12 UNL     1      13.415   4.782 -10.575  1.00  0.00    -0.388 OA
HETATM   47  H35 UNL     1      12.953   5.236 -11.320  1.00  0.00     0.210 HD
ENDBRANCH  36  46
BRANCH  37  48
HETATM   48  N3  UNL     1      11.660   5.520  -7.929  1.00  0.00    -0.297 N 
HETATM   49  C19 UNL     1      10.822   6.346  -8.640  1.00  0.00     0.188 A 
HETATM   50  N4  UNL     1       9.561   6.194  -8.296  1.00  0.00    -0.346 N 
HETATM   51  C20 UNL     1       9.583   5.217  -7.316  1.00  0.00     0.116 A 
HETATM   52  H4  UNL     1       8.749   6.686  -8.668  1.00  0.00     0.167 HD
HETATM   53  C21 UNL     1       8.567   4.582  -6.581  1.00  0.00     0.109 A 
HETATM   54  C23 UNL     1      10.881   4.819  -7.051  1.00  0.00     0.142 A 
HETATM   55  N5  UNL     1       8.917   3.650  -5.661  1.00  0.00    -0.341 N 
HETATM   56  C22 UNL     1      10.227   3.380  -5.493  1.00  0.00     0.183 A 
HETATM   57  H5  UNL     1       8.207   3.165  -5.112  1.00  0.00     0.167 HD
HETATM   58  N6  UNL     1      11.282   3.914  -6.141  1.00  0.00    -0.336 N 
HETATM   59  H6  UNL     1      12.256   3.664  -5.965  1.00  0.00     0.168 HD
BRANCH  53  60
HETATM   60  N7  UNL     1       7.220   4.867  -6.740  1.00  0.00    -0.287 NA
HETATM   61  H33 UNL     1       7.029   5.798  -7.104  1.00  0.00     0.125 HD
HETATM   62  H34 UNL     1       6.657   4.559  -5.958  1.00  0.00     0.125 HD
ENDBRANCH  53  60
ENDBRANCH  37  48
ENDBRANCH  33  34
ENDBRANCH  32  33
ENDBRANCH  28  32
ENDBRANCH  27  28
ENDBRANCH  23  27
ENDBRANCH  22  23
ENDBRANCH  21  22
ENDBRANCH  18  21
ENDBRANCH  17  18
BRANCH  17  63
HETATM   63  O17 UNL     1      16.977  12.806  -1.441  1.00  0.00    -0.385 OA
HETATM   64  H38 UNL     1      17.472  13.639  -1.363  1.00  0.00     0.210 HD
ENDBRANCH  17  63
ENDBRANCH  14  17
ENDBRANCH  12  13
ENDBRANCH  11  12
ENDBRANCH   8  11
ENDBRANCH   6   7
ENDBRANCH   5   6
ENDBRANCH   4   5
ENDBRANCH   2   4
TORSDOF 27
ENDMDL
MODEL 10
REMARK VINA RESULT:      -5.1      4.016      6.635
REMARK  27 active torsions:
REMARK  status: ('A' for Active; 'I' for Inactive)
REMARK    1  A    between atoms: C2_2  and  S1_4 
REMARK    2  A    between atoms: S1_4  and  C3_5 
REMARK    3  A    between atoms: C3_5  and  C4_6 
REMARK    4  A    between atoms: C4_6  and  N1_7 
REMARK       I    between atoms: N1_7  and  C5_8 
REMARK    5  A    between atoms: C5_8  and  C6_10 
REMARK    6  A    between atoms: C6_10  and  C7_11 
REMARK    7  A    between atoms: C7_11  and  N2_12 
REMARK       I    between atoms: N2_12  and  C8_13 
REMARK    8  A    between atoms: C8_13  and  C9_15 
REMARK    9  A    between atoms: C9_15  and  C10_16 
REMARK   10  A    between atoms: C9_15  and  O17_54 
REMARK   11  A    between atoms: C10_16  and  C13_19 
REMARK   12  A    between atoms: C13_19  and  O4_20 
REMARK   13  A    between atoms: O4_20  and  P1_21 
REMARK   14  A    between atoms: P1_21  and  O6_23 
REMARK   15  A    between atoms: P1_21  and  O7_24 
REMARK   16  A    between atoms: O7_24  and  P2_25 
REMARK   17  A    between atoms: P2_25  and  O9_27 
REMARK   18  A    between atoms: P2_25  and  O10_28 
REMARK   19  A    between atoms: O10_28  and  C14_29 
REMARK   20  A    between atoms: C14_29  and  C15_30 
REMARK   21  A    between atoms: C16_31  and  O13_49 
REMARK   22  A    between atoms: C17_32  and  O12_48 
REMARK   23  A    between atoms: C18_33  and  N3_35 
REMARK   24  A    between atoms: C21_40  and  N7_47 
REMARK   25  A    between atoms: O13_49  and  P3_50 
REMARK   26  A    between atoms: P3_50  and  O15_52 
REMARK   27  A    between atoms: P3_50  and  O16_53 
ROOT
HETATM    1  C1  UNL     1      15.771   1.359 -14.406  1.00  0.00     0.104 C 
HETATM    2  C2  UNL     1      16.490   2.669 -14.295  1.00  0.00     0.182 C 
HETATM    3  O1  UNL     1      16.065   3.715 -14.780  1.00  0.00    -0.286 OA
ENDROOT
BRANCH   2   4
HETATM    4  S1  UNL     1      18.024   2.584 -13.440  1.00  0.00    -0.091 SA
BRANCH   4   5
HETATM    5  C3  UNL     1      17.436   2.211 -11.756  1.00  0.00     0.102 C 
BRANCH   5   6
HETATM    6  C4  UNL     1      18.248   2.951 -10.692  1.00  0.00     0.133 C 
BRANCH   6   7
HETATM    7  N1  UNL     1      19.400   3.636 -11.243  1.00  0.00    -0.360 N 
HETATM    8  C5  UNL     1      20.679   3.352 -10.823  1.00  0.00     0.219 C 
HETATM    9  O2  UNL     1      20.916   2.570  -9.910  1.00  0.00    -0.274 OA
HETATM   10  H8  UNL     1      19.254   4.334 -11.959  1.00  0.00     0.162 HD
BRANCH   8  11
HETATM   11  C6  UNL     1      21.740   4.138 -11.564  1.00  0.00     0.122 C 
BRANCH  11  12
HETATM   12  C7  UNL     1      21.167   5.394 -12.218  1.00  0.00     0.132 C 
BRANCH  12  13
HETATM   13  N2  UNL     1      21.369   6.589 -11.426  1.00  0.00    -0.358 N 
HETATM   14  C8  UNL     1      20.307   7.168 -10.755  1.00  0.00     0.247 C 
HETATM   15  O3  UNL     1      19.156   6.775 -10.895  1.00  0.00    -0.271 OA
HETATM   16  H13 UNL     1      22.292   6.688 -11.009  1.00  0.00     0.162 HD
BRANCH  14  17
HETATM   17  C9  UNL     1      20.690   8.319  -9.814  1.00  0.00     0.219 C 
BRANCH  17  18
HETATM   18  C10 UNL     1      20.499   9.735 -10.419  1.00  0.00     0.009 C 
HETATM   19  C11 UNL     1      21.132  10.828  -9.546  1.00  0.00     0.020 C 
HETATM   20  C12 UNL     1      21.117   9.835 -11.828  1.00  0.00     0.020 C 
BRANCH  18  21
HETATM   21  C13 UNL     1      18.962   9.959 -10.504  1.00  0.00     0.192 C 
BRANCH  21  22
HETATM   22  O4  UNL     1      18.503  10.906  -9.561  1.00  0.00    -0.296 OA
BRANCH  22  23
HETATM   23  P1  UNL     1      17.398  10.565  -8.450  1.00  0.00     0.401 P 
HETATM   24  O5  UNL     1      16.194  11.452  -8.491  1.00  0.00    -0.631 OA
BRANCH  23  25
HETATM   25  O6  UNL     1      18.153  10.560  -7.028  1.00  0.00    -0.307 OA
HETATM   26  H23 UNL     1      17.574  10.268  -6.312  1.00  0.00     0.222 HD
ENDBRANCH  23  25
BRANCH  23  27
HETATM   27  O7  UNL     1      17.089   9.016  -8.641  1.00  0.00    -0.195 OA
BRANCH  27  28
HETATM   28  P2  UNL     1      16.675   8.151  -7.369  1.00  0.00     0.401 P 
HETATM   29  O8  UNL     1      17.755   7.827  -6.389  1.00  0.00    -0.631 OA
BRANCH  28  30
HETATM   30  O9  UNL     1      15.457   8.974  -6.746  1.00  0.00    -0.307 OA
HETATM   31  H24 UNL     1      14.909   8.461  -6.103  1.00  0.00     0.222 HD
ENDBRANCH  28  30
BRANCH  28  32
HETATM   32  O10 UNL     1      15.898   6.901  -7.988  1.00  0.00    -0.294 OA
BRANCH  32  33
HETATM   33  C14 UNL     1      16.032   6.596  -9.352  1.00  0.00     0.215 C 
BRANCH  33  34
HETATM   34  C15 UNL     1      14.614   6.544  -9.919  1.00  0.00     0.180 C 
HETATM   35  C16 UNL     1      13.908   7.869  -9.663  1.00  0.00     0.197 C 
HETATM   36  C17 UNL     1      12.732   7.512  -8.773  1.00  0.00     0.199 C 
HETATM   37  C18 UNL     1      12.492   6.043  -9.129  1.00  0.00     0.262 C 
HETATM   38  O11 UNL     1      13.817   5.506  -9.338  1.00  0.00    -0.353 OA
BRANCH  35  39
HETATM   39  O13 UNL     1      13.491   8.397 -10.918  1.00  0.00    -0.286 OA
BRANCH  39  40
HETATM   40  P3  UNL     1      13.856   9.932 -11.176  1.00  0.00     0.391 P 
HETATM   41  O14 UNL     1      13.175  10.878 -10.241  1.00  0.00    -0.632 OA
BRANCH  40  42
HETATM   42  O15 UNL     1      13.522  10.061 -12.735  1.00  0.00    -0.307 OA
HETATM   43  H36 UNL     1      14.352  10.105 -13.267  1.00  0.00     0.222 HD
ENDBRANCH  40  42
BRANCH  40  44
HETATM   44  O16 UNL     1      15.446   9.886 -11.149  1.00  0.00    -0.307 OA
HETATM   45  H37 UNL     1      15.809   9.125 -11.629  1.00  0.00     0.222 HD
ENDBRANCH  40  44
ENDBRANCH  39  40
ENDBRANCH  35  39
BRANCH  36  46
HETATM   46  O12 UNL     1      11.652   8.425  -8.989  1.00  0.00    -0.388 OA
HETATM   47  H35 UNL     1      10.899   7.888  -9.332  1.00  0.00     0.210 HD
ENDBRANCH  36  46
BRANCH  37  48
HETATM   48  N3  UNL     1      11.854   5.307  -8.056  1.00  0.00    -0.297 N 
HETATM   49  C19 UNL     1      12.417   4.328  -7.271  1.00  0.00     0.188 A 
HETATM   50  N4  UNL     1      11.616   3.946  -6.300  1.00  0.00    -0.346 N 
HETATM   51  C20 UNL     1      10.479   4.718  -6.461  1.00  0.00     0.116 A 
HETATM   52  H4  UNL     1      11.792   3.238  -5.588  1.00  0.00     0.167 HD
HETATM   53  C21 UNL     1       9.284   4.819  -5.729  1.00  0.00     0.109 A 
HETATM   54  C23 UNL     1      10.598   5.538  -7.569  1.00  0.00     0.142 A 
HETATM   55  N5  UNL     1       8.331   5.684  -6.156  1.00  0.00    -0.341 N 
HETATM   56  C22 UNL     1       8.576   6.404  -7.269  1.00  0.00     0.183 A 
HETATM   57  H5  UNL     1       7.453   5.786  -5.649  1.00  0.00     0.167 HD
HETATM   58  N6  UNL     1       9.681   6.399  -8.043  1.00  0.00    -0.336 N 
HETATM   59  H6  UNL     1       9.804   6.972  -8.879  1.00  0.00     0.168 HD
BRANCH  53  60
HETATM   60  N7  UNL     1       9.021   4.070  -4.593  1.00  0.00    -0.287 NA
HETATM   61  H33 UNL     1       9.592   4.316  -3.788  1.00  0.00     0.125 HD
HETATM   62  H34 UNL     1       8.908   3.084  -4.787  1.00  0.00     0.125 HD
ENDBRANCH  53  60
ENDBRANCH  37  48
ENDBRANCH  33  34
ENDBRANCH  32  33
ENDBRANCH  28  32
ENDBRANCH  27  28
ENDBRANCH  23  27
ENDBRANCH  22  23
ENDBRANCH  21  22
ENDBRANCH  18  21
ENDBRANCH  17  18
BRANCH  17  63
HETATM   63  O17 UNL     1      19.933   8.238  -8.602  1.00  0.00    -0.385 OA
HETATM   64  H38 UNL     1      19.454   7.392  -8.601  1.00  0.00     0.210 HD
ENDBRANCH  17  63
ENDBRANCH  14  17
ENDBRANCH  12  13
ENDBRANCH  11  12
ENDBRANCH   8  11
ENDBRANCH   6   7
ENDBRANCH   5   6
ENDBRANCH   4   5
ENDBRANCH   2   4
TORSDOF 27
ENDMDL
MODEL 11
REMARK VINA RESULT:      -5.0      4.048      8.656
REMARK  27 active torsions:
REMARK  status: ('A' for Active; 'I' for Inactive)
REMARK    1  A    between atoms: C2_2  and  S1_4 
REMARK    2  A    between atoms: S1_4  and  C3_5 
REMARK    3  A    between atoms: C3_5  and  C4_6 
REMARK    4  A    between atoms: C4_6  and  N1_7 
REMARK       I    between atoms: N1_7  and  C5_8 
REMARK    5  A    between atoms: C5_8  and  C6_10 
REMARK    6  A    between atoms: C6_10  and  C7_11 
REMARK    7  A    between atoms: C7_11  and  N2_12 
REMARK       I    between atoms: N2_12  and  C8_13 
REMARK    8  A    between atoms: C8_13  and  C9_15 
REMARK    9  A    between atoms: C9_15  and  C10_16 
REMARK   10  A    between atoms: C9_15  and  O17_54 
REMARK   11  A    between atoms: C10_16  and  C13_19 
REMARK   12  A    between atoms: C13_19  and  O4_20 
REMARK   13  A    between atoms: O4_20  and  P1_21 
REMARK   14  A    between atoms: P1_21  and  O6_23 
REMARK   15  A    between atoms: P1_21  and  O7_24 
REMARK   16  A    between atoms: O7_24  and  P2_25 
REMARK   17  A    between atoms: P2_25  and  O9_27 
REMARK   18  A    between atoms: P2_25  and  O10_28 
REMARK   19  A    between atoms: O10_28  and  C14_29 
REMARK   20  A    between atoms: C14_29  and  C15_30 
REMARK   21  A    between atoms: C16_31  and  O13_49 
REMARK   22  A    between atoms: C17_32  and  O12_48 
REMARK   23  A    between atoms: C18_33  and  N3_35 
REMARK   24  A    between atoms: C21_40  and  N7_47 
REMARK   25  A    between atoms: O13_49  and  P3_50 
REMARK   26  A    between atoms: P3_50  and  O15_52 
REMARK   27  A    between atoms: P3_50  and  O16_53 
ROOT
HETATM    1  C1  UNL     1      21.178   5.299 -12.453  1.00  0.00     0.104 C 
HETATM    2  C2  UNL     1      20.073   4.302 -12.630  1.00  0.00     0.182 C 
HETATM    3  O1  UNL     1      19.415   4.201 -13.662  1.00  0.00    -0.286 OA
ENDROOT
BRANCH   2   4
HETATM    4  S1  UNL     1      19.762   3.306 -11.215  1.00  0.00    -0.091 SA
BRANCH   4   5
HETATM    5  C3  UNL     1      19.650   1.663 -11.994  1.00  0.00     0.102 C 
BRANCH   5   6
HETATM    6  C4  UNL     1      18.204   1.174 -12.088  1.00  0.00     0.133 C 
BRANCH   6   7
HETATM    7  N1  UNL     1      17.285   2.219 -12.490  1.00  0.00    -0.360 N 
HETATM    8  C5  UNL     1      16.530   2.119 -13.636  1.00  0.00     0.219 C 
HETATM    9  O2  UNL     1      16.646   1.187 -14.423  1.00  0.00    -0.274 OA
HETATM   10  H8  UNL     1      17.194   3.038 -11.904  1.00  0.00     0.162 HD
BRANCH   8  11
HETATM   11  C6  UNL     1      15.595   3.291 -13.842  1.00  0.00     0.122 C 
BRANCH  11  12
HETATM   12  C7  UNL     1      15.951   4.470 -12.937  1.00  0.00     0.132 C 
BRANCH  12  13
HETATM   13  N2  UNL     1      14.874   4.846 -12.045  1.00  0.00    -0.358 N 
HETATM   14  C8  UNL     1      14.905   4.462 -10.717  1.00  0.00     0.247 C 
HETATM   15  O3  UNL     1      15.761   3.705 -10.277  1.00  0.00    -0.271 OA
HETATM   16  H13 UNL     1      14.408   5.723 -12.265  1.00  0.00     0.162 HD
BRANCH  14  17
HETATM   17  C9  UNL     1      13.798   5.073  -9.844  1.00  0.00     0.219 C 
BRANCH  17  18
HETATM   18  C10 UNL     1      14.248   6.293  -8.998  1.00  0.00     0.009 C 
HETATM   19  C11 UNL     1      14.074   6.047  -7.492  1.00  0.00     0.020 C 
HETATM   20  C12 UNL     1      15.727   6.645  -9.254  1.00  0.00     0.020 C 
BRANCH  18  21
HETATM   21  C13 UNL     1      13.342   7.477  -9.442  1.00  0.00     0.192 C 
BRANCH  21  22
HETATM   22  O4  UNL     1      13.739   8.023 -10.683  1.00  0.00    -0.296 OA
BRANCH  22  23
HETATM   23  P1  UNL     1      13.720   9.597 -10.989  1.00  0.00     0.401 P 
HETATM   24  O5  UNL     1      12.608  10.337 -10.315  1.00  0.00    -0.631 OA
BRANCH  23  25
HETATM   25  O6  UNL     1      13.731   9.760 -12.591  1.00  0.00    -0.307 OA
HETATM   26  H23 UNL     1      14.511  10.239 -12.899  1.00  0.00     0.222 HD
ENDBRANCH  23  25
BRANCH  23  27
HETATM   27  O7  UNL     1      15.180  10.106 -10.616  1.00  0.00    -0.195 OA
BRANCH  27  28
HETATM   28  P2  UNL     1      15.783  11.356 -11.398  1.00  0.00     0.401 P 
HETATM   29  O8  UNL     1      16.325  11.100 -12.767  1.00  0.00    -0.631 OA
BRANCH  28  30
HETATM   30  O9  UNL     1      14.595  12.422 -11.358  1.00  0.00    -0.307 OA
HETATM   31  H24 UNL     1      14.836  13.279 -10.929  1.00  0.00     0.222 HD
ENDBRANCH  28  30
BRANCH  28  32
HETATM   32  O10 UNL     1      16.800  12.010 -10.356  1.00  0.00    -0.294 OA
BRANCH  32  33
HETATM   33  C14 UNL     1      18.183  11.833 -10.519  1.00  0.00     0.215 C 
BRANCH  33  34
HETATM   34  C15 UNL     1      18.712  11.340  -9.174  1.00  0.00     0.180 C 
HETATM   35  C16 UNL     1      18.635   9.820  -9.116  1.00  0.00     0.197 C 
HETATM   36  C17 UNL     1      17.684   9.526  -7.972  1.00  0.00     0.199 C 
HETATM   37  C18 UNL     1      17.822  10.781  -7.107  1.00  0.00     0.262 C 
HETATM   38  O11 UNL     1      17.975  11.856  -8.060  1.00  0.00    -0.353 OA
BRANCH  35  39
HETATM   39  O13 UNL     1      19.945   9.321  -8.866  1.00  0.00    -0.286 OA
BRANCH  39  40
HETATM   40  P3  UNL     1      20.469   8.213  -9.893  1.00  0.00     0.391 P 
HETATM   41  O14 UNL     1      21.574   7.365  -9.353  1.00  0.00    -0.632 OA
BRANCH  40  42
HETATM   42  O15 UNL     1      20.787   9.118 -11.173  1.00  0.00    -0.307 OA
HETATM   43  H36 UNL     1      20.120   8.964 -11.883  1.00  0.00     0.222 HD
ENDBRANCH  40  42
BRANCH  40  44
HETATM   44  O16 UNL     1      19.111   7.487 -10.292  1.00  0.00    -0.307 OA
HETATM   45  H37 UNL     1      19.252   6.596 -10.648  1.00  0.00     0.222 HD
ENDBRANCH  40  44
ENDBRANCH  39  40
ENDBRANCH  35  39
BRANCH  36  46
HETATM   46  O12 UNL     1      18.008   8.272  -7.366  1.00  0.00    -0.388 OA
HETATM   47  H35 UNL     1      18.931   8.060  -7.644  1.00  0.00     0.210 HD
ENDBRANCH  36  46
BRANCH  37  48
HETATM   48  N3  UNL     1      16.643  11.035  -6.302  1.00  0.00    -0.297 N 
HETATM   49  C19 UNL     1      16.496  10.819  -4.952  1.00  0.00     0.188 A 
HETATM   50  N4  UNL     1      15.348  11.271  -4.497  1.00  0.00    -0.346 N 
HETATM   51  C20 UNL     1      14.721  11.811  -5.606  1.00  0.00     0.116 A 
HETATM   52  H4  UNL     1      14.997  11.232  -3.540  1.00  0.00     0.167 HD
HETATM   53  C21 UNL     1      13.498  12.482  -5.778  1.00  0.00     0.109 A 
HETATM   54  C23 UNL     1      15.496  11.637  -6.739  1.00  0.00     0.142 A 
HETATM   55  N5  UNL     1      13.151  12.891  -7.022  1.00  0.00    -0.341 N 
HETATM   56  C22 UNL     1      13.997  12.631  -8.039  1.00  0.00     0.183 A 
HETATM   57  H5  UNL     1      12.273  13.384  -7.185  1.00  0.00     0.167 HD
HETATM   58  N6  UNL     1      15.192  12.008  -7.995  1.00  0.00    -0.336 N 
HETATM   59  H6  UNL     1      15.788  11.841  -8.807  1.00  0.00     0.168 HD
BRANCH  53  60
HETATM   60  N7  UNL     1      12.618  12.739  -4.738  1.00  0.00    -0.287 NA
HETATM   61  H33 UNL     1      11.768  12.179  -4.760  1.00  0.00     0.125 HD
HETATM   62  H34 UNL     1      12.508  13.726  -4.550  1.00  0.00     0.125 HD
ENDBRANCH  53  60
ENDBRANCH  37  48
ENDBRANCH  33  34
ENDBRANCH  32  33
ENDBRANCH  28  32
ENDBRANCH  27  28
ENDBRANCH  23  27
ENDBRANCH  22  23
ENDBRANCH  21  22
ENDBRANCH  18  21
ENDBRANCH  17  18
BRANCH  17  63
HETATM   63  O17 UNL     1      12.690   5.469 -10.659  1.00  0.00    -0.385 OA
HETATM   64  H38 UNL     1      12.905   5.259 -11.584  1.00  0.00     0.210 HD
ENDBRANCH  17  63
ENDBRANCH  14  17
ENDBRANCH  12  13
ENDBRANCH  11  12
ENDBRANCH   8  11
ENDBRANCH   6   7
ENDBRANCH   5   6
ENDBRANCH   4   5
ENDBRANCH   2   4
TORSDOF 27
ENDMDL
MODEL 12
REMARK VINA RESULT:      -5.0      2.867      4.557
REMARK  27 active torsions:
REMARK  status: ('A' for Active; 'I' for Inactive)
REMARK    1  A    between atoms: C2_2  and  S1_4 
REMARK    2  A    between atoms: S1_4  and  C3_5 
REMARK    3  A    between atoms: C3_5  and  C4_6 
REMARK    4  A    between atoms: C4_6  and  N1_7 
REMARK       I    between atoms: N1_7  and  C5_8 
REMARK    5  A    between atoms: C5_8  and  C6_10 
REMARK    6  A    between atoms: C6_10  and  C7_11 
REMARK    7  A    between atoms: C7_11  and  N2_12 
REMARK       I    between atoms: N2_12  and  C8_13 
REMARK    8  A    between atoms: C8_13  and  C9_15 
REMARK    9  A    between atoms: C9_15  and  C10_16 
REMARK   10  A    between atoms: C9_15  and  O17_54 
REMARK   11  A    between atoms: C10_16  and  C13_19 
REMARK   12  A    between atoms: C13_19  and  O4_20 
REMARK   13  A    between atoms: O4_20  and  P1_21 
REMARK   14  A    between atoms: P1_21  and  O6_23 
REMARK   15  A    between atoms: P1_21  and  O7_24 
REMARK   16  A    between atoms: O7_24  and  P2_25 
REMARK   17  A    between atoms: P2_25  and  O9_27 
REMARK   18  A    between atoms: P2_25  and  O10_28 
REMARK   19  A    between atoms: O10_28  and  C14_29 
REMARK   20  A    between atoms: C14_29  and  C15_30 
REMARK   21  A    between atoms: C16_31  and  O13_49 
REMARK   22  A    between atoms: C17_32  and  O12_48 
REMARK   23  A    between atoms: C18_33  and  N3_35 
REMARK   24  A    between atoms: C21_40  and  N7_47 
REMARK   25  A    between atoms: O13_49  and  P3_50 
REMARK   26  A    between atoms: P3_50  and  O15_52 
REMARK   27  A    between atoms: P3_50  and  O16_53 
ROOT
HETATM    1  C1  UNL     1       3.189   8.274  -8.071  1.00  0.00     0.104 C 
HETATM    2  C2  UNL     1       4.201   7.563  -8.916  1.00  0.00     0.182 C 
HETATM    3  O1  UNL     1       4.375   6.347  -8.879  1.00  0.00    -0.286 OA
ENDROOT
BRANCH   2   4
HETATM    4  S1  UNL     1       5.157   8.619  -9.946  1.00  0.00    -0.091 SA
BRANCH   4   5
HETATM    5  C3  UNL     1       6.539   9.003  -8.823  1.00  0.00     0.102 C 
BRANCH   5   6
HETATM    6  C4  UNL     1       6.460  10.434  -8.289  1.00  0.00     0.133 C 
BRANCH   6   7
HETATM    7  N1  UNL     1       7.723  11.137  -8.382  1.00  0.00    -0.360 N 
HETATM    8  C5  UNL     1       7.919  12.159  -9.280  1.00  0.00     0.219 C 
HETATM    9  O2  UNL     1       7.073  12.483 -10.106  1.00  0.00    -0.274 OA
HETATM   10  H8  UNL     1       8.475  10.868  -7.761  1.00  0.00     0.162 HD
BRANCH   8  11
HETATM   11  C6  UNL     1       9.288  12.795  -9.176  1.00  0.00     0.122 C 
BRANCH  11  12
HETATM   12  C7  UNL     1      10.361  11.957  -9.869  1.00  0.00     0.132 C 
BRANCH  12  13
HETATM   13  N2  UNL     1      11.479  11.638  -9.006  1.00  0.00    -0.358 N 
HETATM   14  C8  UNL     1      12.623  12.414  -9.031  1.00  0.00     0.247 C 
HETATM   15  O3  UNL     1      12.784  13.310  -9.850  1.00  0.00    -0.271 OA
HETATM   16  H13 UNL     1      11.236  11.194  -8.122  1.00  0.00     0.162 HD
BRANCH  14  17
HETATM   17  C9  UNL     1      13.655  12.076  -7.945  1.00  0.00     0.219 C 
BRANCH  17  18
HETATM   18  C10 UNL     1      13.617  13.012  -6.709  1.00  0.00     0.009 C 
HETATM   19  C11 UNL     1      13.959  14.465  -7.073  1.00  0.00     0.020 C 
HETATM   20  C12 UNL     1      12.230  13.005  -6.036  1.00  0.00     0.020 C 
BRANCH  18  21
HETATM   21  C13 UNL     1      14.682  12.457  -5.720  1.00  0.00     0.192 C 
BRANCH  21  22
HETATM   22  O4  UNL     1      15.895  12.126  -6.366  1.00  0.00    -0.296 OA
BRANCH  22  23
HETATM   23  P1  UNL     1      16.848  10.935  -5.871  1.00  0.00     0.401 P 
HETATM   24  O5  UNL     1      17.122  10.942  -4.400  1.00  0.00    -0.631 OA
BRANCH  23  25
HETATM   25  O6  UNL     1      18.176  10.994  -6.779  1.00  0.00    -0.307 OA
HETATM   26  H23 UNL     1      18.963  10.728  -6.286  1.00  0.00     0.222 HD
ENDBRANCH  23  25
BRANCH  23  27
HETATM   27  O7  UNL     1      16.162   9.607  -6.413  1.00  0.00    -0.195 OA
BRANCH  27  28
HETATM   28  P2  UNL     1      16.659   8.992  -7.796  1.00  0.00     0.401 P 
HETATM   29  O8  UNL     1      16.755   9.928  -8.957  1.00  0.00    -0.631 OA
BRANCH  28  30
HETATM   30  O9  UNL     1      18.040   8.291  -7.410  1.00  0.00    -0.307 OA
HETATM   31  H24 UNL     1      18.660   8.172  -8.172  1.00  0.00     0.222 HD
ENDBRANCH  28  30
BRANCH  28  32
HETATM   32  O10 UNL     1      15.728   7.712  -8.007  1.00  0.00    -0.294 OA
BRANCH  32  33
HETATM   33  C14 UNL     1      15.550   6.793  -6.961  1.00  0.00     0.215 C 
BRANCH  33  34
HETATM   34  C15 UNL     1      14.923   5.549  -7.588  1.00  0.00     0.180 C 
HETATM   35  C16 UNL     1      14.811   5.732  -9.096  1.00  0.00     0.197 C 
HETATM   36  C17 UNL     1      13.322   5.677  -9.380  1.00  0.00     0.199 C 
HETATM   37  C18 UNL     1      12.799   4.851  -8.202  1.00  0.00     0.262 C 
HETATM   38  O11 UNL     1      13.612   5.270  -7.084  1.00  0.00    -0.353 OA
BRANCH  35  39
HETATM   39  O13 UNL     1      15.517   4.667  -9.723  1.00  0.00    -0.286 OA
BRANCH  39  40
HETATM   40  P3  UNL     1      16.489   5.094 -10.919  1.00  0.00     0.391 P 
HETATM   41  O14 UNL     1      17.675   4.199 -11.081  1.00  0.00    -0.632 OA
BRANCH  40  42
HETATM   42  O15 UNL     1      16.762   6.627 -10.549  1.00  0.00    -0.307 OA
HETATM   43  H36 UNL     1      17.164   7.103 -11.314  1.00  0.00     0.222 HD
ENDBRANCH  40  42
BRANCH  40  44
HETATM   44  O16 UNL     1      15.468   5.192 -12.134  1.00  0.00    -0.307 OA
HETATM   45  H37 UNL     1      15.223   4.323 -12.491  1.00  0.00     0.222 HD
ENDBRANCH  40  44
ENDBRANCH  39  40
ENDBRANCH  35  39
BRANCH  36  46
HETATM   46  O12 UNL     1      13.087   5.167 -10.695  1.00  0.00    -0.388 OA
HETATM   47  H35 UNL     1      13.580   4.315 -10.755  1.00  0.00     0.210 HD
ENDBRANCH  36  46
BRANCH  37  48
HETATM   48  N3  UNL     1      11.410   5.131  -7.900  1.00  0.00    -0.297 N 
HETATM   49  C19 UNL     1      10.540   5.905  -8.631  1.00  0.00     0.188 A 
HETATM   50  N4  UNL     1       9.313   5.859  -8.159  1.00  0.00    -0.346 N 
HETATM   51  C20 UNL     1       9.390   5.008  -7.070  1.00  0.00     0.116 A 
HETATM   52  H4  UNL     1       8.488   6.342  -8.515  1.00  0.00     0.167 HD
HETATM   53  C21 UNL     1       8.425   4.517  -6.174  1.00  0.00     0.109 A 
HETATM   54  C23 UNL     1      10.691   4.581  -6.875  1.00  0.00     0.142 A 
HETATM   55  N5  UNL     1       8.825   3.686  -5.180  1.00  0.00    -0.341 N 
HETATM   56  C22 UNL     1      10.134   3.374  -5.098  1.00  0.00     0.183 A 
HETATM   57  H5  UNL     1       8.153   3.307  -4.513  1.00  0.00     0.167 HD
HETATM   58  N6  UNL     1      11.142   3.773  -5.899  1.00  0.00    -0.336 N 
HETATM   59  H6  UNL     1      12.118   3.498  -5.781  1.00  0.00     0.168 HD
BRANCH  53  60
HETATM   60  N7  UNL     1       7.081   4.847  -6.245  1.00  0.00    -0.287 NA
HETATM   61  H33 UNL     1       6.899   5.790  -6.581  1.00  0.00     0.125 HD
HETATM   62  H34 UNL     1       6.556   4.542  -5.437  1.00  0.00     0.125 HD
ENDBRANCH  53  60
ENDBRANCH  37  48
ENDBRANCH  33  34
ENDBRANCH  32  33
ENDBRANCH  28  32
ENDBRANCH  27  28
ENDBRANCH  23  27
ENDBRANCH  22  23
ENDBRANCH  21  22
ENDBRANCH  18  21
ENDBRANCH  17  18
BRANCH  17  63
HETATM   63  O17 UNL     1      13.477  10.727  -7.499  1.00  0.00    -0.385 OA
HETATM   64  H38 UNL     1      13.142  10.204  -8.246  1.00  0.00     0.210 HD
ENDBRANCH  17  63
ENDBRANCH  14  17
ENDBRANCH  12  13
ENDBRANCH  11  12
ENDBRANCH   8  11
ENDBRANCH   6   7
ENDBRANCH   5   6
ENDBRANCH   4   5
ENDBRANCH   2   4
TORSDOF 27
ENDMDL
MODEL 13
REMARK VINA RESULT:      -4.8      4.839      7.329
REMARK  27 active torsions:
REMARK  status: ('A' for Active; 'I' for Inactive)
REMARK    1  A    between atoms: C2_2  and  S1_4 
REMARK    2  A    between atoms: S1_4  and  C3_5 
REMARK    3  A    between atoms: C3_5  and  C4_6 
REMARK    4  A    between atoms: C4_6  and  N1_7 
REMARK       I    between atoms: N1_7  and  C5_8 
REMARK    5  A    between atoms: C5_8  and  C6_10 
REMARK    6  A    between atoms: C6_10  and  C7_11 
REMARK    7  A    between atoms: C7_11  and  N2_12 
REMARK       I    between atoms: N2_12  and  C8_13 
REMARK    8  A    between atoms: C8_13  and  C9_15 
REMARK    9  A    between atoms: C9_15  and  C10_16 
REMARK   10  A    between atoms: C9_15  and  O17_54 
REMARK   11  A    between atoms: C10_16  and  C13_19 
REMARK   12  A    between atoms: C13_19  and  O4_20 
REMARK   13  A    between atoms: O4_20  and  P1_21 
REMARK   14  A    between atoms: P1_21  and  O6_23 
REMARK   15  A    between atoms: P1_21  and  O7_24 
REMARK   16  A    between atoms: O7_24  and  P2_25 
REMARK   17  A    between atoms: P2_25  and  O9_27 
REMARK   18  A    between atoms: P2_25  and  O10_28 
REMARK   19  A    between atoms: O10_28  and  C14_29 
REMARK   20  A    between atoms: C14_29  and  C15_30 
REMARK   21  A    between atoms: C16_31  and  O13_49 
REMARK   22  A    between atoms: C17_32  and  O12_48 
REMARK   23  A    between atoms: C18_33  and  N3_35 
REMARK   24  A    between atoms: C21_40  and  N7_47 
REMARK   25  A    between atoms: O13_49  and  P3_50 
REMARK   26  A    between atoms: P3_50  and  O15_52 
REMARK   27  A    between atoms: P3_50  and  O16_53 
ROOT
HETATM    1  C1  UNL     1      10.173   4.824  -6.655  1.00  0.00     0.104 C 
HETATM    2  C2  UNL     1      10.812   4.073  -7.783  1.00  0.00     0.182 C 
HETATM    3  O1  UNL     1      10.200   3.714  -8.786  1.00  0.00    -0.286 OA
ENDROOT
BRANCH   2   4
HETATM    4  S1  UNL     1      12.514   3.708  -7.539  1.00  0.00    -0.091 SA
BRANCH   4   5
HETATM    5  C3  UNL     1      13.045   5.214  -6.660  1.00  0.00     0.102 C 
BRANCH   5   6
HETATM    6  C4  UNL     1      14.570   5.329  -6.597  1.00  0.00     0.133 C 
BRANCH   6   7
HETATM    7  N1  UNL     1      15.040   6.674  -6.858  1.00  0.00    -0.360 N 
HETATM    8  C5  UNL     1      15.987   7.277  -6.064  1.00  0.00     0.219 C 
HETATM    9  O2  UNL     1      16.428   6.751  -5.048  1.00  0.00    -0.274 OA
HETATM   10  H8  UNL     1      14.664   7.176  -7.652  1.00  0.00     0.162 HD
BRANCH   8  11
HETATM   11  C6  UNL     1      16.379   8.659  -6.542  1.00  0.00     0.122 C 
BRANCH  11  12
HETATM   12  C7  UNL     1      17.624   8.624  -7.427  1.00  0.00     0.132 C 
BRANCH  12  13
HETATM   13  N2  UNL     1      17.374   9.081  -8.777  1.00  0.00    -0.358 N 
HETATM   14  C8  UNL     1      18.266   9.932  -9.402  1.00  0.00     0.247 C 
HETATM   15  O3  UNL     1      19.222  10.421  -8.813  1.00  0.00    -0.271 OA
HETATM   16  H13 UNL     1      16.855   8.435  -9.369  1.00  0.00     0.162 HD
BRANCH  14  17
HETATM   17  C9  UNL     1      17.974  10.195 -10.887  1.00  0.00     0.219 C 
BRANCH  17  18
HETATM   18  C10 UNL     1      17.016  11.387 -11.152  1.00  0.00     0.009 C 
HETATM   19  C11 UNL     1      16.891  12.311  -9.932  1.00  0.00     0.020 C 
HETATM   20  C12 UNL     1      17.492  12.238 -12.347  1.00  0.00     0.020 C 
BRANCH  18  21
HETATM   21  C13 UNL     1      15.631  10.757 -11.475  1.00  0.00     0.192 C 
BRANCH  21  22
HETATM   22  O4  UNL     1      14.876  10.492 -10.311  1.00  0.00    -0.296 OA
BRANCH  22  23
HETATM   23  P1  UNL     1      13.883   9.239 -10.183  1.00  0.00     0.401 P 
HETATM   24  O5  UNL     1      12.458   9.551 -10.516  1.00  0.00    -0.631 OA
BRANCH  23  25
HETATM   25  O6  UNL     1      14.087   8.632  -8.706  1.00  0.00    -0.307 OA
HETATM   26  H23 UNL     1      14.186   7.671  -8.721  1.00  0.00     0.222 HD
ENDBRANCH  23  25
BRANCH  23  27
HETATM   27  O7  UNL     1      14.541   8.101 -11.079  1.00  0.00    -0.195 OA
BRANCH  27  28
HETATM   28  P2  UNL     1      14.522   6.598 -10.551  1.00  0.00     0.401 P 
HETATM   29  O8  UNL     1      13.382   6.205  -9.669  1.00  0.00    -0.631 OA
BRANCH  28  30
HETATM   30  O9  UNL     1      14.637   5.737 -11.890  1.00  0.00    -0.307 OA
HETATM   31  H24 UNL     1      13.829   5.768 -12.460  1.00  0.00     0.222 HD
ENDBRANCH  28  30
BRANCH  28  32
HETATM   32  O10 UNL     1      15.982   6.386  -9.939  1.00  0.00    -0.294 OA
BRANCH  32  33
HETATM   33  C14 UNL     1      17.116   6.693 -10.707  1.00  0.00     0.215 C 
BRANCH  33  34
HETATM   34  C15 UNL     1      18.002   5.449 -10.676  1.00  0.00     0.180 C 
HETATM   35  C16 UNL     1      19.149   5.608 -11.665  1.00  0.00     0.197 C 
HETATM   36  C17 UNL     1      18.947   4.491 -12.672  1.00  0.00     0.199 C 
HETATM   37  C18 UNL     1      18.166   3.459 -11.855  1.00  0.00     0.262 C 
HETATM   38  O11 UNL     1      17.295   4.251 -11.018  1.00  0.00    -0.353 OA
BRANCH  35  39
HETATM   39  O13 UNL     1      20.372   5.471 -10.949  1.00  0.00    -0.286 OA
BRANCH  39  40
HETATM   40  P3  UNL     1      21.402   6.683 -11.106  1.00  0.00     0.391 P 
HETATM   41  O14 UNL     1      20.788   8.028 -10.888  1.00  0.00    -0.632 OA
BRANCH  40  42
HETATM   42  O15 UNL     1      22.011   6.373 -12.553  1.00  0.00    -0.307 OA
HETATM   43  H36 UNL     1      21.810   7.108 -13.180  1.00  0.00     0.222 HD
ENDBRANCH  40  42
BRANCH  40  44
HETATM   44  O16 UNL     1      22.567   6.237 -10.120  1.00  0.00    -0.307 OA
HETATM   45  H37 UNL     1      22.557   5.285  -9.932  1.00  0.00     0.222 HD
ENDBRANCH  40  44
ENDBRANCH  39  40
ENDBRANCH  35  39
BRANCH  36  46
HETATM   46  O12 UNL     1      20.204   4.082 -13.217  1.00  0.00    -0.388 OA
HETATM   47  H35 UNL     1      20.106   3.131 -13.459  1.00  0.00     0.210 HD
ENDBRANCH  36  46
BRANCH  37  48
HETATM   48  N3  UNL     1      17.354   2.592 -12.685  1.00  0.00    -0.297 N 
HETATM   49  C19 UNL     1      16.184   2.918 -13.332  1.00  0.00     0.188 A 
HETATM   50  N4  UNL     1      15.757   1.947 -14.109  1.00  0.00    -0.346 N 
HETATM   51  C20 UNL     1      16.698   0.943 -13.962  1.00  0.00     0.116 A 
HETATM   52  H4  UNL     1      14.919   1.935 -14.689  1.00  0.00     0.167 HD
HETATM   53  C21 UNL     1      16.838  -0.325 -14.552  1.00  0.00     0.109 A 
HETATM   54  C23 UNL     1      17.672   1.315 -13.053  1.00  0.00     0.142 A 
HETATM   55  N5  UNL     1      17.889  -1.099 -14.185  1.00  0.00    -0.341 N 
HETATM   56  C22 UNL     1      18.749  -0.614 -13.267  1.00  0.00     0.183 A 
HETATM   57  H5  UNL     1      18.026  -2.024 -14.594  1.00  0.00     0.167 HD
HETATM   58  N6  UNL     1      18.722   0.581 -12.644  1.00  0.00    -0.336 N 
HETATM   59  H6  UNL     1      19.408   0.889 -11.954  1.00  0.00     0.168 HD
BRANCH  53  60
HETATM   60  N7  UNL     1      15.949  -0.834 -15.485  1.00  0.00    -0.287 NA
HETATM   61  H33 UNL     1      15.578  -1.753 -15.253  1.00  0.00     0.125 HD
HETATM   62  H34 UNL     1      16.256  -0.695 -16.439  1.00  0.00     0.125 HD
ENDBRANCH  53  60
ENDBRANCH  37  48
ENDBRANCH  33  34
ENDBRANCH  32  33
ENDBRANCH  28  32
ENDBRANCH  27  28
ENDBRANCH  23  27
ENDBRANCH  22  23
ENDBRANCH  21  22
ENDBRANCH  18  21
ENDBRANCH  17  18
BRANCH  17  63
HETATM   63  O17 UNL     1      19.196  10.427 -11.596  1.00  0.00    -0.385 OA
HETATM   64  H38 UNL     1      19.860  10.740 -10.959  1.00  0.00     0.210 HD
ENDBRANCH  17  63
ENDBRANCH  14  17
ENDBRANCH  12  13
ENDBRANCH  11  12
ENDBRANCH   8  11
ENDBRANCH   6   7
ENDBRANCH   5   6
ENDBRANCH   4   5
ENDBRANCH   2   4
TORSDOF 27
ENDMDL
MODEL 14
REMARK VINA RESULT:      -4.8      3.443      7.032
REMARK  27 active torsions:
REMARK  status: ('A' for Active; 'I' for Inactive)
REMARK    1  A    between atoms: C2_2  and  S1_4 
REMARK    2  A    between atoms: S1_4  and  C3_5 
REMARK    3  A    between atoms: C3_5  and  C4_6 
REMARK    4  A    between atoms: C4_6  and  N1_7 
REMARK       I    between atoms: N1_7  and  C5_8 
REMARK    5  A    between atoms: C5_8  and  C6_10 
REMARK    6  A    between atoms: C6_10  and  C7_11 
REMARK    7  A    between atoms: C7_11  and  N2_12 
REMARK       I    between atoms: N2_12  and  C8_13 
REMARK    8  A    between atoms: C8_13  and  C9_15 
REMARK    9  A    between atoms: C9_15  and  C10_16 
REMARK   10  A    between atoms: C9_15  and  O17_54 
REMARK   11  A    between atoms: C10_16  and  C13_19 
REMARK   12  A    between atoms: C13_19  and  O4_20 
REMARK   13  A    between atoms: O4_20  and  P1_21 
REMARK   14  A    between atoms: P1_21  and  O6_23 
REMARK   15  A    between atoms: P1_21  and  O7_24 
REMARK   16  A    between atoms: O7_24  and  P2_25 
REMARK   17  A    between atoms: P2_25  and  O9_27 
REMARK   18  A    between atoms: P2_25  and  O10_28 
REMARK   19  A    between atoms: O10_28  and  C14_29 
REMARK   20  A    between atoms: C14_29  and  C15_30 
REMARK   21  A    between atoms: C16_31  and  O13_49 
REMARK   22  A    between atoms: C17_32  and  O12_48 
REMARK   23  A    between atoms: C18_33  and  N3_35 
REMARK   24  A    between atoms: C21_40  and  N7_47 
REMARK   25  A    between atoms: O13_49  and  P3_50 
REMARK   26  A    between atoms: P3_50  and  O15_52 
REMARK   27  A    between atoms: P3_50  and  O16_53 
ROOT
HETATM    1  C1  UNL     1       8.562   5.551  -5.803  1.00  0.00     0.104 C 
HETATM    2  C2  UNL     1       8.637   4.453  -6.820  1.00  0.00     0.182 C 
HETATM    3  O1  UNL     1       7.778   3.583  -6.938  1.00  0.00    -0.286 OA
ENDROOT
BRANCH   2   4
HETATM    4  S1  UNL     1      10.087   4.484  -7.815  1.00  0.00    -0.091 SA
BRANCH   4   5
HETATM    5  C3  UNL     1      11.369   4.460  -6.520  1.00  0.00     0.102 C 
BRANCH   5   6
HETATM    6  C4  UNL     1      12.779   4.470  -7.113  1.00  0.00     0.133 C 
BRANCH   6   7
HETATM    7  N1  UNL     1      13.428   5.759  -6.992  1.00  0.00    -0.360 N 
HETATM    8  C5  UNL     1      14.797   5.876  -6.924  1.00  0.00     0.219 C 
HETATM    9  O2  UNL     1      15.542   4.904  -6.880  1.00  0.00    -0.274 OA
HETATM   10  H8  UNL     1      12.855   6.591  -6.964  1.00  0.00     0.162 HD
BRANCH   8  11
HETATM   11  C6  UNL     1      15.272   7.312  -6.856  1.00  0.00     0.122 C 
BRANCH  11  12
HETATM   12  C7  UNL     1      16.786   7.403  -6.666  1.00  0.00     0.132 C 
BRANCH  12  13
HETATM   13  N2  UNL     1      17.217   8.686  -6.153  1.00  0.00    -0.358 N 
HETATM   14  C8  UNL     1      17.513   9.721  -7.022  1.00  0.00     0.247 C 
HETATM   15  O3  UNL     1      17.538   9.564  -8.236  1.00  0.00    -0.271 OA
HETATM   16  H13 UNL     1      16.850   8.938  -5.238  1.00  0.00     0.162 HD
BRANCH  14  17
HETATM   17  C9  UNL     1      17.784  11.073  -6.345  1.00  0.00     0.219 C 
BRANCH  17  18
HETATM   18  C10 UNL     1      19.287  11.403  -6.148  1.00  0.00     0.009 C 
HETATM   19  C11 UNL     1      19.505  12.854  -5.693  1.00  0.00     0.020 C 
HETATM   20  C12 UNL     1      19.937  10.474  -5.103  1.00  0.00     0.020 C 
BRANCH  18  21
HETATM   21  C13 UNL     1      19.957  11.184  -7.535  1.00  0.00     0.192 C 
BRANCH  21  22
HETATM   22  O4  UNL     1      19.848  12.318  -8.371  1.00  0.00    -0.296 OA
BRANCH  22  23
HETATM   23  P1  UNL     1      19.440  12.223  -9.919  1.00  0.00     0.401 P 
HETATM   24  O5  UNL     1      19.992  11.025 -10.624  1.00  0.00    -0.631 OA
BRANCH  23  25
HETATM   25  O6  UNL     1      19.855  13.623 -10.596  1.00  0.00    -0.307 OA
HETATM   26  H23 UNL     1      20.667  13.549 -11.113  1.00  0.00     0.222 HD
ENDBRANCH  23  25
BRANCH  23  27
HETATM   27  O7  UNL     1      17.853  12.331  -9.933  1.00  0.00    -0.195 OA
BRANCH  27  28
HETATM   28  P2  UNL     1      17.064  11.898 -11.248  1.00  0.00     0.401 P 
HETATM   29  O8  UNL     1      17.445  12.579 -12.521  1.00  0.00    -0.631 OA
BRANCH  28  30
HETATM   30  O9  UNL     1      17.245  10.311 -11.278  1.00  0.00    -0.307 OA
HETATM   31  H24 UNL     1      16.448   9.820 -11.594  1.00  0.00     0.222 HD
ENDBRANCH  28  30
BRANCH  28  32
HETATM   32  O10 UNL     1      15.527  12.010 -10.829  1.00  0.00    -0.294 OA
BRANCH  32  33
HETATM   33  C14 UNL     1      15.021  11.212  -9.791  1.00  0.00     0.215 C 
BRANCH  33  34
HETATM   34  C15 UNL     1      13.939  10.333 -10.416  1.00  0.00     0.180 C 
HETATM   35  C16 UNL     1      12.857  10.038  -9.386  1.00  0.00     0.197 C 
HETATM   36  C17 UNL     1      12.890   8.531  -9.215  1.00  0.00     0.199 C 
HETATM   37  C18 UNL     1      13.469   8.067 -10.554  1.00  0.00     0.262 C 
HETATM   38  O11 UNL     1      14.442   9.080 -10.892  1.00  0.00    -0.353 OA
BRANCH  35  39
HETATM   39  O13 UNL     1      11.613  10.491  -9.910  1.00  0.00    -0.286 OA
BRANCH  39  40
HETATM   40  P3  UNL     1      10.731  11.382  -8.918  1.00  0.00     0.391 P 
HETATM   41  O14 UNL     1      11.524  12.052  -7.843  1.00  0.00    -0.632 OA
BRANCH  40  42
HETATM   42  O15 UNL     1       9.623  10.319  -8.467  1.00  0.00    -0.307 OA
HETATM   43  H36 UNL     1       8.947  10.745  -7.887  1.00  0.00     0.222 HD
ENDBRANCH  40  42
BRANCH  40  44
HETATM   44  O16 UNL     1       9.945  12.310  -9.942  1.00  0.00    -0.307 OA
HETATM   45  H37 UNL     1      10.224  12.176 -10.862  1.00  0.00     0.222 HD
ENDBRANCH  40  44
ENDBRANCH  39  40
ENDBRANCH  35  39
BRANCH  36  46
HETATM   46  O12 UNL     1      11.595   8.044  -8.855  1.00  0.00    -0.388 OA
HETATM   47  H35 UNL     1      11.503   7.157  -9.280  1.00  0.00     0.210 HD
ENDBRANCH  36  46
BRANCH  37  48
HETATM   48  N3  UNL     1      14.143   6.788 -10.455  1.00  0.00    -0.297 N 
HETATM   49  C19 UNL     1      13.565   5.540 -10.489  1.00  0.00     0.188 A 
HETATM   50  N4  UNL     1      14.461   4.576 -10.504  1.00  0.00    -0.346 N 
HETATM   51  C20 UNL     1      15.679   5.233 -10.485  1.00  0.00     0.116 A 
HETATM   52  H4  UNL     1      14.295   3.570 -10.526  1.00  0.00     0.167 HD
HETATM   53  C21 UNL     1      17.008   4.776 -10.529  1.00  0.00     0.109 A 
HETATM   54  C23 UNL     1      15.496   6.602 -10.415  1.00  0.00     0.142 A 
HETATM   55  N5  UNL     1      18.009   5.688 -10.482  1.00  0.00    -0.341 N 
HETATM   56  C22 UNL     1      17.681   6.992 -10.390  1.00  0.00     0.183 A 
HETATM   57  H5  UNL     1      18.986   5.395 -10.515  1.00  0.00     0.167 HD
HETATM   58  N6  UNL     1      16.452   7.546 -10.350  1.00  0.00    -0.336 N 
HETATM   59  H6  UNL     1      16.270   8.547 -10.279  1.00  0.00     0.168 HD
BRANCH  53  60
HETATM   60  N7  UNL     1      17.351   3.436 -10.608  1.00  0.00    -0.287 NA
HETATM   61  H33 UNL     1      16.635   2.799 -10.265  1.00  0.00     0.125 HD
HETATM   62  H34 UNL     1      18.301   3.254 -10.314  1.00  0.00     0.125 HD
ENDBRANCH  53  60
ENDBRANCH  37  48
ENDBRANCH  33  34
ENDBRANCH  32  33
ENDBRANCH  28  32
ENDBRANCH  27  28
ENDBRANCH  23  27
ENDBRANCH  22  23
ENDBRANCH  21  22
ENDBRANCH  18  21
ENDBRANCH  17  18
BRANCH  17  63
HETATM   63  O17 UNL     1      17.181  12.130  -7.099  1.00  0.00    -0.385 OA
HETATM   64  H38 UNL     1      17.857  12.504  -7.688  1.00  0.00     0.210 HD
ENDBRANCH  17  63
ENDBRANCH  14  17
ENDBRANCH  12  13
ENDBRANCH  11  12
ENDBRANCH   8  11
ENDBRANCH   6   7
ENDBRANCH   5   6
ENDBRANCH   4   5
ENDBRANCH   2   4
TORSDOF 27
ENDMDL
MODEL 15
REMARK VINA RESULT:      -4.7      4.409      7.659
REMARK  27 active torsions:
REMARK  status: ('A' for Active; 'I' for Inactive)
REMARK    1  A    between atoms: C2_2  and  S1_4 
REMARK    2  A    between atoms: S1_4  and  C3_5 
REMARK    3  A    between atoms: C3_5  and  C4_6 
REMARK    4  A    between atoms: C4_6  and  N1_7 
REMARK       I    between atoms: N1_7  and  C5_8 
REMARK    5  A    between atoms: C5_8  and  C6_10 
REMARK    6  A    between atoms: C6_10  and  C7_11 
REMARK    7  A    between atoms: C7_11  and  N2_12 
REMARK       I    between atoms: N2_12  and  C8_13 
REMARK    8  A    between atoms: C8_13  and  C9_15 
REMARK    9  A    between atoms: C9_15  and  C10_16 
REMARK   10  A    between atoms: C9_15  and  O17_54 
REMARK   11  A    between atoms: C10_16  and  C13_19 
REMARK   12  A    between atoms: C13_19  and  O4_20 
REMARK   13  A    between atoms: O4_20  and  P1_21 
REMARK   14  A    between atoms: P1_21  and  O6_23 
REMARK   15  A    between atoms: P1_21  and  O7_24 
REMARK   16  A    between atoms: O7_24  and  P2_25 
REMARK   17  A    between atoms: P2_25  and  O9_27 
REMARK   18  A    between atoms: P2_25  and  O10_28 
REMARK   19  A    between atoms: O10_28  and  C14_29 
REMARK   20  A    between atoms: C14_29  and  C15_30 
REMARK   21  A    between atoms: C16_31  and  O13_49 
REMARK   22  A    between atoms: C17_32  and  O12_48 
REMARK   23  A    between atoms: C18_33  and  N3_35 
REMARK   24  A    between atoms: C21_40  and  N7_47 
REMARK   25  A    between atoms: O13_49  and  P3_50 
REMARK   26  A    between atoms: P3_50  and  O15_52 
REMARK   27  A    between atoms: P3_50  and  O16_53 
ROOT
HETATM    1  C1  UNL     1       2.929   4.827  -3.151  1.00  0.00     0.104 C 
HETATM    2  C2  UNL     1       2.096   5.292  -4.306  1.00  0.00     0.182 C 
HETATM    3  O1  UNL     1       0.899   5.552  -4.213  1.00  0.00    -0.286 OA
ENDROOT
BRANCH   2   4
HETATM    4  S1  UNL     1       2.967   5.400  -5.830  1.00  0.00    -0.091 SA
BRANCH   4   5
HETATM    5  C3  UNL     1       2.207   6.901  -6.531  1.00  0.00     0.102 C 
BRANCH   5   6
HETATM    6  C4  UNL     1       2.330   6.943  -8.056  1.00  0.00     0.133 C 
BRANCH   6   7
HETATM    7  N1  UNL     1       3.256   7.959  -8.514  1.00  0.00    -0.360 N 
HETATM    8  C5  UNL     1       4.468   7.633  -9.076  1.00  0.00     0.219 C 
HETATM    9  O2  UNL     1       4.872   6.478  -9.150  1.00  0.00    -0.274 OA
HETATM   10  H8  UNL     1       2.995   8.932  -8.422  1.00  0.00     0.162 HD
BRANCH   8  11
HETATM   11  C6  UNL     1       5.258   8.838  -9.537  1.00  0.00     0.122 C 
BRANCH  11  12
HETATM   12  C7  UNL     1       6.204   9.351  -8.451  1.00  0.00     0.132 C 
BRANCH  12  13
HETATM   13  N2  UNL     1       6.446  10.776  -8.536  1.00  0.00    -0.358 N 
HETATM   14  C8  UNL     1       7.724  11.253  -8.760  1.00  0.00     0.247 C 
HETATM   15  O3  UNL     1       8.702  10.516  -8.775  1.00  0.00    -0.271 OA
HETATM   16  H13 UNL     1       5.672  11.331  -8.896  1.00  0.00     0.162 HD
BRANCH  14  17
HETATM   17  C9  UNL     1       7.813  12.767  -9.004  1.00  0.00     0.219 C 
BRANCH  17  18
HETATM   18  C10 UNL     1       7.779  13.179 -10.499  1.00  0.00     0.009 C 
HETATM   19  C11 UNL     1       7.429  11.999 -11.417  1.00  0.00     0.020 C 
HETATM   20  C12 UNL     1       6.750  14.300 -10.753  1.00  0.00     0.020 C 
BRANCH  18  21
HETATM   21  C13 UNL     1       9.209  13.694 -10.833  1.00  0.00     0.192 C 
BRANCH  21  22
HETATM   22  O4  UNL     1      10.194  12.696 -10.661  1.00  0.00    -0.296 OA
BRANCH  22  23
HETATM   23  P1  UNL     1      11.764  12.987 -10.808  1.00  0.00     0.401 P 
HETATM   24  O5  UNL     1      12.348  13.777  -9.680  1.00  0.00    -0.631 OA
BRANCH  23  25
HETATM   25  O6  UNL     1      11.978  13.663 -12.254  1.00  0.00    -0.307 OA
HETATM   26  H23 UNL     1      12.859  13.489 -12.608  1.00  0.00     0.222 HD
ENDBRANCH  23  25
BRANCH  23  27
HETATM   27  O7  UNL     1      12.427  11.559 -11.034  1.00  0.00    -0.195 OA
BRANCH  27  28
HETATM   28  P2  UNL     1      12.827  10.686  -9.763  1.00  0.00     0.401 P 
HETATM   29  O8  UNL     1      14.114  11.026  -9.086  1.00  0.00    -0.631 OA
BRANCH  28  30
HETATM   30  O9  UNL     1      11.544  10.803  -8.820  1.00  0.00    -0.307 OA
HETATM   31  H24 UNL     1      11.353  11.723  -8.510  1.00  0.00     0.222 HD
ENDBRANCH  28  30
BRANCH  28  32
HETATM   32  O10 UNL     1      12.682   9.178 -10.269  1.00  0.00    -0.294 OA
BRANCH  32  33
HETATM   33  C14 UNL     1      13.828   8.412 -10.530  1.00  0.00     0.215 C 
BRANCH  33  34
HETATM   34  C15 UNL     1      13.971   7.443  -9.357  1.00  0.00     0.180 C 
HETATM   35  C16 UNL     1      14.162   6.025  -9.880  1.00  0.00     0.197 C 
HETATM   36  C17 UNL     1      12.961   5.259  -9.360  1.00  0.00     0.199 C 
HETATM   37  C18 UNL     1      12.574   6.067  -8.119  1.00  0.00     0.262 C 
HETATM   38  O11 UNL     1      12.828   7.439  -8.494  1.00  0.00    -0.353 OA
BRANCH  35  39
HETATM   39  O13 UNL     1      15.387   5.524  -9.356  1.00  0.00    -0.286 OA
BRANCH  39  40
HETATM   40  P3  UNL     1      16.539   5.257 -10.432  1.00  0.00     0.391 P 
HETATM   41  O14 UNL     1      17.640   6.268 -10.399  1.00  0.00    -0.632 OA
BRANCH  40  42
HETATM   42  O15 UNL     1      15.676   5.146 -11.774  1.00  0.00    -0.307 OA
HETATM   43  H36 UNL     1      15.010   4.421 -11.701  1.00  0.00     0.222 HD
ENDBRANCH  40  42
BRANCH  40  44
HETATM   44  O16 UNL     1      16.919   3.745 -10.119  1.00  0.00    -0.307 OA
HETATM   45  H37 UNL     1      17.315   3.630  -9.240  1.00  0.00     0.222 HD
ENDBRANCH  40  44
ENDBRANCH  39  40
ENDBRANCH  35  39
BRANCH  36  46
HETATM   46  O12 UNL     1      13.296   3.882  -9.169  1.00  0.00    -0.388 OA
HETATM   47  H35 UNL     1      13.676   3.567 -10.024  1.00  0.00     0.210 HD
ENDBRANCH  36  46
BRANCH  37  48
HETATM   48  N3  UNL     1      11.172   5.929  -7.779  1.00  0.00    -0.297 N 
HETATM   49  C19 UNL     1      10.111   6.599  -8.341  1.00  0.00     0.188 A 
HETATM   50  N4  UNL     1       8.953   6.156  -7.902  1.00  0.00    -0.346 N 
HETATM   51  C20 UNL     1       9.279   5.145  -7.016  1.00  0.00     0.116 A 
HETATM   52  H4  UNL     1       8.022   6.484  -8.157  1.00  0.00     0.167 HD
HETATM   53  C21 UNL     1       8.500   4.258  -6.252  1.00  0.00     0.109 A 
HETATM   54  C23 UNL     1      10.652   5.020  -6.901  1.00  0.00     0.142 A 
HETATM   55  N5  UNL     1       9.131   3.365  -5.451  1.00  0.00    -0.341 N 
HETATM   56  C22 UNL     1      10.478   3.373  -5.423  1.00  0.00     0.183 A 
HETATM   57  H5  UNL     1       8.599   2.703  -4.886  1.00  0.00     0.167 HD
HETATM   58  N6  UNL     1      11.326   4.164  -6.112  1.00  0.00    -0.336 N 
HETATM   59  H6  UNL     1      12.343   4.120  -6.044  1.00  0.00     0.168 HD
BRANCH  53  60
HETATM   60  N7  UNL     1       7.114   4.255  -6.267  1.00  0.00    -0.287 NA
HETATM   61  H33 UNL     1       6.697   5.115  -6.617  1.00  0.00     0.125 HD
HETATM   62  H34 UNL     1       6.712   3.863  -5.427  1.00  0.00     0.125 HD
ENDBRANCH  53  60
ENDBRANCH  37  48
ENDBRANCH  33  34
ENDBRANCH  32  33
ENDBRANCH  28  32
ENDBRANCH  27  28
ENDBRANCH  23  27
ENDBRANCH  22  23
ENDBRANCH  21  22
ENDBRANCH  18  21
ENDBRANCH  17  18
BRANCH  17  63
HETATM   63  O17 UNL     1       6.749  13.440  -8.323  1.00  0.00    -0.385 OA
HETATM   64  H38 UNL     1       6.363  12.821  -7.680  1.00  0.00     0.210 HD
ENDBRANCH  17  63
ENDBRANCH  14  17
ENDBRANCH  12  13
ENDBRANCH  11  12
ENDBRANCH   8  11
ENDBRANCH   6   7
ENDBRANCH   5   6
ENDBRANCH   4   5
ENDBRANCH   2   4
TORSDOF 27
ENDMDL
MODEL 16
REMARK VINA RESULT:      -4.6      2.967      5.414
REMARK  27 active torsions:
REMARK  status: ('A' for Active; 'I' for Inactive)
REMARK    1  A    between atoms: C2_2  and  S1_4 
REMARK    2  A    between atoms: S1_4  and  C3_5 
REMARK    3  A    between atoms: C3_5  and  C4_6 
REMARK    4  A    between atoms: C4_6  and  N1_7 
REMARK       I    between atoms: N1_7  and  C5_8 
REMARK    5  A    between atoms: C5_8  and  C6_10 
REMARK    6  A    between atoms: C6_10  and  C7_11 
REMARK    7  A    between atoms: C7_11  and  N2_12 
REMARK       I    between atoms: N2_12  and  C8_13 
REMARK    8  A    between atoms: C8_13  and  C9_15 
REMARK    9  A    between atoms: C9_15  and  C10_16 
REMARK   10  A    between atoms: C9_15  and  O17_54 
REMARK   11  A    between atoms: C10_16  and  C13_19 
REMARK   12  A    between atoms: C13_19  and  O4_20 
REMARK   13  A    between atoms: O4_20  and  P1_21 
REMARK   14  A    between atoms: P1_21  and  O6_23 
REMARK   15  A    between atoms: P1_21  and  O7_24 
REMARK   16  A    between atoms: O7_24  and  P2_25 
REMARK   17  A    between atoms: P2_25  and  O9_27 
REMARK   18  A    between atoms: P2_25  and  O10_28 
REMARK   19  A    between atoms: O10_28  and  C14_29 
REMARK   20  A    between atoms: C14_29  and  C15_30 
REMARK   21  A    between atoms: C16_31  and  O13_49 
REMARK   22  A    between atoms: C17_32  and  O12_48 
REMARK   23  A    between atoms: C18_33  and  N3_35 
REMARK   24  A    between atoms: C21_40  and  N7_47 
REMARK   25  A    between atoms: O13_49  and  P3_50 
REMARK   26  A    between atoms: P3_50  and  O15_52 
REMARK   27  A    between atoms: P3_50  and  O16_53 
ROOT
HETATM    1  C1  UNL     1      12.345  14.151  -0.354  1.00  0.00     0.104 C 
HETATM    2  C2  UNL     1      13.432  14.225  -1.381  1.00  0.00     0.182 C 
HETATM    3  O1  UNL     1      14.497  13.620  -1.281  1.00  0.00    -0.286 OA
ENDROOT
BRANCH   2   4
HETATM    4  S1  UNL     1      13.078  15.288  -2.736  1.00  0.00    -0.091 SA
BRANCH   4   5
HETATM    5  C3  UNL     1      11.272  15.449  -2.558  1.00  0.00     0.102 C 
BRANCH   5   6
HETATM    6  C4  UNL     1      10.521  14.535  -3.528  1.00  0.00     0.133 C 
BRANCH   6   7
HETATM    7  N1  UNL     1      11.350  14.082  -4.626  1.00  0.00    -0.360 N 
HETATM    8  C5  UNL     1      11.185  14.563  -5.904  1.00  0.00     0.219 C 
HETATM    9  O2  UNL     1      10.283  15.336  -6.208  1.00  0.00    -0.274 OA
HETATM   10  H8  UNL     1      12.072  13.399  -4.440  1.00  0.00     0.162 HD
BRANCH   8  11
HETATM   11  C6  UNL     1      12.188  14.002  -6.889  1.00  0.00     0.122 C 
BRANCH  11  12
HETATM   12  C7  UNL     1      12.511  12.536  -6.603  1.00  0.00     0.132 C 
BRANCH  12  13
HETATM   13  N2  UNL     1      13.923  12.296  -6.398  1.00  0.00    -0.358 N 
HETATM   14  C8  UNL     1      14.400  11.974  -5.141  1.00  0.00     0.247 C 
HETATM   15  O3  UNL     1      13.684  11.995  -4.147  1.00  0.00    -0.271 OA
HETATM   16  H13 UNL     1      14.423  11.912  -7.198  1.00  0.00     0.162 HD
BRANCH  14  17
HETATM   17  C9  UNL     1      15.882  11.571  -5.097  1.00  0.00     0.219 C 
BRANCH  17  18
HETATM   18  C10 UNL     1      16.825  12.655  -4.512  1.00  0.00     0.009 C 
HETATM   19  C11 UNL     1      16.185  14.051  -4.532  1.00  0.00     0.020 C 
HETATM   20  C12 UNL     1      17.220  12.335  -3.056  1.00  0.00     0.020 C 
BRANCH  18  21
HETATM   21  C13 UNL     1      18.093  12.648  -5.413  1.00  0.00     0.192 C 
BRANCH  21  22
HETATM   22  O4  UNL     1      17.802  12.291  -6.749  1.00  0.00    -0.296 OA
BRANCH  22  23
HETATM   23  P1  UNL     1      17.563  13.374  -7.907  1.00  0.00     0.401 P 
HETATM   24  O5  UNL     1      18.140  14.723  -7.612  1.00  0.00    -0.631 OA
BRANCH  23  25
HETATM   25  O6  UNL     1      15.980  13.396  -8.203  1.00  0.00    -0.307 OA
HETATM   26  H23 UNL     1      15.671  12.561  -8.577  1.00  0.00     0.222 HD
ENDBRANCH  23  25
BRANCH  23  27
HETATM   27  O7  UNL     1      18.116  12.689  -9.231  1.00  0.00    -0.195 OA
BRANCH  27  28
HETATM   28  P2  UNL     1      17.930  11.118  -9.421  1.00  0.00     0.401 P 
HETATM   29  O8  UNL     1      18.052  10.585 -10.811  1.00  0.00    -0.631 OA
BRANCH  28  30
HETATM   30  O9  UNL     1      18.981  10.498  -8.392  1.00  0.00    -0.307 OA
HETATM   31  H24 UNL     1      19.417  11.166  -7.808  1.00  0.00     0.222 HD
ENDBRANCH  28  30
BRANCH  28  32
HETATM   32  O10 UNL     1      16.559  10.798  -8.668  1.00  0.00    -0.294 OA
BRANCH  32  33
HETATM   33  C14 UNL     1      16.357   9.539  -8.081  1.00  0.00     0.215 C 
BRANCH  33  34
HETATM   34  C15 UNL     1      15.494   8.745  -9.060  1.00  0.00     0.180 C 
HETATM   35  C16 UNL     1      14.154   9.442  -9.249  1.00  0.00     0.197 C 
HETATM   36  C17 UNL     1      13.127   8.447  -8.743  1.00  0.00     0.199 C 
HETATM   37  C18 UNL     1      13.852   7.112  -8.930  1.00  0.00     0.262 C 
HETATM   38  O11 UNL     1      15.231   7.408  -8.616  1.00  0.00    -0.353 OA
BRANCH  35  39
HETATM   39  O13 UNL     1      13.993   9.720 -10.637  1.00  0.00    -0.286 OA
BRANCH  39  40
HETATM   40  P3  UNL     1      13.894  11.269 -11.022  1.00  0.00     0.391 P 
HETATM   41  O14 UNL     1      12.646  11.626 -11.762  1.00  0.00    -0.632 OA
BRANCH  40  42
HETATM   42  O15 UNL     1      15.289  11.479 -11.776  1.00  0.00    -0.307 OA
HETATM   43  H36 UNL     1      15.431  10.773 -12.451  1.00  0.00     0.222 HD
ENDBRANCH  40  42
BRANCH  40  44
HETATM   44  O16 UNL     1      14.137  11.961  -9.611  1.00  0.00    -0.307 OA
HETATM   45  H37 UNL     1      14.721  11.444  -9.034  1.00  0.00     0.222 HD
ENDBRANCH  40  44
ENDBRANCH  39  40
ENDBRANCH  35  39
BRANCH  36  46
HETATM   46  O12 UNL     1      11.886   8.622  -9.431  1.00  0.00    -0.388 OA
HETATM   47  H35 UNL     1      11.310   9.155  -8.833  1.00  0.00     0.210 HD
ENDBRANCH  36  46
BRANCH  37  48
HETATM   48  N3  UNL     1      13.377   6.089  -8.020  1.00  0.00    -0.297 N 
HETATM   49  C19 UNL     1      13.909   5.751  -6.798  1.00  0.00     0.188 A 
HETATM   50  N4  UNL     1      13.172   4.868  -6.160  1.00  0.00    -0.346 N 
HETATM   51  C20 UNL     1      12.107   4.624  -7.009  1.00  0.00     0.116 A 
HETATM   52  H4  UNL     1      13.346   4.455  -5.244  1.00  0.00     0.167 HD
HETATM   53  C21 UNL     1      10.961   3.818  -6.894  1.00  0.00     0.109 A 
HETATM   54  C23 UNL     1      12.242   5.345  -8.182  1.00  0.00     0.142 A 
HETATM   55  N5  UNL     1      10.085   3.783  -7.928  1.00  0.00    -0.341 N 
HETATM   56  C22 UNL     1      10.360   4.521  -9.021  1.00  0.00     0.183 A 
HETATM   57  H5  UNL     1       9.241   3.212  -7.879  1.00  0.00     0.167 HD
HETATM   58  N6  UNL     1      11.414   5.333  -9.242  1.00  0.00    -0.336 N 
HETATM   59  H6  UNL     1      11.563   5.867 -10.098  1.00  0.00     0.168 HD
BRANCH  53  60
HETATM   60  N7  UNL     1      10.682   3.046  -5.777  1.00  0.00    -0.287 NA
HETATM   61  H33 UNL     1      11.329   2.274  -5.629  1.00  0.00     0.125 HD
HETATM   62  H34 UNL     1       9.697   2.841  -5.675  1.00  0.00     0.125 HD
ENDBRANCH  53  60
ENDBRANCH  37  48
ENDBRANCH  33  34
ENDBRANCH  32  33
ENDBRANCH  28  32
ENDBRANCH  27  28
ENDBRANCH  23  27
ENDBRANCH  22  23
ENDBRANCH  21  22
ENDBRANCH  18  21
ENDBRANCH  17  18
BRANCH  17  63
HETATM   63  O17 UNL     1      16.044  10.369  -4.336  1.00  0.00    -0.385 OA
HETATM   64  H38 UNL     1      16.837   9.911  -4.661  1.00  0.00     0.210 HD
ENDBRANCH  17  63
ENDBRANCH  14  17
ENDBRANCH  12  13
ENDBRANCH  11  12
ENDBRANCH   8  11
ENDBRANCH   6   7
ENDBRANCH   5   6
ENDBRANCH   4   5
ENDBRANCH   2   4
TORSDOF 27
ENDMDL
MODEL 17
REMARK VINA RESULT:      -4.5      4.236      7.021
REMARK  27 active torsions:
REMARK  status: ('A' for Active; 'I' for Inactive)
REMARK    1  A    between atoms: C2_2  and  S1_4 
REMARK    2  A    between atoms: S1_4  and  C3_5 
REMARK    3  A    between atoms: C3_5  and  C4_6 
REMARK    4  A    between atoms: C4_6  and  N1_7 
REMARK       I    between atoms: N1_7  and  C5_8 
REMARK    5  A    between atoms: C5_8  and  C6_10 
REMARK    6  A    between atoms: C6_10  and  C7_11 
REMARK    7  A    between atoms: C7_11  and  N2_12 
REMARK       I    between atoms: N2_12  and  C8_13 
REMARK    8  A    between atoms: C8_13  and  C9_15 
REMARK    9  A    between atoms: C9_15  and  C10_16 
REMARK   10  A    between atoms: C9_15  and  O17_54 
REMARK   11  A    between atoms: C10_16  and  C13_19 
REMARK   12  A    between atoms: C13_19  and  O4_20 
REMARK   13  A    between atoms: O4_20  and  P1_21 
REMARK   14  A    between atoms: P1_21  and  O6_23 
REMARK   15  A    between atoms: P1_21  and  O7_24 
REMARK   16  A    between atoms: O7_24  and  P2_25 
REMARK   17  A    between atoms: P2_25  and  O9_27 
REMARK   18  A    between atoms: P2_25  and  O10_28 
REMARK   19  A    between atoms: O10_28  and  C14_29 
REMARK   20  A    between atoms: C14_29  and  C15_30 
REMARK   21  A    between atoms: C16_31  and  O13_49 
REMARK   22  A    between atoms: C17_32  and  O12_48 
REMARK   23  A    between atoms: C18_33  and  N3_35 
REMARK   24  A    between atoms: C21_40  and  N7_47 
REMARK   25  A    between atoms: O13_49  and  P3_50 
REMARK   26  A    between atoms: P3_50  and  O15_52 
REMARK   27  A    between atoms: P3_50  and  O16_53 
ROOT
HETATM    1  C1  UNL     1       9.537   3.809  -5.270  1.00  0.00     0.104 C 
HETATM    2  C2  UNL     1       9.275   5.000  -6.140  1.00  0.00     0.182 C 
HETATM    3  O1  UNL     1       8.262   5.690  -6.052  1.00  0.00    -0.286 OA
ENDROOT
BRANCH   2   4
HETATM    4  S1  UNL     1      10.526   5.315  -7.335  1.00  0.00    -0.091 SA
BRANCH   4   5
HETATM    5  C3  UNL     1      11.949   4.504  -6.536  1.00  0.00     0.102 C 
BRANCH   5   6
HETATM    6  C4  UNL     1      13.201   4.555  -7.413  1.00  0.00     0.133 C 
BRANCH   6   7
HETATM    7  N1  UNL     1      13.925   5.803  -7.283  1.00  0.00    -0.360 N 
HETATM    8  C5  UNL     1      15.170   5.860  -6.701  1.00  0.00     0.219 C 
HETATM    9  O2  UNL     1      15.705   4.883  -6.189  1.00  0.00    -0.274 OA
HETATM   10  H8  UNL     1      13.501   6.650  -7.637  1.00  0.00     0.162 HD
BRANCH   8  11
HETATM   11  C6  UNL     1      15.774   7.248  -6.715  1.00  0.00     0.122 C 
BRANCH  11  12
HETATM   12  C7  UNL     1      16.622   7.513  -5.471  1.00  0.00     0.132 C 
BRANCH  12  13
HETATM   13  N2  UNL     1      16.920   8.916  -5.277  1.00  0.00    -0.358 N 
HETATM   14  C8  UNL     1      18.193   9.399  -5.520  1.00  0.00     0.247 C 
HETATM   15  O3  UNL     1      19.130   8.658  -5.789  1.00  0.00    -0.271 OA
HETATM   16  H13 UNL     1      16.143   9.555  -5.432  1.00  0.00     0.162 HD
BRANCH  14  17
HETATM   17  C9  UNL     1      18.327  10.927  -5.447  1.00  0.00     0.219 C 
BRANCH  17  18
HETATM   18  C10 UNL     1      19.778  11.436  -5.240  1.00  0.00     0.009 C 
HETATM   19  C11 UNL     1      19.917  12.933  -5.556  1.00  0.00     0.020 C 
HETATM   20  C12 UNL     1      20.256  11.210  -3.792  1.00  0.00     0.020 C 
BRANCH  18  21
HETATM   21  C13 UNL     1      20.663  10.611  -6.219  1.00  0.00     0.192 C 
BRANCH  21  22
HETATM   22  O4  UNL     1      20.659  11.145  -7.528  1.00  0.00    -0.296 OA
BRANCH  22  23
HETATM   23  P1  UNL     1      20.379  10.254  -8.831  1.00  0.00     0.401 P 
HETATM   24  O5  UNL     1      20.819   8.829  -8.704  1.00  0.00    -0.631 OA
BRANCH  23  25
HETATM   25  O6  UNL     1      21.040  11.030 -10.076  1.00  0.00    -0.307 OA
HETATM   26  H23 UNL     1      21.830  11.522  -9.818  1.00  0.00     0.222 HD
ENDBRANCH  23  25
BRANCH  23  27
HETATM   27  O7  UNL     1      18.829  10.446  -9.135  1.00  0.00    -0.195 OA
BRANCH  27  28
HETATM   28  P2  UNL     1      18.126   9.483 -10.192  1.00  0.00     0.401 P 
HETATM   29  O8  UNL     1      17.115  10.101 -11.102  1.00  0.00    -0.631 OA
BRANCH  28  30
HETATM   30  O9  UNL     1      19.359   8.810 -10.951  1.00  0.00    -0.307 OA
HETATM   31  H24 UNL     1      19.381   7.824 -10.890  1.00  0.00     0.222 HD
ENDBRANCH  28  30
BRANCH  28  32
HETATM   32  O10 UNL     1      17.615   8.252  -9.313  1.00  0.00    -0.294 OA
BRANCH  32  33
HETATM   33  C14 UNL     1      17.915   6.938  -9.704  1.00  0.00     0.215 C 
BRANCH  33  34
HETATM   34  C15 UNL     1      17.042   6.645 -10.923  1.00  0.00     0.180 C 
HETATM   35  C16 UNL     1      15.605   6.402 -10.481  1.00  0.00     0.197 C 
HETATM   36  C17 UNL     1      15.311   4.973 -10.896  1.00  0.00     0.199 C 
HETATM   37  C18 UNL     1      16.290   4.765 -12.054  1.00  0.00     0.262 C 
HETATM   38  O11 UNL     1      17.473   5.492 -11.655  1.00  0.00    -0.353 OA
BRANCH  35  39
HETATM   39  O13 UNL     1      14.771   7.339 -11.156  1.00  0.00    -0.286 OA
BRANCH  39  40
HETATM   40  P3  UNL     1      13.770   8.167 -10.224  1.00  0.00     0.391 P 
HETATM   41  O14 UNL     1      12.774   7.316  -9.504  1.00  0.00    -0.632 OA
BRANCH  40  42
HETATM   42  O15 UNL     1      13.209   9.241 -11.268  1.00  0.00    -0.307 OA
HETATM   43  H36 UNL     1      13.916   9.515 -11.900  1.00  0.00     0.222 HD
ENDBRANCH  40  42
BRANCH  40  44
HETATM   44  O16 UNL     1      14.787   9.015  -9.344  1.00  0.00    -0.307 OA
HETATM   45  H37 UNL     1      15.621   9.198  -9.804  1.00  0.00     0.222 HD
ENDBRANCH  40  44
ENDBRANCH  39  40
ENDBRANCH  35  39
BRANCH  36  46
HETATM   46  O12 UNL     1      13.918   4.814 -11.177  1.00  0.00    -0.388 OA
HETATM   47  H35 UNL     1      13.811   3.906 -11.549  1.00  0.00     0.210 HD
ENDBRANCH  36  46
BRANCH  37  48
HETATM   48  N3  UNL     1      16.641   3.372 -12.244  1.00  0.00    -0.297 N 
HETATM   49  C19 UNL     1      16.204   2.533 -13.243  1.00  0.00     0.188 A 
HETATM   50  N4  UNL     1      16.805   1.364 -13.210  1.00  0.00    -0.346 N 
HETATM   51  C20 UNL     1      17.678   1.450 -12.140  1.00  0.00     0.116 A 
HETATM   52  H4  UNL     1      16.660   0.571 -13.834  1.00  0.00     0.167 HD
HETATM   53  C21 UNL     1      18.626   0.558 -11.610  1.00  0.00     0.109 A 
HETATM   54  C23 UNL     1      17.558   2.675 -11.508  1.00  0.00     0.142 A 
HETATM   55  N5  UNL     1      19.338   0.939 -10.521  1.00  0.00    -0.341 N 
HETATM   56  C22 UNL     1      19.097   2.157  -9.995  1.00  0.00     0.183 A 
HETATM   57  H5  UNL     1      20.037   0.321 -10.110  1.00  0.00     0.167 HD
HETATM   58  N6  UNL     1      18.226   3.095 -10.419  1.00  0.00    -0.336 N 
HETATM   59  H6  UNL     1      18.091   4.003  -9.973  1.00  0.00     0.168 HD
BRANCH  53  60
HETATM   60  N7  UNL     1      18.867  -0.700 -12.137  1.00  0.00    -0.287 NA
HETATM   61  H33 UNL     1      19.853  -0.917 -12.272  1.00  0.00     0.125 HD
HETATM   62  H34 UNL     1      18.241  -0.937 -12.895  1.00  0.00     0.125 HD
ENDBRANCH  53  60
ENDBRANCH  37  48
ENDBRANCH  33  34
ENDBRANCH  32  33
ENDBRANCH  28  32
ENDBRANCH  27  28
ENDBRANCH  23  27
ENDBRANCH  22  23
ENDBRANCH  21  22
ENDBRANCH  18  21
ENDBRANCH  17  18
BRANCH  17  63
HETATM   63  O17 UNL     1      17.801  11.526  -6.636  1.00  0.00    -0.385 OA
HETATM   64  H38 UNL     1      17.324  12.334  -6.381  1.00  0.00     0.210 HD
ENDBRANCH  17  63
ENDBRANCH  14  17
ENDBRANCH  12  13
ENDBRANCH  11  12
ENDBRANCH   8  11
ENDBRANCH   6   7
ENDBRANCH   5   6
ENDBRANCH   4   5
ENDBRANCH   2   4
TORSDOF 27
ENDMDL
MODEL 18
REMARK VINA RESULT:      -4.4      3.310      5.319
REMARK  27 active torsions:
REMARK  status: ('A' for Active; 'I' for Inactive)
REMARK    1  A    between atoms: C2_2  and  S1_4 
REMARK    2  A    between atoms: S1_4  and  C3_5 
REMARK    3  A    between atoms: C3_5  and  C4_6 
REMARK    4  A    between atoms: C4_6  and  N1_7 
REMARK       I    between atoms: N1_7  and  C5_8 
REMARK    5  A    between atoms: C5_8  and  C6_10 
REMARK    6  A    between atoms: C6_10  and  C7_11 
REMARK    7  A    between atoms: C7_11  and  N2_12 
REMARK       I    between atoms: N2_12  and  C8_13 
REMARK    8  A    between atoms: C8_13  and  C9_15 
REMARK    9  A    between atoms: C9_15  and  C10_16 
REMARK   10  A    between atoms: C9_15  and  O17_54 
REMARK   11  A    between atoms: C10_16  and  C13_19 
REMARK   12  A    between atoms: C13_19  and  O4_20 
REMARK   13  A    between atoms: O4_20  and  P1_21 
REMARK   14  A    between atoms: P1_21  and  O6_23 
REMARK   15  A    between atoms: P1_21  and  O7_24 
REMARK   16  A    between atoms: O7_24  and  P2_25 
REMARK   17  A    between atoms: P2_25  and  O9_27 
REMARK   18  A    between atoms: P2_25  and  O10_28 
REMARK   19  A    between atoms: O10_28  and  C14_29 
REMARK   20  A    between atoms: C14_29  and  C15_30 
REMARK   21  A    between atoms: C16_31  and  O13_49 
REMARK   22  A    between atoms: C17_32  and  O12_48 
REMARK   23  A    between atoms: C18_33  and  N3_35 
REMARK   24  A    between atoms: C21_40  and  N7_47 
REMARK   25  A    between atoms: O13_49  and  P3_50 
REMARK   26  A    between atoms: P3_50  and  O15_52 
REMARK   27  A    between atoms: P3_50  and  O16_53 
ROOT
HETATM    1  C1  UNL     1       2.942   7.773  -8.159  1.00  0.00     0.104 C 
HETATM    2  C2  UNL     1       4.069   7.172  -8.943  1.00  0.00     0.182 C 
HETATM    3  O1  UNL     1       4.471   6.024  -8.773  1.00  0.00    -0.286 OA
ENDROOT
BRANCH   2   4
HETATM    4  S1  UNL     1       4.804   8.264 -10.109  1.00  0.00    -0.091 SA
BRANCH   4   5
HETATM    5  C3  UNL     1       6.272   8.798  -9.171  1.00  0.00     0.102 C 
BRANCH   5   6
HETATM    6  C4  UNL     1       6.071  10.175  -8.533  1.00  0.00     0.133 C 
BRANCH   6   7
HETATM    7  N1  UNL     1       7.318  10.880  -8.320  1.00  0.00    -0.360 N 
HETATM    8  C5  UNL     1       7.920  11.604  -9.323  1.00  0.00     0.219 C 
HETATM    9  O2  UNL     1       7.488  11.631 -10.469  1.00  0.00    -0.274 OA
HETATM   10  H8  UNL     1       7.748  10.842  -7.406  1.00  0.00     0.162 HD
BRANCH   8  11
HETATM   11  C6  UNL     1       9.184  12.308  -8.877  1.00  0.00     0.122 C 
BRANCH  11  12
HETATM   12  C7  UNL     1      10.437  11.653  -9.455  1.00  0.00     0.132 C 
BRANCH  12  13
HETATM   13  N2  UNL     1      11.533  11.592  -8.511  1.00  0.00    -0.358 N 
HETATM   14  C8  UNL     1      12.466  12.611  -8.459  1.00  0.00     0.247 C 
HETATM   15  O3  UNL     1      12.475  13.528  -9.272  1.00  0.00    -0.271 OA
HETATM   16  H13 UNL     1      11.337  11.097  -7.643  1.00  0.00     0.162 HD
BRANCH  14  17
HETATM   17  C9  UNL     1      13.468  12.510  -7.299  1.00  0.00     0.219 C 
BRANCH  17  18
HETATM   18  C10 UNL     1      13.255  13.556  -6.174  1.00  0.00     0.009 C 
HETATM   19  C11 UNL     1      13.555  14.986  -6.648  1.00  0.00     0.020 C 
HETATM   20  C12 UNL     1      11.808  13.527  -5.641  1.00  0.00     0.020 C 
BRANCH  18  21
HETATM   21  C13 UNL     1      14.241  13.165  -5.036  1.00  0.00     0.192 C 
BRANCH  21  22
HETATM   22  O4  UNL     1      15.524  12.833  -5.526  1.00  0.00    -0.296 OA
BRANCH  22  23
HETATM   23  P1  UNL     1      16.578  11.963  -4.687  1.00  0.00     0.401 P 
HETATM   24  O5  UNL     1      16.283  11.890  -3.222  1.00  0.00    -0.631 OA
BRANCH  23  25
HETATM   25  O6  UNL     1      18.039  12.549  -5.027  1.00  0.00    -0.307 OA
HETATM   26  H23 UNL     1      18.727  11.877  -4.941  1.00  0.00     0.222 HD
ENDBRANCH  23  25
BRANCH  23  27
HETATM   27  O7  UNL     1      16.631  10.556  -5.426  1.00  0.00    -0.195 OA
BRANCH  27  28
HETATM   28  P2  UNL     1      17.706  10.331  -6.580  1.00  0.00     0.401 P 
HETATM   29  O8  UNL     1      17.950  11.475  -7.509  1.00  0.00    -0.631 OA
BRANCH  28  30
HETATM   30  O9  UNL     1      19.003   9.850  -5.784  1.00  0.00    -0.307 OA
HETATM   31  H24 UNL     1      19.338  10.505  -5.124  1.00  0.00     0.222 HD
ENDBRANCH  28  30
BRANCH  28  32
HETATM   32  O10 UNL     1      17.256   8.960  -7.265  1.00  0.00    -0.294 OA
BRANCH  32  33
HETATM   33  C14 UNL     1      15.981   8.433  -7.011  1.00  0.00     0.215 C 
BRANCH  33  34
HETATM   34  C15 UNL     1      15.450   7.932  -8.353  1.00  0.00     0.180 C 
HETATM   35  C16 UNL     1      14.878   9.098  -9.149  1.00  0.00     0.197 C 
HETATM   36  C17 UNL     1      13.409   8.760  -9.323  1.00  0.00     0.199 C 
HETATM   37  C18 UNL     1      13.414   7.234  -9.215  1.00  0.00     0.262 C 
HETATM   38  O11 UNL     1      14.418   6.950  -8.215  1.00  0.00    -0.353 OA
BRANCH  35  39
HETATM   39  O13 UNL     1      15.565   9.162 -10.394  1.00  0.00    -0.286 OA
BRANCH  39  40
HETATM   40  P3  UNL     1      15.955  10.630 -10.892  1.00  0.00     0.391 P 
HETATM   41  O14 UNL     1      15.723  11.695  -9.868  1.00  0.00    -0.632 OA
BRANCH  40  42
HETATM   42  O15 UNL     1      15.119  10.717 -12.253  1.00  0.00    -0.307 OA
HETATM   43  H36 UNL     1      15.008  11.656 -12.535  1.00  0.00     0.222 HD
ENDBRANCH  40  42
BRANCH  40  44
HETATM   44  O16 UNL     1      17.446  10.406 -11.397  1.00  0.00    -0.307 OA
HETATM   45  H37 UNL     1      18.100  10.886 -10.864  1.00  0.00     0.222 HD
ENDBRANCH  40  44
ENDBRANCH  39  40
ENDBRANCH  35  39
BRANCH  36  46
HETATM   46  O12 UNL     1      12.909   9.332 -10.534  1.00  0.00    -0.388 OA
HETATM   47  H35 UNL     1      12.659   8.575 -11.116  1.00  0.00     0.210 HD
ENDBRANCH  36  46
BRANCH  37  48
HETATM   48  N3  UNL     1      12.143   6.704  -8.763  1.00  0.00    -0.297 N 
HETATM   49  C19 UNL     1      10.938   7.365  -8.711  1.00  0.00     0.188 A 
HETATM   50  N4  UNL     1       9.947   6.569  -8.374  1.00  0.00    -0.346 N 
HETATM   51  C20 UNL     1      10.537   5.329  -8.204  1.00  0.00     0.116 A 
HETATM   52  H4  UNL     1       8.962   6.811  -8.263  1.00  0.00     0.167 HD
HETATM   53  C21 UNL     1      10.018   4.062  -7.886  1.00  0.00     0.109 A 
HETATM   54  C23 UNL     1      11.904   5.407  -8.404  1.00  0.00     0.142 A 
HETATM   55  N5  UNL     1      10.876   3.018  -7.779  1.00  0.00    -0.341 N 
HETATM   56  C22 UNL     1      12.189   3.247  -7.978  1.00  0.00     0.183 A 
HETATM   57  H5  UNL     1      10.536   2.083  -7.553  1.00  0.00     0.167 HD
HETATM   58  N6  UNL     1      12.798   4.408  -8.294  1.00  0.00    -0.336 N 
HETATM   59  H6  UNL     1      13.803   4.515  -8.431  1.00  0.00     0.168 HD
BRANCH  53  60
HETATM   60  N7  UNL     1       8.671   3.824  -7.666  1.00  0.00    -0.287 NA
HETATM   61  H33 UNL     1       8.132   3.652  -8.513  1.00  0.00     0.125 HD
HETATM   62  H34 UNL     1       8.265   4.453  -6.987  1.00  0.00     0.125 HD
ENDBRANCH  53  60
ENDBRANCH  37  48
ENDBRANCH  33  34
ENDBRANCH  32  33
ENDBRANCH  28  32
ENDBRANCH  27  28
ENDBRANCH  23  27
ENDBRANCH  22  23
ENDBRANCH  21  22
ENDBRANCH  18  21
ENDBRANCH  17  18
BRANCH  17  63
HETATM   63  O17 UNL     1      13.419  11.202  -6.719  1.00  0.00    -0.385 OA
HETATM   64  H38 UNL     1      14.332  10.884  -6.617  1.00  0.00     0.210 HD
ENDBRANCH  17  63
ENDBRANCH  14  17
ENDBRANCH  12  13
ENDBRANCH  11  12
ENDBRANCH   8  11
ENDBRANCH   6   7
ENDBRANCH   5   6
ENDBRANCH   4   5
ENDBRANCH   2   4
TORSDOF 27
ENDMDL
MODEL 19
REMARK VINA RESULT:      -4.3      4.422      9.596
REMARK  27 active torsions:
REMARK  status: ('A' for Active; 'I' for Inactive)
REMARK    1  A    between atoms: C2_2  and  S1_4 
REMARK    2  A    between atoms: S1_4  and  C3_5 
REMARK    3  A    between atoms: C3_5  and  C4_6 
REMARK    4  A    between atoms: C4_6  and  N1_7 
REMARK       I    between atoms: N1_7  and  C5_8 
REMARK    5  A    between atoms: C5_8  and  C6_10 
REMARK    6  A    between atoms: C6_10  and  C7_11 
REMARK    7  A    between atoms: C7_11  and  N2_12 
REMARK       I    between atoms: N2_12  and  C8_13 
REMARK    8  A    between atoms: C8_13  and  C9_15 
REMARK    9  A    between atoms: C9_15  and  C10_16 
REMARK   10  A    between atoms: C9_15  and  O17_54 
REMARK   11  A    between atoms: C10_16  and  C13_19 
REMARK   12  A    between atoms: C13_19  and  O4_20 
REMARK   13  A    between atoms: O4_20  and  P1_21 
REMARK   14  A    between atoms: P1_21  and  O6_23 
REMARK   15  A    between atoms: P1_21  and  O7_24 
REMARK   16  A    between atoms: O7_24  and  P2_25 
REMARK   17  A    between atoms: P2_25  and  O9_27 
REMARK   18  A    between atoms: P2_25  and  O10_28 
REMARK   19  A    between atoms: O10_28  and  C14_29 
REMARK   20  A    between atoms: C14_29  and  C15_30 
REMARK   21  A    between atoms: C16_31  and  O13_49 
REMARK   22  A    between atoms: C17_32  and  O12_48 
REMARK   23  A    between atoms: C18_33  and  N3_35 
REMARK   24  A    between atoms: C21_40  and  N7_47 
REMARK   25  A    between atoms: O13_49  and  P3_50 
REMARK   26  A    between atoms: P3_50  and  O15_52 
REMARK   27  A    between atoms: P3_50  and  O16_53 
ROOT
HETATM    1  C1  UNL     1      21.167   5.291 -11.385  1.00  0.00     0.104 C 
HETATM    2  C2  UNL     1      20.016   4.440 -11.827  1.00  0.00     0.182 C 
HETATM    3  O1  UNL     1      19.144   4.834 -12.597  1.00  0.00    -0.286 OA
ENDROOT
BRANCH   2   4
HETATM    4  S1  UNL     1      19.991   2.830 -11.121  1.00  0.00    -0.091 SA
BRANCH   4   5
HETATM    5  C3  UNL     1      19.881   1.816 -12.630  1.00  0.00     0.102 C 
BRANCH   5   6
HETATM    6  C4  UNL     1      18.490   1.203 -12.805  1.00  0.00     0.133 C 
BRANCH   6   7
HETATM    7  N1  UNL     1      17.429   2.184 -12.694  1.00  0.00    -0.360 N 
HETATM    8  C5  UNL     1      16.822   2.723 -13.805  1.00  0.00     0.219 C 
HETATM    9  O2  UNL     1      17.191   2.471 -14.946  1.00  0.00    -0.274 OA
HETATM   10  H8  UNL     1      17.126   2.470 -11.773  1.00  0.00     0.162 HD
BRANCH   8  11
HETATM   11  C6  UNL     1      15.702   3.684 -13.468  1.00  0.00     0.122 C 
BRANCH  11  12
HETATM   12  C7  UNL     1      15.441   3.752 -11.964  1.00  0.00     0.132 C 
BRANCH  12  13
HETATM   13  N2  UNL     1      14.842   5.003 -11.548  1.00  0.00    -0.358 N 
HETATM   14  C8  UNL     1      14.192   5.093 -10.331  1.00  0.00     0.247 C 
HETATM   15  O3  UNL     1      13.995   4.114  -9.623  1.00  0.00    -0.271 OA
HETATM   16  H13 UNL     1      15.299   5.844 -11.896  1.00  0.00     0.162 HD
BRANCH  14  17
HETATM   17  C9  UNL     1      13.761   6.513  -9.935  1.00  0.00     0.219 C 
BRANCH  17  18
HETATM   18  C10 UNL     1      14.812   7.296  -9.105  1.00  0.00     0.009 C 
HETATM   19  C11 UNL     1      15.695   6.364  -8.262  1.00  0.00     0.020 C 
HETATM   20  C12 UNL     1      15.736   8.136 -10.010  1.00  0.00     0.020 C 
BRANCH  18  21
HETATM   21  C13 UNL     1      14.002   8.236  -8.167  1.00  0.00     0.192 C 
BRANCH  21  22
HETATM   22  O4  UNL     1      12.699   8.489  -8.654  1.00  0.00    -0.296 OA
BRANCH  22  23
HETATM   23  P1  UNL     1      12.162   9.965  -8.977  1.00  0.00     0.401 P 
HETATM   24  O5  UNL     1      10.679  10.117  -8.852  1.00  0.00    -0.631 OA
BRANCH  23  25
HETATM   25  O6  UNL     1      12.735  10.361 -10.428  1.00  0.00    -0.307 OA
HETATM   26  H23 UNL     1      12.055  10.310 -11.112  1.00  0.00     0.222 HD
ENDBRANCH  23  25
BRANCH  23  27
HETATM   27  O7  UNL     1      13.011  10.926  -8.036  1.00  0.00    -0.195 OA
BRANCH  27  28
HETATM   28  P2  UNL     1      12.606  12.464  -7.941  1.00  0.00     0.401 P 
HETATM   29  O8  UNL     1      12.711  13.271  -9.194  1.00  0.00    -0.631 OA
BRANCH  28  30
HETATM   30  O9  UNL     1      11.136  12.418  -7.317  1.00  0.00    -0.307 OA
HETATM   31  H24 UNL     1      10.966  11.632  -6.744  1.00  0.00     0.222 HD
ENDBRANCH  28  30
BRANCH  28  32
HETATM   32  O10 UNL     1      13.438  13.006  -6.690  1.00  0.00    -0.294 OA
BRANCH  32  33
HETATM   33  C14 UNL     1      14.181  14.192  -6.802  1.00  0.00     0.215 C 
BRANCH  33  34
HETATM   34  C15 UNL     1      15.507  13.934  -6.089  1.00  0.00     0.180 C 
HETATM   35  C16 UNL     1      15.791  12.438  -6.054  1.00  0.00     0.197 C 
HETATM   36  C17 UNL     1      15.819  12.086  -4.579  1.00  0.00     0.199 C 
HETATM   37  C18 UNL     1      16.200  13.422  -3.936  1.00  0.00     0.262 C 
HETATM   38  O11 UNL     1      15.518  14.411  -4.738  1.00  0.00    -0.353 OA
BRANCH  35  39
HETATM   39  O13 UNL     1      17.048  12.212  -6.684  1.00  0.00    -0.286 OA
BRANCH  39  40
HETATM   40  P3  UNL     1      17.088  11.002  -7.727  1.00  0.00     0.391 P 
HETATM   41  O14 UNL     1      17.065   9.652  -7.085  1.00  0.00    -0.632 OA
BRANCH  40  42
HETATM   42  O15 UNL     1      18.380  11.390  -8.587  1.00  0.00    -0.307 OA
HETATM   43  H36 UNL     1      18.118  11.741  -9.471  1.00  0.00     0.222 HD
ENDBRANCH  40  42
BRANCH  40  44
HETATM   44  O16 UNL     1      15.884  11.378  -8.694  1.00  0.00    -0.307 OA
HETATM   45  H37 UNL     1      15.090  11.663  -8.214  1.00  0.00     0.222 HD
ENDBRANCH  40  44
ENDBRANCH  39  40
ENDBRANCH  35  39
BRANCH  36  46
HETATM   46  O12 UNL     1      16.691  10.976  -4.350  1.00  0.00    -0.388 OA
HETATM   47  H35 UNL     1      16.579  10.371  -5.122  1.00  0.00     0.210 HD
ENDBRANCH  36  46
BRANCH  37  48
HETATM   48  N3  UNL     1      15.736  13.532  -2.567  1.00  0.00    -0.297 N 
HETATM   49  C19 UNL     1      14.460  13.818  -2.142  1.00  0.00     0.188 A 
HETATM   50  N4  UNL     1      14.335  13.720  -0.836  1.00  0.00    -0.346 N 
HETATM   51  C20 UNL     1      15.592  13.349  -0.393  1.00  0.00     0.116 A 
HETATM   52  H4  UNL     1      13.499  13.882  -0.276  1.00  0.00     0.167 HD
HETATM   53  C21 UNL     1      16.102  13.046   0.882  1.00  0.00     0.109 A 
HETATM   54  C23 UNL     1      16.479  13.267  -1.451  1.00  0.00     0.142 A 
HETATM   55  N5  UNL     1      17.412  12.718   0.995  1.00  0.00    -0.341 N 
HETATM   56  C22 UNL     1      18.165  12.702  -0.122  1.00  0.00     0.183 A 
HETATM   57  H5  UNL     1      17.817  12.489   1.903  1.00  0.00     0.167 HD
HETATM   58  N6  UNL     1      17.788  12.963  -1.391  1.00  0.00    -0.336 N 
HETATM   59  H6  UNL     1      18.412  12.933  -2.197  1.00  0.00     0.168 HD
BRANCH  53  60
HETATM   60  N7  UNL     1      15.335  13.076   2.036  1.00  0.00    -0.287 NA
HETATM   61  H33 UNL     1      14.331  13.084   1.872  1.00  0.00     0.125 HD
HETATM   62  H34 UNL     1      15.689  13.723   2.728  1.00  0.00     0.125 HD
ENDBRANCH  53  60
ENDBRANCH  37  48
ENDBRANCH  33  34
ENDBRANCH  32  33
ENDBRANCH  28  32
ENDBRANCH  27  28
ENDBRANCH  23  27
ENDBRANCH  22  23
ENDBRANCH  21  22
ENDBRANCH  18  21
ENDBRANCH  17  18
BRANCH  17  63
HETATM   63  O17 UNL     1      13.446   7.277 -11.104  1.00  0.00    -0.385 OA
HETATM   64  H38 UNL     1      14.075   8.015 -11.162  1.00  0.00     0.210 HD
ENDBRANCH  17  63
ENDBRANCH  14  17
ENDBRANCH  12  13
ENDBRANCH  11  12
ENDBRANCH   8  11
ENDBRANCH   6   7
ENDBRANCH   5   6
ENDBRANCH   4   5
ENDBRANCH   2   4
TORSDOF 27
ENDMDL
MODEL 20
REMARK VINA RESULT:      -4.3      4.293      9.302
REMARK  27 active torsions:
REMARK  status: ('A' for Active; 'I' for Inactive)
REMARK    1  A    between atoms: C2_2  and  S1_4 
REMARK    2  A    between atoms: S1_4  and  C3_5 
REMARK    3  A    between atoms: C3_5  and  C4_6 
REMARK    4  A    between atoms: C4_6  and  N1_7 
REMARK       I    between atoms: N1_7  and  C5_8 
REMARK    5  A    between atoms: C5_8  and  C6_10 
REMARK    6  A    between atoms: C6_10  and  C7_11 
REMARK    7  A    between atoms: C7_11  and  N2_12 
REMARK       I    between atoms: N2_12  and  C8_13 
REMARK    8  A    between atoms: C8_13  and  C9_15 
REMARK    9  A    between atoms: C9_15  and  C10_16 
REMARK   10  A    between atoms: C9_15  and  O17_54 
REMARK   11  A    between atoms: C10_16  and  C13_19 
REMARK   12  A    between atoms: C13_19  and  O4_20 
REMARK   13  A    between atoms: O4_20  and  P1_21 
REMARK   14  A    between atoms: P1_21  and  O6_23 
REMARK   15  A    between atoms: P1_21  and  O7_24 
REMARK   16  A    between atoms: O7_24  and  P2_25 
REMARK   17  A    between atoms: P2_25  and  O9_27 
REMARK   18  A    between atoms: P2_25  and  O10_28 
REMARK   19  A    between atoms: O10_28  and  C14_29 
REMARK   20  A    between atoms: C14_29  and  C15_30 
REMARK   21  A    between atoms: C16_31  and  O13_49 
REMARK   22  A    between atoms: C17_32  and  O12_48 
REMARK   23  A    between atoms: C18_33  and  N3_35 
REMARK   24  A    between atoms: C21_40  and  N7_47 
REMARK   25  A    between atoms: O13_49  and  P3_50 
REMARK   26  A    between atoms: P3_50  and  O15_52 
REMARK   27  A    between atoms: P3_50  and  O16_53 
ROOT
HETATM    1  C1  UNL     1      21.421   4.727 -12.572  1.00  0.00     0.104 C 
HETATM    2  C2  UNL     1      20.107   4.013 -12.673  1.00  0.00     0.182 C 
HETATM    3  O1  UNL     1      19.384   4.070 -13.665  1.00  0.00    -0.286 OA
ENDROOT
BRANCH   2   4
HETATM    4  S1  UNL     1      19.659   3.112 -11.231  1.00  0.00    -0.091 SA
BRANCH   4   5
HETATM    5  C3  UNL     1      19.576   1.426 -11.916  1.00  0.00     0.102 C 
BRANCH   5   6
HETATM    6  C4  UNL     1      18.131   0.961 -12.112  1.00  0.00     0.133 C 
BRANCH   6   7
HETATM    7  N1  UNL     1      17.250   2.032 -12.528  1.00  0.00    -0.360 N 
HETATM    8  C5  UNL     1      16.470   1.932 -13.656  1.00  0.00     0.219 C 
HETATM    9  O2  UNL     1      16.531   0.973 -14.417  1.00  0.00    -0.274 OA
HETATM   10  H8  UNL     1      17.206   2.872 -11.965  1.00  0.00     0.162 HD
BRANCH   8  11
HETATM   11  C6  UNL     1      15.582   3.136 -13.881  1.00  0.00     0.122 C 
BRANCH  11  12
HETATM   12  C7  UNL     1      16.004   4.325 -13.018  1.00  0.00     0.132 C 
BRANCH  12  13
HETATM   13  N2  UNL     1      14.964   4.768 -12.114  1.00  0.00    -0.358 N 
HETATM   14  C8  UNL     1      15.017   4.434 -10.773  1.00  0.00     0.247 C 
HETATM   15  O3  UNL     1      15.861   3.667 -10.326  1.00  0.00    -0.271 OA
HETATM   16  H13 UNL     1      14.520   5.651 -12.356  1.00  0.00     0.162 HD
BRANCH  14  17
HETATM   17  C9  UNL     1      13.954   5.112  -9.897  1.00  0.00     0.219 C 
BRANCH  17  18
HETATM   18  C10 UNL     1      14.455   6.366  -9.133  1.00  0.00     0.009 C 
HETATM   19  C11 UNL     1      14.560   6.119  -7.621  1.00  0.00     0.020 C 
HETATM   20  C12 UNL     1      15.840   6.820  -9.638  1.00  0.00     0.020 C 
BRANCH  18  21
HETATM   21  C13 UNL     1      13.405   7.481  -9.408  1.00  0.00     0.192 C 
BRANCH  21  22
HETATM   22  O4  UNL     1      13.603   8.110 -10.658  1.00  0.00    -0.296 OA
BRANCH  22  23
HETATM   23  P1  UNL     1      13.522   9.700 -10.855  1.00  0.00     0.401 P 
HETATM   24  O5  UNL     1      12.360  10.343 -10.167  1.00  0.00    -0.631 OA
BRANCH  23  25
HETATM   25  O6  UNL     1      13.572   9.975 -12.441  1.00  0.00    -0.307 OA
HETATM   26  H23 UNL     1      12.774  10.418 -12.756  1.00  0.00     0.222 HD
ENDBRANCH  23  25
BRANCH  23  27
HETATM   27  O7  UNL     1      14.947  10.243 -10.403  1.00  0.00    -0.195 OA
BRANCH  27  28
HETATM   28  P2  UNL     1      15.484  11.609 -11.024  1.00  0.00     0.401 P 
HETATM   29  O8  UNL     1      16.178  11.525 -12.344  1.00  0.00    -0.631 OA
BRANCH  28  30
HETATM   30  O9  UNL     1      14.189  12.543 -11.028  1.00  0.00    -0.307 OA
HETATM   31  H24 UNL     1      13.839  12.752 -10.127  1.00  0.00     0.222 HD
ENDBRANCH  28  30
BRANCH  28  32
HETATM   32  O10 UNL     1      16.320  12.271  -9.836  1.00  0.00    -0.294 OA
BRANCH  32  33
HETATM   33  C14 UNL     1      17.647  12.677 -10.052  1.00  0.00     0.215 C 
BRANCH  33  34
HETATM   34  C15 UNL     1      18.480  12.009  -8.959  1.00  0.00     0.180 C 
HETATM   35  C16 UNL     1      18.212  10.510  -8.950  1.00  0.00     0.197 C 
HETATM   36  C17 UNL     1      17.617  10.235  -7.582  1.00  0.00     0.199 C 
HETATM   37  C18 UNL     1      18.182  11.386  -6.746  1.00  0.00     0.262 C 
HETATM   38  O11 UNL     1      18.191  12.512  -7.650  1.00  0.00    -0.353 OA
BRANCH  35  39
HETATM   39  O13 UNL     1      19.454   9.839  -9.139  1.00  0.00    -0.286 OA
BRANCH  39  40
HETATM   40  P3  UNL     1      19.560   8.948 -10.462  1.00  0.00     0.391 P 
HETATM   41  O14 UNL     1      19.351   7.488 -10.224  1.00  0.00    -0.632 OA
BRANCH  40  42
HETATM   42  O15 UNL     1      20.986   9.411 -11.021  1.00  0.00    -0.307 OA
HETATM   43  H36 UNL     1      21.507   9.862 -10.315  1.00  0.00     0.222 HD
ENDBRANCH  40  42
BRANCH  40  44
HETATM   44  O16 UNL     1      18.536   9.691 -11.426  1.00  0.00    -0.307 OA
HETATM   45  H37 UNL     1      18.922   9.909 -12.289  1.00  0.00     0.222 HD
ENDBRANCH  40  44
ENDBRANCH  39  40
ENDBRANCH  35  39
BRANCH  36  46
HETATM   46  O12 UNL     1      17.929   8.904  -7.164  1.00  0.00    -0.388 OA
HETATM   47  H35 UNL     1      17.726   8.317  -7.930  1.00  0.00     0.210 HD
ENDBRANCH  36  46
BRANCH  37  48
HETATM   48  N3  UNL     1      17.347  11.708  -5.606  1.00  0.00    -0.297 N 
HETATM   49  C19 UNL     1      16.205  11.058  -5.202  1.00  0.00     0.188 A 
HETATM   50  N4  UNL     1      15.748  11.516  -4.057  1.00  0.00    -0.346 N 
HETATM   51  C20 UNL     1      16.642  12.510  -3.698  1.00  0.00     0.116 A 
HETATM   52  H4  UNL     1      14.921  11.208  -3.547  1.00  0.00     0.167 HD
HETATM   53  C21 UNL     1      16.736  13.345  -2.572  1.00  0.00     0.109 A 
HETATM   54  C23 UNL     1      17.615  12.666  -4.669  1.00  0.00     0.142 A 
HETATM   55  N5  UNL     1      17.746  14.248  -2.516  1.00  0.00    -0.341 N 
HETATM   56  C22 UNL     1      18.609  14.304  -3.549  1.00  0.00     0.183 A 
HETATM   57  H5  UNL     1      17.849  14.869  -1.713  1.00  0.00     0.167 HD
HETATM   58  N6  UNL     1      18.625  13.554  -4.670  1.00  0.00    -0.336 N 
HETATM   59  H6  UNL     1      19.311  13.648  -5.419  1.00  0.00     0.168 HD
BRANCH  53  60
HETATM   60  N7  UNL     1      15.842  13.301  -1.514  1.00  0.00    -0.287 NA
HETATM   61  H33 UNL     1      15.734  12.380  -1.095  1.00  0.00     0.125 HD
HETATM   62  H34 UNL     1      14.995  13.824  -1.691  1.00  0.00     0.125 HD
ENDBRANCH  53  60
ENDBRANCH  37  48
ENDBRANCH  33  34
ENDBRANCH  32  33
ENDBRANCH  28  32
ENDBRANCH  27  28
ENDBRANCH  23  27
ENDBRANCH  22  23
ENDBRANCH  21  22
ENDBRANCH  18  21
ENDBRANCH  17  18
BRANCH  17  63
HETATM   63  O17 UNL     1      12.825   5.487 -10.694  1.00  0.00    -0.385 OA
HETATM   64  H38 UNL     1      13.041   6.315 -11.154  1.00  0.00     0.210 HD
ENDBRANCH  17  63
ENDBRANCH  14  17
ENDBRANCH  12  13
ENDBRANCH  11  12
ENDBRANCH   8  11
ENDBRANCH   6   7
ENDBRANCH   5   6
ENDBRANCH   4   5
ENDBRANCH   2   4
TORSDOF 27
ENDMDL
