MODEL 1
REMARK VINA RESULT:      -5.2      0.000      0.000
REMARK  2 active torsions:
REMARK  status: ('A' for Active; 'I' for Inactive)
REMARK    1  A    between atoms: C3_3  and  O1_8 
REMARK    2  A    between atoms: C6_6  and  N1_7 
ROOT
HETATM    1  C1  UNL     1       0.496   8.708  -2.327  1.00  0.00     0.026 A 
HETATM    2  C2  UNL     1       1.596   7.989  -1.855  1.00  0.00     0.038 A 
HETATM    3  C3  UNL     1       2.872   8.521  -1.980  1.00  0.00     0.065 A 
HETATM    4  C4  UNL     1       3.063   9.772  -2.556  1.00  0.00     0.038 A 
HETATM    5  C5  UNL     1       1.957  10.486  -3.027  1.00  0.00     0.026 A 
HETATM    6  C6  UNL     1       0.671   9.941  -2.963  1.00  0.00     0.005 A 
ENDROOT
BRANCH   6   7
HETATM    7  N1  UNL     1      -0.440  10.710  -3.327  1.00  0.00    -0.303 NA
HETATM    8  H5  UNL     1      -0.202  11.643  -3.651  1.00  0.00     0.124 HD
HETATM    9  H6  UNL     1      -1.178  10.720  -2.631  1.00  0.00     0.124 HD
ENDBRANCH   6   7
BRANCH   3  10
HETATM   10  O1  UNL     1       3.919   7.790  -1.505  1.00  0.00    -0.361 OA
HETATM   11  H7  UNL     1       4.642   8.395  -1.279  1.00  0.00     0.217 HD
ENDBRANCH   3  10
TORSDOF 2
ENDMDL
MODEL 2
REMARK VINA RESULT:      -5.1      2.778      3.679
REMARK  2 active torsions:
REMARK  status: ('A' for Active; 'I' for Inactive)
REMARK    1  A    between atoms: C3_3  and  O1_8 
REMARK    2  A    between atoms: C6_6  and  N1_7 
ROOT
HETATM    1  C1  UNL     1       2.980   9.822  -2.666  1.00  0.00     0.026 A 
HETATM    2  C2  UNL     1       1.831  10.505  -3.072  1.00  0.00     0.038 A 
HETATM    3  C3  UNL     1       0.584   9.927  -2.882  1.00  0.00     0.065 A 
HETATM    4  C4  UNL     1       0.466   8.681  -2.277  1.00  0.00     0.038 A 
HETATM    5  C5  UNL     1       1.620   8.002  -1.874  1.00  0.00     0.026 A 
HETATM    6  C6  UNL     1       2.889   8.542  -2.110  1.00  0.00     0.005 A 
ENDROOT
BRANCH   6   7
HETATM    7  N1  UNL     1       4.029   7.913  -1.598  1.00  0.00    -0.303 NA
HETATM    8  H5  UNL     1       4.301   7.080  -2.112  1.00  0.00     0.124 HD
HETATM    9  H6  UNL     1       3.996   7.755  -0.597  1.00  0.00     0.124 HD
ENDBRANCH   6   7
BRANCH   3  10
HETATM   10  O1  UNL     1      -0.512  10.626  -3.289  1.00  0.00    -0.361 OA
HETATM   11  H7  UNL     1      -0.500  11.497  -2.861  1.00  0.00     0.217 HD
ENDBRANCH   3  10
TORSDOF 2
ENDMDL
MODEL 3
REMARK VINA RESULT:      -5.0      1.927      2.497
REMARK  2 active torsions:
REMARK  status: ('A' for Active; 'I' for Inactive)
REMARK    1  A    between atoms: C3_3  and  O1_8 
REMARK    2  A    between atoms: C6_6  and  N1_7 
ROOT
HETATM    1  C1  UNL     1       0.773  10.937  -3.406  1.00  0.00     0.026 A 
HETATM    2  C2  UNL     1       0.136   9.795  -2.916  1.00  0.00     0.038 A 
HETATM    3  C3  UNL     1       0.886   8.789  -2.323  1.00  0.00     0.065 A 
HETATM    4  C4  UNL     1       2.265   8.915  -2.198  1.00  0.00     0.038 A 
HETATM    5  C5  UNL     1       2.896  10.061  -2.692  1.00  0.00     0.026 A 
HETATM    6  C6  UNL     1       2.165  11.058  -3.345  1.00  0.00     0.005 A 
ENDROOT
BRANCH   6   7
HETATM    7  N1  UNL     1       2.786  12.251  -3.728  1.00  0.00    -0.303 NA
HETATM    8  H5  UNL     1       3.482  12.580  -3.066  1.00  0.00     0.124 HD
HETATM    9  H6  UNL     1       2.138  12.982  -4.002  1.00  0.00     0.124 HD
ENDBRANCH   6   7
BRANCH   3  10
HETATM   10  O1  UNL     1       0.227   7.692  -1.855  1.00  0.00    -0.361 OA
HETATM   11  H7  UNL     1      -0.547   7.988  -1.350  1.00  0.00     0.217 HD
ENDBRANCH   3  10
TORSDOF 2
ENDMDL
MODEL 4
REMARK VINA RESULT:      -4.9      2.141      2.729
REMARK  2 active torsions:
REMARK  status: ('A' for Active; 'I' for Inactive)
REMARK    1  A    between atoms: C3_3  and  O1_8 
REMARK    2  A    between atoms: C6_6  and  N1_7 
ROOT
HETATM    1  C1  UNL     1       3.465   9.342  -2.239  1.00  0.00     0.026 A 
HETATM    2  C2  UNL     1       2.496   8.391  -1.913  1.00  0.00     0.038 A 
HETATM    3  C3  UNL     1       1.165   8.629  -2.228  1.00  0.00     0.065 A 
HETATM    4  C4  UNL     1       0.791   9.799  -2.880  1.00  0.00     0.038 A 
HETATM    5  C5  UNL     1       1.767  10.747  -3.201  1.00  0.00     0.026 A 
HETATM    6  C6  UNL     1       3.103  10.552  -2.840  1.00  0.00     0.005 A 
ENDROOT
BRANCH   6   7
HETATM    7  N1  UNL     1       4.088  11.448  -3.270  1.00  0.00    -0.303 NA
HETATM    8  H5  UNL     1       5.002  11.278  -2.860  1.00  0.00     0.124 HD
HETATM    9  H6  UNL     1       3.812  12.422  -3.208  1.00  0.00     0.124 HD
ENDBRANCH   6   7
BRANCH   3  10
HETATM   10  O1  UNL     1       0.250   7.676  -1.897  1.00  0.00    -0.361 OA
HETATM   11  H7  UNL     1      -0.279   8.001  -1.151  1.00  0.00     0.217 HD
ENDBRANCH   3  10
TORSDOF 2
ENDMDL
MODEL 5
REMARK VINA RESULT:      -4.9      1.892      2.444
REMARK  2 active torsions:
REMARK  status: ('A' for Active; 'I' for Inactive)
REMARK    1  A    between atoms: C3_3  and  O1_8 
REMARK    2  A    between atoms: C6_6  and  N1_7 
ROOT
HETATM    1  C1  UNL     1       2.785   8.324  -1.851  1.00  0.00     0.026 A 
HETATM    2  C2  UNL     1       3.854   9.187  -2.102  1.00  0.00     0.038 A 
HETATM    3  C3  UNL     1       3.624  10.403  -2.730  1.00  0.00     0.065 A 
HETATM    4  C4  UNL     1       2.336  10.777  -3.097  1.00  0.00     0.038 A 
HETATM    5  C5  UNL     1       1.271   9.908  -2.844  1.00  0.00     0.026 A 
HETATM    6  C6  UNL     1       1.491   8.653  -2.265  1.00  0.00     0.005 A 
ENDROOT
BRANCH   6   7
HETATM    7  N1  UNL     1       0.408   7.842  -1.908  1.00  0.00    -0.303 NA
HETATM    8  H5  UNL     1       0.300   7.023  -2.498  1.00  0.00     0.124 HD
HETATM    9  H6  UNL     1      -0.462   8.349  -1.787  1.00  0.00     0.124 HD
ENDBRANCH   6   7
BRANCH   3  10
HETATM   10  O1  UNL     1       4.693  11.218  -2.955  1.00  0.00    -0.361 OA
HETATM   11  H7  UNL     1       5.227  11.259  -2.145  1.00  0.00     0.217 HD
ENDBRANCH   3  10
TORSDOF 2
ENDMDL
MODEL 6
REMARK VINA RESULT:      -4.7      4.412      5.328
REMARK  2 active torsions:
REMARK  status: ('A' for Active; 'I' for Inactive)
REMARK    1  A    between atoms: C3_3  and  O1_8 
REMARK    2  A    between atoms: C6_6  and  N1_7 
ROOT
HETATM    1  C1  UNL     1       7.101   8.252  -0.863  1.00  0.00     0.026 A 
HETATM    2  C2  UNL     1       5.849   7.658  -1.030  1.00  0.00     0.038 A 
HETATM    3  C3  UNL     1       4.821   8.374  -1.626  1.00  0.00     0.065 A 
HETATM    4  C4  UNL     1       5.031   9.674  -2.074  1.00  0.00     0.038 A 
HETATM    5  C5  UNL     1       6.287  10.263  -1.902  1.00  0.00     0.026 A 
HETATM    6  C6  UNL     1       7.318   9.578  -1.251  1.00  0.00     0.005 A 
ENDROOT
BRANCH   6   7
HETATM    7  N1  UNL     1       8.603  10.130  -1.190  1.00  0.00    -0.303 NA
HETATM    8  H5  UNL     1       9.198   9.702  -0.488  1.00  0.00     0.124 HD
HETATM    9  H6  UNL     1       8.612  11.143  -1.139  1.00  0.00     0.124 HD
ENDBRANCH   6   7
BRANCH   3  10
HETATM   10  O1  UNL     1       3.615   7.758  -1.773  1.00  0.00    -0.361 OA
HETATM   11  H7  UNL     1       3.029   8.341  -2.284  1.00  0.00     0.217 HD
ENDBRANCH   3  10
TORSDOF 2
ENDMDL
MODEL 7
REMARK VINA RESULT:      -4.7      1.408      2.415
REMARK  2 active torsions:
REMARK  status: ('A' for Active; 'I' for Inactive)
REMARK    1  A    between atoms: C3_3  and  O1_8 
REMARK    2  A    between atoms: C6_6  and  N1_7 
ROOT
HETATM    1  C1  UNL     1       4.077  10.532  -3.003  1.00  0.00     0.026 A 
HETATM    2  C2  UNL     1       4.772   9.451  -2.456  1.00  0.00     0.038 A 
HETATM    3  C3  UNL     1       4.069   8.382  -1.919  1.00  0.00     0.065 A 
HETATM    4  C4  UNL     1       2.678   8.370  -1.935  1.00  0.00     0.038 A 
HETATM    5  C5  UNL     1       1.990   9.456  -2.482  1.00  0.00     0.026 A 
HETATM    6  C6  UNL     1       2.680  10.568  -2.976  1.00  0.00     0.005 A 
ENDROOT
BRANCH   6   7
HETATM    7  N1  UNL     1       1.988  11.595  -3.629  1.00  0.00    -0.303 NA
HETATM    8  H5  UNL     1       1.011  11.664  -3.359  1.00  0.00     0.124 HD
HETATM    9  H6  UNL     1       2.112  11.598  -4.635  1.00  0.00     0.124 HD
ENDBRANCH   6   7
BRANCH   3  10
HETATM   10  O1  UNL     1       4.783   7.345  -1.397  1.00  0.00    -0.361 OA
HETATM   11  H7  UNL     1       5.561   7.193  -1.957  1.00  0.00     0.217 HD
ENDBRANCH   3  10
TORSDOF 2
ENDMDL
MODEL 8
REMARK VINA RESULT:      -4.6      2.992      3.548
REMARK  2 active torsions:
REMARK  status: ('A' for Active; 'I' for Inactive)
REMARK    1  A    between atoms: C3_3  and  O1_8 
REMARK    2  A    between atoms: C6_6  and  N1_7 
ROOT
HETATM    1  C1  UNL     1       2.599   8.370  -1.946  1.00  0.00     0.026 A 
HETATM    2  C2  UNL     1       1.809   9.380  -2.500  1.00  0.00     0.038 A 
HETATM    3  C3  UNL     1       2.414  10.496  -3.062  1.00  0.00     0.065 A 
HETATM    4  C4  UNL     1       3.800  10.610  -3.092  1.00  0.00     0.038 A 
HETATM    5  C5  UNL     1       4.583   9.595  -2.534  1.00  0.00     0.026 A 
HETATM    6  C6  UNL     1       3.991   8.492  -1.912  1.00  0.00     0.005 A 
ENDROOT
BRANCH   6   7
HETATM    7  N1  UNL     1       4.782   7.427  -1.463  1.00  0.00    -0.303 NA
HETATM    8  H5  UNL     1       4.358   6.516  -1.607  1.00  0.00     0.124 HD
HETATM    9  H6  UNL     1       5.132   7.546  -0.519  1.00  0.00     0.124 HD
ENDBRANCH   6   7
BRANCH   3  10
HETATM   10  O1  UNL     1       1.610  11.458  -3.595  1.00  0.00    -0.361 OA
HETATM   11  H7  UNL     1       1.398  11.213  -4.510  1.00  0.00     0.217 HD
ENDBRANCH   3  10
TORSDOF 2
ENDMDL
MODEL 9
REMARK VINA RESULT:      -4.5      2.916      3.792
REMARK  2 active torsions:
REMARK  status: ('A' for Active; 'I' for Inactive)
REMARK    1  A    between atoms: C3_3  and  O1_8 
REMARK    2  A    between atoms: C6_6  and  N1_7 
ROOT
HETATM    1  C1  UNL     1       2.882  11.462  -3.545  1.00  0.00     0.026 A 
HETATM    2  C2  UNL     1       1.501  11.488  -3.747  1.00  0.00     0.038 A 
HETATM    3  C3  UNL     1       0.703  10.510  -3.169  1.00  0.00     0.065 A 
HETATM    4  C4  UNL     1       1.265   9.514  -2.378  1.00  0.00     0.038 A 
HETATM    5  C5  UNL     1       2.649   9.494  -2.182  1.00  0.00     0.026 A 
HETATM    6  C6  UNL     1       3.475  10.436  -2.803  1.00  0.00     0.005 A 
ENDROOT
BRANCH   6   7
HETATM    7  N1  UNL     1       4.842  10.481  -2.505  1.00  0.00    -0.303 NA
HETATM    8  H5  UNL     1       5.056  10.974  -1.644  1.00  0.00     0.124 HD
HETATM    9  H6  UNL     1       5.421  10.787  -3.280  1.00  0.00     0.124 HD
ENDBRANCH   6   7
BRANCH   3  10
HETATM   10  O1  UNL     1      -0.641  10.571  -3.388  1.00  0.00    -0.361 OA
HETATM   11  H7  UNL     1      -0.799  10.564  -4.345  1.00  0.00     0.217 HD
ENDBRANCH   3  10
TORSDOF 2
ENDMDL
