MODEL 1
REMARK VINA RESULT:      -6.9      0.000      0.000
REMARK  27 active torsions:
REMARK  status: ('A' for Active; 'I' for Inactive)
REMARK    1  A    between atoms: C2_2  and  S1_4 
REMARK    2  A    between atoms: S1_4  and  C3_5 
REMARK    3  A    between atoms: C3_5  and  C4_6 
REMARK    4  A    between atoms: C4_6  and  N1_7 
REMARK       I    between atoms: N1_7  and  C5_8 
REMARK    5  A    between atoms: C5_8  and  C6_10 
REMARK    6  A    between atoms: C6_10  and  C7_11 
REMARK    7  A    between atoms: C7_11  and  N2_12 
REMARK       I    between atoms: N2_12  and  C8_13 
REMARK    8  A    between atoms: C8_13  and  C9_15 
REMARK    9  A    between atoms: C9_15  and  C10_16 
REMARK   10  A    between atoms: C9_15  and  O17_54 
REMARK   11  A    between atoms: C10_16  and  C13_19 
REMARK   12  A    between atoms: C13_19  and  O4_20 
REMARK   13  A    between atoms: O4_20  and  P1_21 
REMARK   14  A    between atoms: P1_21  and  O6_23 
REMARK   15  A    between atoms: P1_21  and  O7_24 
REMARK   16  A    between atoms: O7_24  and  P2_25 
REMARK   17  A    between atoms: P2_25  and  O9_27 
REMARK   18  A    between atoms: P2_25  and  O10_28 
REMARK   19  A    between atoms: O10_28  and  C14_29 
REMARK   20  A    between atoms: C14_29  and  C15_30 
REMARK   21  A    between atoms: C16_31  and  O13_49 
REMARK   22  A    between atoms: C17_32  and  O12_48 
REMARK   23  A    between atoms: C18_33  and  N3_35 
REMARK   24  A    between atoms: C21_40  and  N7_47 
REMARK   25  A    between atoms: O13_49  and  P3_50 
REMARK   26  A    between atoms: P3_50  and  O15_52 
REMARK   27  A    between atoms: P3_50  and  O16_53 
ROOT
HETATM    1  C1  UNL     1       3.615   8.401  -2.237  1.00  0.00     0.104 C 
HETATM    2  C2  UNL     1       3.790   9.137  -3.530  1.00  0.00     0.182 C 
HETATM    3  O1  UNL     1       3.881   8.575  -4.619  1.00  0.00    -0.286 OA
ENDROOT
BRANCH   2   4
HETATM    4  S1  UNL     1       3.895  10.884  -3.362  1.00  0.00    -0.091 SA
BRANCH   4   5
HETATM    5  C3  UNL     1       5.695  11.117  -3.522  1.00  0.00     0.102 C 
BRANCH   5   6
HETATM    6  C4  UNL     1       6.428  10.806  -2.216  1.00  0.00     0.133 C 
BRANCH   6   7
HETATM    7  N1  UNL     1       7.392  11.826  -1.859  1.00  0.00    -0.360 N 
HETATM    8  C5  UNL     1       8.536  11.528  -1.156  1.00  0.00     0.219 C 
HETATM    9  O2  UNL     1       8.770  10.406  -0.722  1.00  0.00    -0.274 OA
HETATM   10  H8  UNL     1       7.218  12.781  -2.144  1.00  0.00     0.162 HD
BRANCH   8  11
HETATM   11  C6  UNL     1       9.434  12.726  -0.936  1.00  0.00     0.122 C 
BRANCH  11  12
HETATM   12  C7  UNL     1      10.842  12.492  -1.482  1.00  0.00     0.132 C 
BRANCH  12  13
HETATM   13  N2  UNL     1      11.535  13.721  -1.807  1.00  0.00    -0.358 N 
HETATM   14  C8  UNL     1      12.587  14.156  -1.021  1.00  0.00     0.247 C 
HETATM   15  O3  UNL     1      12.892  13.600   0.026  1.00  0.00    -0.271 OA
HETATM   16  H13 UNL     1      11.564  13.960  -2.796  1.00  0.00     0.162 HD
BRANCH  14  17
HETATM   17  C9  UNL     1      13.345  15.372  -1.575  1.00  0.00     0.219 C 
BRANCH  17  18
HETATM   18  C10 UNL     1      14.867  15.144  -1.774  1.00  0.00     0.009 C 
HETATM   19  C11 UNL     1      15.185  13.705  -2.207  1.00  0.00     0.020 C 
HETATM   20  C12 UNL     1      15.448  16.100  -2.835  1.00  0.00     0.020 C 
BRANCH  18  21
HETATM   21  C13 UNL     1      15.525  15.431  -0.393  1.00  0.00     0.192 C 
BRANCH  21  22
HETATM   22  O4  UNL     1      14.868  16.465   0.311  1.00  0.00    -0.296 OA
BRANCH  22  23
HETATM   23  P1  UNL     1      15.565  17.871   0.642  1.00  0.00     0.401 P 
HETATM   24  O5  UNL     1      14.806  19.062   0.145  1.00  0.00    -0.631 OA
BRANCH  23  25
HETATM   25  O6  UNL     1      17.073  17.785   0.087  1.00  0.00    -0.307 OA
HETATM   26  H23 UNL     1      17.719  18.064   0.750  1.00  0.00     0.222 HD
ENDBRANCH  23  25
BRANCH  23  27
HETATM   27  O7  UNL     1      15.811  17.848   2.213  1.00  0.00    -0.195 OA
BRANCH  27  28
HETATM   28  P2  UNL     1      15.228  19.036   3.101  1.00  0.00     0.401 P 
HETATM   29  O8  UNL     1      15.925  20.354   3.009  1.00  0.00    -0.631 OA
BRANCH  28  30
HETATM   30  O9  UNL     1      13.688  19.083   2.685  1.00  0.00    -0.307 OA
HETATM   31  H24 UNL     1      13.473  19.773   2.011  1.00  0.00     0.222 HD
ENDBRANCH  28  30
BRANCH  28  32
HETATM   32  O10 UNL     1      15.118  18.406   4.565  1.00  0.00    -0.294 OA
BRANCH  32  33
HETATM   33  C14 UNL     1      14.937  19.242   5.677  1.00  0.00     0.215 C 
BRANCH  33  34
HETATM   34  C15 UNL     1      13.513  18.994   6.170  1.00  0.00     0.180 C 
HETATM   35  C16 UNL     1      13.547  18.454   7.594  1.00  0.00     0.197 C 
HETATM   36  C17 UNL     1      12.924  17.074   7.497  1.00  0.00     0.199 C 
HETATM   37  C18 UNL     1      12.038  17.206   6.256  1.00  0.00     0.262 C 
HETATM   38  O11 UNL     1      12.798  18.050   5.363  1.00  0.00    -0.353 OA
BRANCH  35  39
HETATM   39  O13 UNL     1      12.783  19.331   8.416  1.00  0.00    -0.286 OA
BRANCH  39  40
HETATM   40  P3  UNL     1      13.519  19.854   9.735  1.00  0.00     0.391 P 
HETATM   41  O14 UNL     1      13.153  21.252  10.115  1.00  0.00    -0.632 OA
BRANCH  40  42
HETATM   42  O15 UNL     1      15.047  19.564   9.360  1.00  0.00    -0.307 OA
HETATM   43  H36 UNL     1      15.110  19.085   8.500  1.00  0.00     0.222 HD
ENDBRANCH  40  42
BRANCH  40  44
HETATM   44  O16 UNL     1      13.175  18.696  10.769  1.00  0.00    -0.307 OA
HETATM   45  H37 UNL     1      12.372  18.877  11.284  1.00  0.00     0.222 HD
ENDBRANCH  40  44
ENDBRANCH  39  40
ENDBRANCH  35  39
BRANCH  36  46
HETATM   46  O12 UNL     1      12.283  16.732   8.728  1.00  0.00    -0.388 OA
HETATM   47  H35 UNL     1      11.965  15.803   8.628  1.00  0.00     0.210 HD
ENDBRANCH  36  46
BRANCH  37  48
HETATM   48  N3  UNL     1      11.800  15.934   5.604  1.00  0.00    -0.297 N 
HETATM   49  C19 UNL     1      10.632  15.207   5.600  1.00  0.00     0.188 A 
HETATM   50  N4  UNL     1      10.701  14.157   4.811  1.00  0.00    -0.346 N 
HETATM   51  C20 UNL     1      11.975  14.207   4.274  1.00  0.00     0.116 A 
HETATM   52  H4  UNL     1       9.977  13.461   4.635  1.00  0.00     0.167 HD
HETATM   53  C21 UNL     1      12.647  13.403   3.337  1.00  0.00     0.109 A 
HETATM   54  C23 UNL     1      12.680  15.281   4.787  1.00  0.00     0.142 A 
HETATM   55  N5  UNL     1      13.926  13.712   3.015  1.00  0.00    -0.341 N 
HETATM   56  C22 UNL     1      14.496  14.777   3.614  1.00  0.00     0.183 A 
HETATM   57  H5  UNL     1      14.444  13.153   2.336  1.00  0.00     0.167 HD
HETATM   58  N6  UNL     1      13.952  15.621   4.514  1.00  0.00    -0.336 N 
HETATM   59  H6  UNL     1      14.441  16.413   4.932  1.00  0.00     0.168 HD
BRANCH  53  60
HETATM   60  N7  UNL     1      12.071  12.298   2.730  1.00  0.00    -0.287 NA
HETATM   61  H33 UNL     1      12.732  11.692   2.249  1.00  0.00     0.125 HD
HETATM   62  H34 UNL     1      11.215  12.520   2.238  1.00  0.00     0.125 HD
ENDBRANCH  53  60
ENDBRANCH  37  48
ENDBRANCH  33  34
ENDBRANCH  32  33
ENDBRANCH  28  32
ENDBRANCH  27  28
ENDBRANCH  23  27
ENDBRANCH  22  23
ENDBRANCH  21  22
ENDBRANCH  18  21
ENDBRANCH  17  18
BRANCH  17  63
HETATM   63  O17 UNL     1      12.779  15.777  -2.827  1.00  0.00    -0.385 OA
HETATM   64  H38 UNL     1      13.205  16.608  -3.095  1.00  0.00     0.210 HD
ENDBRANCH  17  63
ENDBRANCH  14  17
ENDBRANCH  12  13
ENDBRANCH  11  12
ENDBRANCH   8  11
ENDBRANCH   6   7
ENDBRANCH   5   6
ENDBRANCH   4   5
ENDBRANCH   2   4
TORSDOF 27
ENDMDL
MODEL 2
REMARK VINA RESULT:      -6.6     10.437     15.382
REMARK  27 active torsions:
REMARK  status: ('A' for Active; 'I' for Inactive)
REMARK    1  A    between atoms: C2_2  and  S1_4 
REMARK    2  A    between atoms: S1_4  and  C3_5 
REMARK    3  A    between atoms: C3_5  and  C4_6 
REMARK    4  A    between atoms: C4_6  and  N1_7 
REMARK       I    between atoms: N1_7  and  C5_8 
REMARK    5  A    between atoms: C5_8  and  C6_10 
REMARK    6  A    between atoms: C6_10  and  C7_11 
REMARK    7  A    between atoms: C7_11  and  N2_12 
REMARK       I    between atoms: N2_12  and  C8_13 
REMARK    8  A    between atoms: C8_13  and  C9_15 
REMARK    9  A    between atoms: C9_15  and  C10_16 
REMARK   10  A    between atoms: C9_15  and  O17_54 
REMARK   11  A    between atoms: C10_16  and  C13_19 
REMARK   12  A    between atoms: C13_19  and  O4_20 
REMARK   13  A    between atoms: O4_20  and  P1_21 
REMARK   14  A    between atoms: P1_21  and  O6_23 
REMARK   15  A    between atoms: P1_21  and  O7_24 
REMARK   16  A    between atoms: O7_24  and  P2_25 
REMARK   17  A    between atoms: P2_25  and  O9_27 
REMARK   18  A    between atoms: P2_25  and  O10_28 
REMARK   19  A    between atoms: O10_28  and  C14_29 
REMARK   20  A    between atoms: C14_29  and  C15_30 
REMARK   21  A    between atoms: C16_31  and  O13_49 
REMARK   22  A    between atoms: C17_32  and  O12_48 
REMARK   23  A    between atoms: C18_33  and  N3_35 
REMARK   24  A    between atoms: C21_40  and  N7_47 
REMARK   25  A    between atoms: O13_49  and  P3_50 
REMARK   26  A    between atoms: P3_50  and  O15_52 
REMARK   27  A    between atoms: P3_50  and  O16_53 
ROOT
HETATM    1  C1  UNL     1      -8.527  19.143  -4.491  1.00  0.00     0.104 C 
HETATM    2  C2  UNL     1      -9.026  18.940  -5.889  1.00  0.00     0.182 C 
HETATM    3  O1  UNL     1      -9.286  17.835  -6.359  1.00  0.00    -0.286 OA
ENDROOT
BRANCH   2   4
HETATM    4  S1  UNL     1      -9.176  20.420  -6.827  1.00  0.00    -0.091 SA
BRANCH   4   5
HETATM    5  C3  UNL     1      -7.456  21.017  -6.767  1.00  0.00     0.102 C 
BRANCH   5   6
HETATM    6  C4  UNL     1      -6.968  21.488  -8.139  1.00  0.00     0.133 C 
BRANCH   6   7
HETATM    7  N1  UNL     1      -5.621  21.046  -8.435  1.00  0.00    -0.360 N 
HETATM    8  C5  UNL     1      -4.581  21.257  -7.560  1.00  0.00     0.219 C 
HETATM    9  O2  UNL     1      -4.710  21.897  -6.523  1.00  0.00    -0.274 OA
HETATM   10  H8  UNL     1      -5.448  20.563  -9.307  1.00  0.00     0.162 HD
BRANCH   8  11
HETATM   11  C6  UNL     1      -3.270  20.669  -8.035  1.00  0.00     0.122 C 
BRANCH  11  12
HETATM   12  C7  UNL     1      -2.171  21.727  -8.131  1.00  0.00     0.132 C 
BRANCH  12  13
HETATM   13  N2  UNL     1      -0.837  21.171  -8.041  1.00  0.00    -0.358 N 
HETATM   14  C8  UNL     1      -0.322  20.791  -6.816  1.00  0.00     0.247 C 
HETATM   15  O3  UNL     1      -0.908  21.014  -5.765  1.00  0.00    -0.271 OA
HETATM   16  H13 UNL     1      -0.523  20.653  -8.860  1.00  0.00     0.162 HD
BRANCH  14  17
HETATM   17  C9  UNL     1       1.025  20.055  -6.884  1.00  0.00     0.219 C 
BRANCH  17  18
HETATM   18  C10 UNL     1       0.960  18.557  -6.484  1.00  0.00     0.009 C 
HETATM   19  C11 UNL     1       1.233  18.346  -4.988  1.00  0.00     0.020 C 
HETATM   20  C12 UNL     1      -0.419  17.946  -6.807  1.00  0.00     0.020 C 
BRANCH  18  21
HETATM   21  C13 UNL     1       2.059  17.844  -7.322  1.00  0.00     0.192 C 
BRANCH  21  22
HETATM   22  O4  UNL     1       2.428  16.594  -6.774  1.00  0.00    -0.296 OA
BRANCH  22  23
HETATM   23  P1  UNL     1       3.911  16.274  -6.256  1.00  0.00     0.401 P 
HETATM   24  O5  UNL     1       4.746  17.489  -6.003  1.00  0.00    -0.631 OA
BRANCH  23  25
HETATM   25  O6  UNL     1       4.561  15.247  -7.312  1.00  0.00    -0.307 OA
HETATM   26  H23 UNL     1       3.910  14.625  -7.659  1.00  0.00     0.222 HD
ENDBRANCH  23  25
BRANCH  23  27
HETATM   27  O7  UNL     1       3.709  15.330  -4.991  1.00  0.00    -0.195 OA
BRANCH  27  28
HETATM   28  P2  UNL     1       3.802  13.752  -5.185  1.00  0.00     0.401 P 
HETATM   29  O8  UNL     1       3.135  13.178  -6.393  1.00  0.00    -0.631 OA
BRANCH  28  30
HETATM   30  O9  UNL     1       5.371  13.465  -5.111  1.00  0.00    -0.307 OA
HETATM   31  H24 UNL     1       5.613  12.687  -4.551  1.00  0.00     0.222 HD
ENDBRANCH  28  30
BRANCH  28  32
HETATM   32  O10 UNL     1       3.328  13.161  -3.779  1.00  0.00    -0.294 OA
BRANCH  32  33
HETATM   33  C14 UNL     1       2.270  12.241  -3.725  1.00  0.00     0.215 C 
BRANCH  33  34
HETATM   34  C15 UNL     1       2.905  10.855  -3.816  1.00  0.00     0.180 C 
HETATM   35  C16 UNL     1       2.283   9.933  -2.775  1.00  0.00     0.197 C 
HETATM   36  C17 UNL     1       3.434   9.549  -1.866  1.00  0.00     0.199 C 
HETATM   37  C18 UNL     1       4.645   9.718  -2.787  1.00  0.00     0.262 C 
HETATM   38  O11 UNL     1       4.320  10.872  -3.594  1.00  0.00    -0.353 OA
BRANCH  35  39
HETATM   39  O13 UNL     1       1.736   8.807  -3.453  1.00  0.00    -0.286 OA
BRANCH  39  40
HETATM   40  P3  UNL     1       0.237   8.423  -3.051  1.00  0.00     0.391 P 
HETATM   41  O14 UNL     1      -0.506   7.693  -4.123  1.00  0.00    -0.632 OA
BRANCH  40  42
HETATM   42  O15 UNL     1      -0.327   9.850  -2.599  1.00  0.00    -0.307 OA
HETATM   43  H36 UNL     1      -0.959   9.753  -1.847  1.00  0.00     0.222 HD
ENDBRANCH  40  42
BRANCH  40  44
HETATM   44  O16 UNL     1       0.465   7.669  -1.670  1.00  0.00    -0.307 OA
HETATM   45  H37 UNL     1       1.278   7.141  -1.659  1.00  0.00     0.222 HD
ENDBRANCH  40  44
ENDBRANCH  39  40
ENDBRANCH  35  39
BRANCH  36  46
HETATM   46  O12 UNL     1       3.212   8.252  -1.305  1.00  0.00    -0.388 OA
HETATM   47  H35 UNL     1       2.896   8.398  -0.382  1.00  0.00     0.210 HD
ENDBRANCH  36  46
BRANCH  37  48
HETATM   48  N3  UNL     1       5.867   9.989  -2.057  1.00  0.00    -0.297 N 
HETATM   49  C19 UNL     1       6.730   9.069  -1.511  1.00  0.00     0.188 A 
HETATM   50  N4  UNL     1       7.815   9.631  -1.023  1.00  0.00    -0.346 N 
HETATM   51  C20 UNL     1       7.648  10.982  -1.268  1.00  0.00     0.116 A 
HETATM   52  H4  UNL     1       8.603   9.173  -0.565  1.00  0.00     0.167 HD
HETATM   53  C21 UNL     1       8.464  12.102  -1.030  1.00  0.00     0.109 A 
HETATM   54  C23 UNL     1       6.428  11.222  -1.873  1.00  0.00     0.142 A 
HETATM   55  N5  UNL     1       8.004  13.327  -1.384  1.00  0.00    -0.341 N 
HETATM   56  C22 UNL     1       6.782  13.412  -1.945  1.00  0.00     0.183 A 
HETATM   57  H5  UNL     1       8.569  14.162  -1.230  1.00  0.00     0.167 HD
HETATM   58  N6  UNL     1       5.919  12.415  -2.229  1.00  0.00    -0.336 N 
HETATM   59  H6  UNL     1       5.002  12.548  -2.656  1.00  0.00     0.168 HD
BRANCH  53  60
HETATM   60  N7  UNL     1       9.715  12.021  -0.440  1.00  0.00    -0.287 NA
HETATM   61  H33 UNL     1      10.347  11.360  -0.886  1.00  0.00     0.125 HD
HETATM   62  H34 UNL     1       9.675  12.002   0.570  1.00  0.00     0.125 HD
ENDBRANCH  53  60
ENDBRANCH  37  48
ENDBRANCH  33  34
ENDBRANCH  32  33
ENDBRANCH  28  32
ENDBRANCH  27  28
ENDBRANCH  23  27
ENDBRANCH  22  23
ENDBRANCH  21  22
ENDBRANCH  18  21
ENDBRANCH  17  18
BRANCH  17  63
HETATM   63  O17 UNL     1       1.572  20.150  -8.204  1.00  0.00    -0.385 OA
HETATM   64  H38 UNL     1       1.302  21.003  -8.581  1.00  0.00     0.210 HD
ENDBRANCH  17  63
ENDBRANCH  14  17
ENDBRANCH  12  13
ENDBRANCH  11  12
ENDBRANCH   8  11
ENDBRANCH   6   7
ENDBRANCH   5   6
ENDBRANCH   4   5
ENDBRANCH   2   4
TORSDOF 27
ENDMDL
MODEL 3
REMARK VINA RESULT:      -6.3      5.374      9.918
REMARK  27 active torsions:
REMARK  status: ('A' for Active; 'I' for Inactive)
REMARK    1  A    between atoms: C2_2  and  S1_4 
REMARK    2  A    between atoms: S1_4  and  C3_5 
REMARK    3  A    between atoms: C3_5  and  C4_6 
REMARK    4  A    between atoms: C4_6  and  N1_7 
REMARK       I    between atoms: N1_7  and  C5_8 
REMARK    5  A    between atoms: C5_8  and  C6_10 
REMARK    6  A    between atoms: C6_10  and  C7_11 
REMARK    7  A    between atoms: C7_11  and  N2_12 
REMARK       I    between atoms: N2_12  and  C8_13 
REMARK    8  A    between atoms: C8_13  and  C9_15 
REMARK    9  A    between atoms: C9_15  and  C10_16 
REMARK   10  A    between atoms: C9_15  and  O17_54 
REMARK   11  A    between atoms: C10_16  and  C13_19 
REMARK   12  A    between atoms: C13_19  and  O4_20 
REMARK   13  A    between atoms: O4_20  and  P1_21 
REMARK   14  A    between atoms: P1_21  and  O6_23 
REMARK   15  A    between atoms: P1_21  and  O7_24 
REMARK   16  A    between atoms: O7_24  and  P2_25 
REMARK   17  A    between atoms: P2_25  and  O9_27 
REMARK   18  A    between atoms: P2_25  and  O10_28 
REMARK   19  A    between atoms: O10_28  and  C14_29 
REMARK   20  A    between atoms: C14_29  and  C15_30 
REMARK   21  A    between atoms: C16_31  and  O13_49 
REMARK   22  A    between atoms: C17_32  and  O12_48 
REMARK   23  A    between atoms: C18_33  and  N3_35 
REMARK   24  A    between atoms: C21_40  and  N7_47 
REMARK   25  A    between atoms: O13_49  and  P3_50 
REMARK   26  A    between atoms: P3_50  and  O15_52 
REMARK   27  A    between atoms: P3_50  and  O16_53 
ROOT
HETATM    1  C1  UNL     1       2.350  21.529  -4.625  1.00  0.00     0.104 C 
HETATM    2  C2  UNL     1       2.726  20.892  -5.928  1.00  0.00     0.182 C 
HETATM    3  O1  UNL     1       3.841  20.426  -6.153  1.00  0.00    -0.286 OA
ENDROOT
BRANCH   2   4
HETATM    4  S1  UNL     1       1.448  20.900  -7.135  1.00  0.00    -0.091 SA
BRANCH   4   5
HETATM    5  C3  UNL     1       1.057  19.122  -7.204  1.00  0.00     0.102 C 
BRANCH   5   6
HETATM    6  C4  UNL     1       2.010  18.364  -8.131  1.00  0.00     0.133 C 
BRANCH   6   7
HETATM    7  N1  UNL     1       2.969  17.555  -7.407  1.00  0.00    -0.360 N 
HETATM    8  C5  UNL     1       2.727  16.232  -7.118  1.00  0.00     0.219 C 
HETATM    9  O2  UNL     1       1.663  15.683  -7.381  1.00  0.00    -0.274 OA
HETATM   10  H8  UNL     1       3.840  17.977  -7.116  1.00  0.00     0.162 HD
BRANCH   8  11
HETATM   11  C6  UNL     1       3.878  15.554  -6.406  1.00  0.00     0.122 C 
BRANCH  11  12
HETATM   12  C7  UNL     1       3.493  14.168  -5.891  1.00  0.00     0.132 C 
BRANCH  12  13
HETATM   13  N2  UNL     1       4.405  13.662  -4.886  1.00  0.00    -0.358 N 
HETATM   14  C8  UNL     1       3.942  12.839  -3.877  1.00  0.00     0.247 C 
HETATM   15  O3  UNL     1       2.750  12.604  -3.722  1.00  0.00    -0.271 OA
HETATM   16  H13 UNL     1       5.365  13.526  -5.195  1.00  0.00     0.162 HD
BRANCH  14  17
HETATM   17  C9  UNL     1       5.037  12.233  -2.986  1.00  0.00     0.219 C 
BRANCH  17  18
HETATM   18  C10 UNL     1       5.144  10.688  -3.061  1.00  0.00     0.009 C 
HETATM   19  C11 UNL     1       4.251   9.994  -2.022  1.00  0.00     0.020 C 
HETATM   20  C12 UNL     1       4.749  10.160  -4.455  1.00  0.00     0.020 C 
BRANCH  18  21
HETATM   21  C13 UNL     1       6.636  10.350  -2.776  1.00  0.00     0.192 C 
BRANCH  21  22
HETATM   22  O4  UNL     1       6.797   9.567  -1.610  1.00  0.00    -0.296 OA
BRANCH  22  23
HETATM   23  P1  UNL     1       7.778   9.982  -0.412  1.00  0.00     0.401 P 
HETATM   24  O5  UNL     1       8.142   8.853   0.500  1.00  0.00    -0.631 OA
BRANCH  23  25
HETATM   25  O6  UNL     1       7.092  11.229   0.340  1.00  0.00    -0.307 OA
HETATM   26  H23 UNL     1       6.591  10.951   1.118  1.00  0.00     0.222 HD
ENDBRANCH  23  25
BRANCH  23  27
HETATM   27  O7  UNL     1       9.015  10.691  -1.120  1.00  0.00    -0.195 OA
BRANCH  27  28
HETATM   28  P2  UNL     1       9.372  12.192  -0.724  1.00  0.00     0.401 P 
HETATM   29  O8  UNL     1       8.356  13.238  -1.049  1.00  0.00    -0.631 OA
BRANCH  28  30
HETATM   30  O9  UNL     1       9.725  12.087   0.830  1.00  0.00    -0.307 OA
HETATM   31  H24 UNL     1      10.363  11.366   1.051  1.00  0.00     0.222 HD
ENDBRANCH  28  30
BRANCH  28  32
HETATM   32  O10 UNL     1      10.827  12.418  -1.341  1.00  0.00    -0.294 OA
BRANCH  32  33
HETATM   33  C14 UNL     1      11.543  13.588  -1.042  1.00  0.00     0.215 C 
BRANCH  33  34
HETATM   34  C15 UNL     1      12.953  13.139  -0.658  1.00  0.00     0.180 C 
HETATM   35  C16 UNL     1      13.468  13.988   0.496  1.00  0.00     0.197 C 
HETATM   36  C17 UNL     1      14.684  14.701  -0.064  1.00  0.00     0.199 C 
HETATM   37  C18 UNL     1      15.126  13.754  -1.183  1.00  0.00     0.262 C 
HETATM   38  O11 UNL     1      13.888  13.255  -1.736  1.00  0.00    -0.353 OA
BRANCH  35  39
HETATM   39  O13 UNL     1      13.803  13.116   1.570  1.00  0.00    -0.286 OA
BRANCH  39  40
HETATM   40  P3  UNL     1      13.077  13.424   2.961  1.00  0.00     0.391 P 
HETATM   41  O14 UNL     1      11.687  12.884   3.047  1.00  0.00    -0.632 OA
BRANCH  40  42
HETATM   42  O15 UNL     1      13.262  15.011   3.050  1.00  0.00    -0.307 OA
HETATM   43  H36 UNL     1      12.389  15.467   3.000  1.00  0.00     0.222 HD
ENDBRANCH  40  42
BRANCH  40  44
HETATM   44  O16 UNL     1      14.147  12.877   4.003  1.00  0.00    -0.307 OA
HETATM   45  H37 UNL     1      14.035  13.254   4.890  1.00  0.00     0.222 HD
ENDBRANCH  40  44
ENDBRANCH  39  40
ENDBRANCH  35  39
BRANCH  36  46
HETATM   46  O12 UNL     1      15.626  14.969   0.979  1.00  0.00    -0.388 OA
HETATM   47  H35 UNL     1      15.889  15.915   0.880  1.00  0.00     0.210 HD
ENDBRANCH  36  46
BRANCH  37  48
HETATM   48  N3  UNL     1      15.863  14.435  -2.229  1.00  0.00    -0.297 N 
HETATM   49  C19 UNL     1      17.147  14.172  -2.647  1.00  0.00     0.188 A 
HETATM   50  N4  UNL     1      17.483  14.882  -3.702  1.00  0.00    -0.346 N 
HETATM   51  C20 UNL     1      16.359  15.638  -3.986  1.00  0.00     0.116 A 
HETATM   52  H4  UNL     1      18.372  14.875  -4.201  1.00  0.00     0.167 HD
HETATM   53  C21 UNL     1      16.063  16.557  -5.007  1.00  0.00     0.109 A 
HETATM   54  C23 UNL     1      15.362  15.400  -3.057  1.00  0.00     0.142 A 
HETATM   55  N5  UNL     1      14.847  17.157  -5.007  1.00  0.00    -0.341 N 
HETATM   56  C22 UNL     1      13.981  16.844  -4.023  1.00  0.00     0.183 A 
HETATM   57  H5  UNL     1      14.594  17.827  -5.734  1.00  0.00     0.167 HD
HETATM   58  N6  UNL     1      14.149  15.978  -3.003  1.00  0.00    -0.336 N 
HETATM   59  H6  UNL     1      13.449  15.786  -2.286  1.00  0.00     0.168 HD
BRANCH  53  60
HETATM   60  N7  UNL     1      16.955  16.893  -6.013  1.00  0.00    -0.287 NA
HETATM   61  H33 UNL     1      16.527  17.345  -6.818  1.00  0.00     0.125 HD
HETATM   62  H34 UNL     1      17.627  16.163  -6.204  1.00  0.00     0.125 HD
ENDBRANCH  53  60
ENDBRANCH  37  48
ENDBRANCH  33  34
ENDBRANCH  32  33
ENDBRANCH  28  32
ENDBRANCH  27  28
ENDBRANCH  23  27
ENDBRANCH  22  23
ENDBRANCH  21  22
ENDBRANCH  18  21
ENDBRANCH  17  18
BRANCH  17  63
HETATM   63  O17 UNL     1       6.311  12.795  -3.321  1.00  0.00    -0.385 OA
HETATM   64  H38 UNL     1       6.511  13.494  -2.676  1.00  0.00     0.210 HD
ENDBRANCH  17  63
ENDBRANCH  14  17
ENDBRANCH  12  13
ENDBRANCH  11  12
ENDBRANCH   8  11
ENDBRANCH   6   7
ENDBRANCH   5   6
ENDBRANCH   4   5
ENDBRANCH   2   4
TORSDOF 27
ENDMDL
MODEL 4
REMARK VINA RESULT:      -6.3      2.163      3.280
REMARK  27 active torsions:
REMARK  status: ('A' for Active; 'I' for Inactive)
REMARK    1  A    between atoms: C2_2  and  S1_4 
REMARK    2  A    between atoms: S1_4  and  C3_5 
REMARK    3  A    between atoms: C3_5  and  C4_6 
REMARK    4  A    between atoms: C4_6  and  N1_7 
REMARK       I    between atoms: N1_7  and  C5_8 
REMARK    5  A    between atoms: C5_8  and  C6_10 
REMARK    6  A    between atoms: C6_10  and  C7_11 
REMARK    7  A    between atoms: C7_11  and  N2_12 
REMARK       I    between atoms: N2_12  and  C8_13 
REMARK    8  A    between atoms: C8_13  and  C9_15 
REMARK    9  A    between atoms: C9_15  and  C10_16 
REMARK   10  A    between atoms: C9_15  and  O17_54 
REMARK   11  A    between atoms: C10_16  and  C13_19 
REMARK   12  A    between atoms: C13_19  and  O4_20 
REMARK   13  A    between atoms: O4_20  and  P1_21 
REMARK   14  A    between atoms: P1_21  and  O6_23 
REMARK   15  A    between atoms: P1_21  and  O7_24 
REMARK   16  A    between atoms: O7_24  and  P2_25 
REMARK   17  A    between atoms: P2_25  and  O9_27 
REMARK   18  A    between atoms: P2_25  and  O10_28 
REMARK   19  A    between atoms: O10_28  and  C14_29 
REMARK   20  A    between atoms: C14_29  and  C15_30 
REMARK   21  A    between atoms: C16_31  and  O13_49 
REMARK   22  A    between atoms: C17_32  and  O12_48 
REMARK   23  A    between atoms: C18_33  and  N3_35 
REMARK   24  A    between atoms: C21_40  and  N7_47 
REMARK   25  A    between atoms: O13_49  and  P3_50 
REMARK   26  A    between atoms: P3_50  and  O15_52 
REMARK   27  A    between atoms: P3_50  and  O16_53 
ROOT
HETATM    1  C1  UNL     1       5.342  10.515  -1.609  1.00  0.00     0.104 C 
HETATM    2  C2  UNL     1       6.396  11.085  -0.710  1.00  0.00     0.182 C 
HETATM    3  O1  UNL     1       6.143  11.782   0.269  1.00  0.00    -0.286 OA
ENDROOT
BRANCH   2   4
HETATM    4  S1  UNL     1       8.044  10.706  -1.195  1.00  0.00    -0.091 SA
BRANCH   4   5
HETATM    5  C3  UNL     1       8.914  12.173  -0.554  1.00  0.00     0.102 C 
BRANCH   5   6
HETATM    6  C4  UNL     1      10.243  12.408  -1.276  1.00  0.00     0.133 C 
BRANCH   6   7
HETATM    7  N1  UNL     1      10.328  13.724  -1.875  1.00  0.00    -0.360 N 
HETATM    8  C5  UNL     1      11.501  14.443  -1.879  1.00  0.00     0.219 C 
HETATM    9  O2  UNL     1      12.514  14.055  -1.310  1.00  0.00    -0.274 OA
HETATM   10  H8  UNL     1       9.502  14.116  -2.308  1.00  0.00     0.162 HD
BRANCH   8  11
HETATM   11  C6  UNL     1      11.389  15.767  -2.604  1.00  0.00     0.122 C 
BRANCH  11  12
HETATM   12  C7  UNL     1      12.606  16.037  -3.488  1.00  0.00     0.132 C 
BRANCH  12  13
HETATM   13  N2  UNL     1      13.836  16.172  -2.736  1.00  0.00    -0.358 N 
HETATM   14  C8  UNL     1      15.037  16.361  -3.394  1.00  0.00     0.247 C 
HETATM   15  O3  UNL     1      15.129  16.304  -4.613  1.00  0.00    -0.271 OA
HETATM   16  H13 UNL     1      13.741  16.586  -1.811  1.00  0.00     0.162 HD
BRANCH  14  17
HETATM   17  C9  UNL     1      16.232  16.665  -2.477  1.00  0.00     0.219 C 
BRANCH  17  18
HETATM   18  C10 UNL     1      16.630  18.164  -2.416  1.00  0.00     0.009 C 
HETATM   19  C11 UNL     1      18.050  18.407  -2.948  1.00  0.00     0.020 C 
HETATM   20  C12 UNL     1      15.659  19.040  -3.233  1.00  0.00     0.020 C 
BRANCH  18  21
HETATM   21  C13 UNL     1      16.559  18.563  -0.914  1.00  0.00     0.192 C 
BRANCH  21  22
HETATM   22  O4  UNL     1      15.329  19.171  -0.576  1.00  0.00    -0.296 OA
BRANCH  22  23
HETATM   23  P1  UNL     1      15.214  20.381   0.470  1.00  0.00     0.401 P 
HETATM   24  O5  UNL     1      14.363  21.518  -0.000  1.00  0.00    -0.631 OA
BRANCH  23  25
HETATM   25  O6  UNL     1      16.718  20.810   0.851  1.00  0.00    -0.307 OA
HETATM   26  H23 UNL     1      16.857  21.762   0.759  1.00  0.00     0.222 HD
ENDBRANCH  23  25
BRANCH  23  27
HETATM   27  O7  UNL     1      14.732  19.706   1.827  1.00  0.00    -0.195 OA
BRANCH  27  28
HETATM   28  P2  UNL     1      14.532  20.623   3.115  1.00  0.00     0.401 P 
HETATM   29  O8  UNL     1      15.679  21.495   3.509  1.00  0.00    -0.631 OA
BRANCH  28  30
HETATM   30  O9  UNL     1      13.188  21.422   2.791  1.00  0.00    -0.307 OA
HETATM   31  H24 UNL     1      12.809  21.229   1.898  1.00  0.00     0.222 HD
ENDBRANCH  28  30
BRANCH  28  32
HETATM   32  O10 UNL     1      14.009  19.610   4.233  1.00  0.00    -0.294 OA
BRANCH  32  33
HETATM   33  C14 UNL     1      13.185  20.074   5.270  1.00  0.00     0.215 C 
BRANCH  33  34
HETATM   34  C15 UNL     1      12.112  19.005   5.473  1.00  0.00     0.180 C 
HETATM   35  C16 UNL     1      12.252  18.391   6.859  1.00  0.00     0.197 C 
HETATM   36  C17 UNL     1      12.560  16.928   6.602  1.00  0.00     0.199 C 
HETATM   37  C18 UNL     1      11.944  16.706   5.219  1.00  0.00     0.262 C 
HETATM   38  O11 UNL     1      12.193  17.943   4.515  1.00  0.00    -0.353 OA
BRANCH  35  39
HETATM   39  O13 UNL     1      11.017  18.567   7.546  1.00  0.00    -0.286 OA
BRANCH  39  40
HETATM   40  P3  UNL     1      10.942  19.837   8.514  1.00  0.00     0.391 P 
HETATM   41  O14 UNL     1      12.242  20.559   8.662  1.00  0.00    -0.632 OA
BRANCH  40  42
HETATM   42  O15 UNL     1      10.308  19.176   9.826  1.00  0.00    -0.307 OA
HETATM   43  H36 UNL     1       9.589  19.746  10.190  1.00  0.00     0.222 HD
ENDBRANCH  40  42
BRANCH  40  44
HETATM   44  O16 UNL     1       9.721  20.639   7.886  1.00  0.00    -0.307 OA
HETATM   45  H37 UNL     1       8.988  20.758   8.511  1.00  0.00     0.222 HD
ENDBRANCH  40  44
ENDBRANCH  39  40
ENDBRANCH  35  39
BRANCH  36  46
HETATM   46  O12 UNL     1      12.069  16.121   7.676  1.00  0.00    -0.388 OA
HETATM   47  H35 UNL     1      11.146  15.870   7.436  1.00  0.00     0.210 HD
ENDBRANCH  36  46
BRANCH  37  48
HETATM   48  N3  UNL     1      12.577  15.622   4.495  1.00  0.00    -0.297 N 
HETATM   49  C19 UNL     1      12.198  14.300   4.479  1.00  0.00     0.188 A 
HETATM   50  N4  UNL     1      12.900  13.590   3.624  1.00  0.00    -0.346 N 
HETATM   51  C20 UNL     1      13.774  14.497   3.052  1.00  0.00     0.116 A 
HETATM   52  H4  UNL     1      12.818  12.593   3.425  1.00  0.00     0.167 HD
HETATM   53  C21 UNL     1      14.749  14.378   2.046  1.00  0.00     0.109 A 
HETATM   54  C23 UNL     1      13.611  15.752   3.611  1.00  0.00     0.142 A 
HETATM   55  N5  UNL     1      15.468  15.475   1.705  1.00  0.00    -0.341 N 
HETATM   56  C22 UNL     1      15.216  16.630   2.354  1.00  0.00     0.183 A 
HETATM   57  H5  UNL     1      16.181  15.428   0.978  1.00  0.00     0.167 HD
HETATM   58  N6  UNL     1      14.307  16.866   3.322  1.00  0.00    -0.336 N 
HETATM   59  H6  UNL     1      14.166  17.769   3.775  1.00  0.00     0.168 HD
BRANCH  53  60
HETATM   60  N7  UNL     1      15.022  13.190   1.387  1.00  0.00    -0.287 NA
HETATM   61  H33 UNL     1      16.011  12.958   1.333  1.00  0.00     0.125 HD
HETATM   62  H34 UNL     1      14.481  13.075   0.541  1.00  0.00     0.125 HD
ENDBRANCH  53  60
ENDBRANCH  37  48
ENDBRANCH  33  34
ENDBRANCH  32  33
ENDBRANCH  28  32
ENDBRANCH  27  28
ENDBRANCH  23  27
ENDBRANCH  22  23
ENDBRANCH  21  22
ENDBRANCH  18  21
ENDBRANCH  17  18
BRANCH  17  63
HETATM   63  O17 UNL     1      15.960  16.212  -1.146  1.00  0.00    -0.385 OA
HETATM   64  H38 UNL     1      15.071  16.518  -0.899  1.00  0.00     0.210 HD
ENDBRANCH  17  63
ENDBRANCH  14  17
ENDBRANCH  12  13
ENDBRANCH  11  12
ENDBRANCH   8  11
ENDBRANCH   6   7
ENDBRANCH   5   6
ENDBRANCH   4   5
ENDBRANCH   2   4
TORSDOF 27
ENDMDL
MODEL 5
REMARK VINA RESULT:      -6.2      4.883     12.471
REMARK  27 active torsions:
REMARK  status: ('A' for Active; 'I' for Inactive)
REMARK    1  A    between atoms: C2_2  and  S1_4 
REMARK    2  A    between atoms: S1_4  and  C3_5 
REMARK    3  A    between atoms: C3_5  and  C4_6 
REMARK    4  A    between atoms: C4_6  and  N1_7 
REMARK       I    between atoms: N1_7  and  C5_8 
REMARK    5  A    between atoms: C5_8  and  C6_10 
REMARK    6  A    between atoms: C6_10  and  C7_11 
REMARK    7  A    between atoms: C7_11  and  N2_12 
REMARK       I    between atoms: N2_12  and  C8_13 
REMARK    8  A    between atoms: C8_13  and  C9_15 
REMARK    9  A    between atoms: C9_15  and  C10_16 
REMARK   10  A    between atoms: C9_15  and  O17_54 
REMARK   11  A    between atoms: C10_16  and  C13_19 
REMARK   12  A    between atoms: C13_19  and  O4_20 
REMARK   13  A    between atoms: O4_20  and  P1_21 
REMARK   14  A    between atoms: P1_21  and  O6_23 
REMARK   15  A    between atoms: P1_21  and  O7_24 
REMARK   16  A    between atoms: O7_24  and  P2_25 
REMARK   17  A    between atoms: P2_25  and  O9_27 
REMARK   18  A    between atoms: P2_25  and  O10_28 
REMARK   19  A    between atoms: O10_28  and  C14_29 
REMARK   20  A    between atoms: C14_29  and  C15_30 
REMARK   21  A    between atoms: C16_31  and  O13_49 
REMARK   22  A    between atoms: C17_32  and  O12_48 
REMARK   23  A    between atoms: C18_33  and  N3_35 
REMARK   24  A    between atoms: C21_40  and  N7_47 
REMARK   25  A    between atoms: O13_49  and  P3_50 
REMARK   26  A    between atoms: P3_50  and  O15_52 
REMARK   27  A    between atoms: P3_50  and  O16_53 
ROOT
HETATM    1  C1  UNL     1      13.684  20.349   5.356  1.00  0.00     0.104 C 
HETATM    2  C2  UNL     1      12.489  19.478   5.117  1.00  0.00     0.182 C 
HETATM    3  O1  UNL     1      11.742  19.607   4.150  1.00  0.00    -0.286 OA
ENDROOT
BRANCH   2   4
HETATM    4  S1  UNL     1      12.213  18.269   6.365  1.00  0.00    -0.091 SA
BRANCH   4   5
HETATM    5  C3  UNL     1      13.466  17.031   5.899  1.00  0.00     0.102 C 
BRANCH   5   6
HETATM    6  C4  UNL     1      13.131  16.353   4.569  1.00  0.00     0.133 C 
BRANCH   6   7
HETATM    7  N1  UNL     1      14.083  16.668   3.524  1.00  0.00    -0.360 N 
HETATM    8  C5  UNL     1      14.791  15.687   2.870  1.00  0.00     0.219 C 
HETATM    9  O2  UNL     1      14.723  14.504   3.183  1.00  0.00    -0.274 OA
HETATM   10  H8  UNL     1      14.220  17.637   3.268  1.00  0.00     0.162 HD
BRANCH   8  11
HETATM   11  C6  UNL     1      15.689  16.225   1.777  1.00  0.00     0.122 C 
BRANCH  11  12
HETATM   12  C7  UNL     1      15.003  17.320   0.961  1.00  0.00     0.132 C 
BRANCH  12  13
HETATM   13  N2  UNL     1      14.031  16.803   0.021  1.00  0.00    -0.358 N 
HETATM   14  C8  UNL     1      14.438  16.012  -1.038  1.00  0.00     0.247 C 
HETATM   15  O3  UNL     1      15.621  15.819  -1.290  1.00  0.00    -0.271 OA
HETATM   16  H13 UNL     1      13.103  16.630   0.402  1.00  0.00     0.162 HD
BRANCH  14  17
HETATM   17  C9  UNL     1      13.295  15.386  -1.851  1.00  0.00     0.219 C 
BRANCH  17  18
HETATM   18  C10 UNL     1      12.896  13.956  -1.403  1.00  0.00     0.009 C 
HETATM   19  C11 UNL     1      13.724  12.875  -2.114  1.00  0.00     0.020 C 
HETATM   20  C12 UNL     1      13.075  13.768   0.117  1.00  0.00     0.020 C 
BRANCH  18  21
HETATM   21  C13 UNL     1      11.395  13.795  -1.778  1.00  0.00     0.192 C 
BRANCH  21  22
HETATM   22  O4  UNL     1      10.892  12.515  -1.451  1.00  0.00    -0.296 OA
BRANCH  22  23
HETATM   23  P1  UNL     1       9.477  12.293  -0.732  1.00  0.00     0.401 P 
HETATM   24  O5  UNL     1       8.464  13.351  -1.034  1.00  0.00    -0.631 OA
BRANCH  23  25
HETATM   25  O6  UNL     1       9.777  12.111   0.839  1.00  0.00    -0.307 OA
HETATM   26  H23 UNL     1       9.373  11.308   1.194  1.00  0.00     0.222 HD
ENDBRANCH  23  25
BRANCH  23  27
HETATM   27  O7  UNL     1       9.038  10.818  -1.136  1.00  0.00    -0.195 OA
BRANCH  27  28
HETATM   28  P2  UNL     1       7.848  10.123  -0.336  1.00  0.00     0.401 P 
HETATM   29  O8  UNL     1       8.213   9.007   0.587  1.00  0.00    -0.631 OA
BRANCH  28  30
HETATM   30  O9  UNL     1       7.122  11.350   0.381  1.00  0.00    -0.307 OA
HETATM   31  H24 UNL     1       6.556  11.092   1.149  1.00  0.00     0.222 HD
ENDBRANCH  28  30
BRANCH  28  32
HETATM   32  O10 UNL     1       6.777   9.770  -1.468  1.00  0.00    -0.294 OA
BRANCH  32  33
HETATM   33  C14 UNL     1       6.751  10.505  -2.663  1.00  0.00     0.215 C 
BRANCH  33  34
HETATM   34  C15 UNL     1       5.513  11.397  -2.588  1.00  0.00     0.180 C 
HETATM   35  C16 UNL     1       4.516  10.988  -3.665  1.00  0.00     0.197 C 
HETATM   36  C17 UNL     1       4.389  12.209  -4.555  1.00  0.00     0.199 C 
HETATM   37  C18 UNL     1       4.766  13.345  -3.600  1.00  0.00     0.262 C 
HETATM   38  O11 UNL     1       5.812  12.785  -2.776  1.00  0.00    -0.353 OA
BRANCH  35  39
HETATM   39  O13 UNL     1       3.287  10.658  -3.026  1.00  0.00    -0.286 OA
BRANCH  39  40
HETATM   40  P3  UNL     1       2.905   9.106  -3.025  1.00  0.00     0.391 P 
HETATM   41  O14 UNL     1       1.434   8.847  -3.005  1.00  0.00    -0.632 OA
BRANCH  40  42
HETATM   42  O15 UNL     1       3.766   8.586  -1.781  1.00  0.00    -0.307 OA
HETATM   43  H36 UNL     1       4.624   9.070  -1.724  1.00  0.00     0.222 HD
ENDBRANCH  40  42
BRANCH  40  44
HETATM   44  O16 UNL     1       3.729   8.578  -4.279  1.00  0.00    -0.307 OA
HETATM   45  H37 UNL     1       3.170   8.421  -5.057  1.00  0.00     0.222 HD
ENDBRANCH  40  44
ENDBRANCH  39  40
ENDBRANCH  35  39
BRANCH  36  46
HETATM   46  O12 UNL     1       3.089  12.256  -5.149  1.00  0.00    -0.388 OA
HETATM   47  H35 UNL     1       3.053  11.513  -5.797  1.00  0.00     0.210 HD
ENDBRANCH  36  46
BRANCH  37  48
HETATM   48  N3  UNL     1       5.290  14.504  -4.294  1.00  0.00    -0.297 N 
HETATM   49  C19 UNL     1       6.583  14.974  -4.268  1.00  0.00     0.188 A 
HETATM   50  N4  UNL     1       6.767  15.972  -5.106  1.00  0.00    -0.346 N 
HETATM   51  C20 UNL     1       5.535  16.154  -5.708  1.00  0.00     0.116 A 
HETATM   52  H4  UNL     1       7.626  16.494  -5.274  1.00  0.00     0.167 HD
HETATM   53  C21 UNL     1       5.086  17.027  -6.714  1.00  0.00     0.109 A 
HETATM   54  C23 UNL     1       4.601  15.278  -5.186  1.00  0.00     0.142 A 
HETATM   55  N5  UNL     1       3.785  16.969  -7.091  1.00  0.00    -0.341 N 
HETATM   56  C22 UNL     1       2.982  16.078  -6.476  1.00  0.00     0.183 A 
HETATM   57  H5  UNL     1       3.423  17.584  -7.820  1.00  0.00     0.167 HD
HETATM   58  N6  UNL     1       3.299  15.190  -5.511  1.00  0.00    -0.336 N 
HETATM   59  H6  UNL     1       2.639  14.539  -5.085  1.00  0.00     0.168 HD
BRANCH  53  60
HETATM   60  N7  UNL     1       5.904  17.955  -7.339  1.00  0.00    -0.287 NA
HETATM   61  H33 UNL     1       6.752  17.563  -7.740  1.00  0.00     0.125 HD
HETATM   62  H34 UNL     1       6.004  18.812  -6.810  1.00  0.00     0.125 HD
ENDBRANCH  53  60
ENDBRANCH  37  48
ENDBRANCH  33  34
ENDBRANCH  32  33
ENDBRANCH  28  32
ENDBRANCH  27  28
ENDBRANCH  23  27
ENDBRANCH  22  23
ENDBRANCH  21  22
ENDBRANCH  18  21
ENDBRANCH  17  18
BRANCH  17  63
HETATM   63  O17 UNL     1      12.134  16.222  -1.792  1.00  0.00    -0.385 OA
HETATM   64  H38 UNL     1      12.429  17.145  -1.727  1.00  0.00     0.210 HD
ENDBRANCH  17  63
ENDBRANCH  14  17
ENDBRANCH  12  13
ENDBRANCH  11  12
ENDBRANCH   8  11
ENDBRANCH   6   7
ENDBRANCH   5   6
ENDBRANCH   4   5
ENDBRANCH   2   4
TORSDOF 27
ENDMDL
MODEL 6
REMARK VINA RESULT:      -6.1      3.809      7.116
REMARK  27 active torsions:
REMARK  status: ('A' for Active; 'I' for Inactive)
REMARK    1  A    between atoms: C2_2  and  S1_4 
REMARK    2  A    between atoms: S1_4  and  C3_5 
REMARK    3  A    between atoms: C3_5  and  C4_6 
REMARK    4  A    between atoms: C4_6  and  N1_7 
REMARK       I    between atoms: N1_7  and  C5_8 
REMARK    5  A    between atoms: C5_8  and  C6_10 
REMARK    6  A    between atoms: C6_10  and  C7_11 
REMARK    7  A    between atoms: C7_11  and  N2_12 
REMARK       I    between atoms: N2_12  and  C8_13 
REMARK    8  A    between atoms: C8_13  and  C9_15 
REMARK    9  A    between atoms: C9_15  and  C10_16 
REMARK   10  A    between atoms: C9_15  and  O17_54 
REMARK   11  A    between atoms: C10_16  and  C13_19 
REMARK   12  A    between atoms: C13_19  and  O4_20 
REMARK   13  A    between atoms: O4_20  and  P1_21 
REMARK   14  A    between atoms: P1_21  and  O6_23 
REMARK   15  A    between atoms: P1_21  and  O7_24 
REMARK   16  A    between atoms: O7_24  and  P2_25 
REMARK   17  A    between atoms: P2_25  and  O9_27 
REMARK   18  A    between atoms: P2_25  and  O10_28 
REMARK   19  A    between atoms: O10_28  and  C14_29 
REMARK   20  A    between atoms: C14_29  and  C15_30 
REMARK   21  A    between atoms: C16_31  and  O13_49 
REMARK   22  A    between atoms: C17_32  and  O12_48 
REMARK   23  A    between atoms: C18_33  and  N3_35 
REMARK   24  A    between atoms: C21_40  and  N7_47 
REMARK   25  A    between atoms: O13_49  and  P3_50 
REMARK   26  A    between atoms: P3_50  and  O15_52 
REMARK   27  A    between atoms: P3_50  and  O16_53 
ROOT
HETATM    1  C1  UNL     1       6.780  19.623  -6.463  1.00  0.00     0.104 C 
HETATM    2  C2  UNL     1       5.700  18.593  -6.602  1.00  0.00     0.182 C 
HETATM    3  O1  UNL     1       4.530  18.873  -6.849  1.00  0.00    -0.286 OA
ENDROOT
BRANCH   2   4
HETATM    4  S1  UNL     1       6.238  16.940  -6.341  1.00  0.00    -0.091 SA
BRANCH   4   5
HETATM    5  C3  UNL     1       4.750  16.029  -6.865  1.00  0.00     0.102 C 
BRANCH   5   6
HETATM    6  C4  UNL     1       3.960  15.490  -5.670  1.00  0.00     0.133 C 
BRANCH   6   7
HETATM    7  N1  UNL     1       4.034  14.048  -5.555  1.00  0.00    -0.360 N 
HETATM    8  C5  UNL     1       3.891  13.410  -4.345  1.00  0.00     0.219 C 
HETATM    9  O2  UNL     1       3.775  14.019  -3.288  1.00  0.00    -0.274 OA
HETATM   10  H8  UNL     1       4.188  13.501  -6.391  1.00  0.00     0.162 HD
BRANCH   8  11
HETATM   11  C6  UNL     1       3.946  11.901  -4.453  1.00  0.00     0.122 C 
BRANCH  11  12
HETATM   12  C7  UNL     1       5.361  11.365  -4.240  1.00  0.00     0.132 C 
BRANCH  12  13
HETATM   13  N2  UNL     1       6.125  12.140  -3.286  1.00  0.00    -0.358 N 
HETATM   14  C8  UNL     1       6.104  11.809  -1.944  1.00  0.00     0.247 C 
HETATM   15  O3  UNL     1       5.364  10.942  -1.498  1.00  0.00    -0.271 OA
HETATM   16  H13 UNL     1       6.976  12.565  -3.648  1.00  0.00     0.162 HD
BRANCH  14  17
HETATM   17  C9  UNL     1       7.092  12.597  -1.070  1.00  0.00     0.219 C 
BRANCH  17  18
HETATM   18  C10 UNL     1       8.167  11.725  -0.369  1.00  0.00     0.009 C 
HETATM   19  C11 UNL     1       8.490  12.231   1.044  1.00  0.00     0.020 C 
HETATM   20  C12 UNL     1       7.717  10.255  -0.256  1.00  0.00     0.020 C 
BRANCH  18  21
HETATM   21  C13 UNL     1       9.439  11.817  -1.260  1.00  0.00     0.192 C 
BRANCH  21  22
HETATM   22  O4  UNL     1      10.424  12.666  -0.706  1.00  0.00    -0.296 OA
BRANCH  22  23
HETATM   23  P1  UNL     1      11.415  13.551  -1.603  1.00  0.00     0.401 P 
HETATM   24  O5  UNL     1      10.753  14.702  -2.293  1.00  0.00    -0.631 OA
BRANCH  23  25
HETATM   25  O6  UNL     1      12.166  12.539  -2.605  1.00  0.00    -0.307 OA
HETATM   26  H23 UNL     1      11.862  12.640  -3.516  1.00  0.00     0.222 HD
ENDBRANCH  23  25
BRANCH  23  27
HETATM   27  O7  UNL     1      12.603  13.956  -0.626  1.00  0.00    -0.195 OA
BRANCH  27  28
HETATM   28  P2  UNL     1      13.997  14.408  -1.253  1.00  0.00     0.401 P 
HETATM   29  O8  UNL     1      14.920  13.323  -1.704  1.00  0.00    -0.631 OA
BRANCH  28  30
HETATM   30  O9  UNL     1      13.566  15.420  -2.411  1.00  0.00    -0.307 OA
HETATM   31  H24 UNL     1      14.253  15.548  -3.110  1.00  0.00     0.222 HD
ENDBRANCH  28  30
BRANCH  28  32
HETATM   32  O10 UNL     1      14.591  15.428  -0.177  1.00  0.00    -0.294 OA
BRANCH  32  33
HETATM   33  C14 UNL     1      15.669  16.260  -0.519  1.00  0.00     0.215 C 
BRANCH  33  34
HETATM   34  C15 UNL     1      15.397  17.606   0.150  1.00  0.00     0.180 C 
HETATM   35  C16 UNL     1      16.639  18.068   0.901  1.00  0.00     0.197 C 
HETATM   36  C17 UNL     1      16.207  18.135   2.354  1.00  0.00     0.199 C 
HETATM   37  C18 UNL     1      14.697  18.351   2.232  1.00  0.00     0.262 C 
HETATM   38  O11 UNL     1      14.315  17.556   1.087  1.00  0.00    -0.353 OA
BRANCH  35  39
HETATM   39  O13 UNL     1      17.013  19.344   0.392  1.00  0.00    -0.286 OA
BRANCH  39  40
HETATM   40  P3  UNL     1      18.496  19.443  -0.197  1.00  0.00     0.391 P 
HETATM   41  O14 UNL     1      18.620  18.952  -1.604  1.00  0.00    -0.632 OA
BRANCH  40  42
HETATM   42  O15 UNL     1      19.320  18.667   0.933  1.00  0.00    -0.307 OA
HETATM   43  H36 UNL     1      19.024  17.728   0.997  1.00  0.00     0.222 HD
ENDBRANCH  40  42
BRANCH  40  44
HETATM   44  O16 UNL     1      18.846  20.969   0.084  1.00  0.00    -0.307 OA
HETATM   45  H37 UNL     1      18.306  21.354   0.792  1.00  0.00     0.222 HD
ENDBRANCH  40  44
ENDBRANCH  39  40
ENDBRANCH  35  39
BRANCH  36  46
HETATM   46  O12 UNL     1      16.959  19.134   3.048  1.00  0.00    -0.388 OA
HETATM   47  H35 UNL     1      17.893  19.041   2.744  1.00  0.00     0.210 HD
ENDBRANCH  36  46
BRANCH  37  48
HETATM   48  N3  UNL     1      13.972  17.875   3.392  1.00  0.00    -0.297 N 
HETATM   49  C19 UNL     1      13.304  18.634   4.324  1.00  0.00     0.188 A 
HETATM   50  N4  UNL     1      12.639  17.896   5.186  1.00  0.00    -0.346 N 
HETATM   51  C20 UNL     1      12.884  16.592   4.790  1.00  0.00     0.116 A 
HETATM   52  H4  UNL     1      12.070  18.212   5.971  1.00  0.00     0.167 HD
HETATM   53  C21 UNL     1      12.433  15.350   5.269  1.00  0.00     0.109 A 
HETATM   54  C23 UNL     1      13.740  16.564   3.704  1.00  0.00     0.142 A 
HETATM   55  N5  UNL     1      12.871  14.222   4.660  1.00  0.00    -0.341 N 
HETATM   56  C22 UNL     1      13.725  14.346   3.624  1.00  0.00     0.183 A 
HETATM   57  H5  UNL     1      12.563  13.303   4.977  1.00  0.00     0.167 HD
HETATM   58  N6  UNL     1      14.216  15.475   3.075  1.00  0.00    -0.336 N 
HETATM   59  H6  UNL     1      14.864  15.501   2.287  1.00  0.00     0.168 HD
BRANCH  53  60
HETATM   60  N7  UNL     1      11.567  15.217   6.343  1.00  0.00    -0.287 NA
HETATM   61  H33 UNL     1      10.583  15.315   6.102  1.00  0.00     0.125 HD
HETATM   62  H34 UNL     1      11.885  15.704   7.170  1.00  0.00     0.125 HD
ENDBRANCH  53  60
ENDBRANCH  37  48
ENDBRANCH  33  34
ENDBRANCH  32  33
ENDBRANCH  28  32
ENDBRANCH  27  28
ENDBRANCH  23  27
ENDBRANCH  22  23
ENDBRANCH  21  22
ENDBRANCH  18  21
ENDBRANCH  17  18
BRANCH  17  63
HETATM   63  O17 UNL     1       7.756  13.594  -1.855  1.00  0.00    -0.385 OA
HETATM   64  H38 UNL     1       7.502  13.466  -2.784  1.00  0.00     0.210 HD
ENDBRANCH  17  63
ENDBRANCH  14  17
ENDBRANCH  12  13
ENDBRANCH  11  12
ENDBRANCH   8  11
ENDBRANCH   6   7
ENDBRANCH   5   6
ENDBRANCH   4   5
ENDBRANCH   2   4
TORSDOF 27
ENDMDL
MODEL 7
REMARK VINA RESULT:      -5.9      4.290      7.211
REMARK  27 active torsions:
REMARK  status: ('A' for Active; 'I' for Inactive)
REMARK    1  A    between atoms: C2_2  and  S1_4 
REMARK    2  A    between atoms: S1_4  and  C3_5 
REMARK    3  A    between atoms: C3_5  and  C4_6 
REMARK    4  A    between atoms: C4_6  and  N1_7 
REMARK       I    between atoms: N1_7  and  C5_8 
REMARK    5  A    between atoms: C5_8  and  C6_10 
REMARK    6  A    between atoms: C6_10  and  C7_11 
REMARK    7  A    between atoms: C7_11  and  N2_12 
REMARK       I    between atoms: N2_12  and  C8_13 
REMARK    8  A    between atoms: C8_13  and  C9_15 
REMARK    9  A    between atoms: C9_15  and  C10_16 
REMARK   10  A    between atoms: C9_15  and  O17_54 
REMARK   11  A    between atoms: C10_16  and  C13_19 
REMARK   12  A    between atoms: C13_19  and  O4_20 
REMARK   13  A    between atoms: O4_20  and  P1_21 
REMARK   14  A    between atoms: P1_21  and  O6_23 
REMARK   15  A    between atoms: P1_21  and  O7_24 
REMARK   16  A    between atoms: O7_24  and  P2_25 
REMARK   17  A    between atoms: P2_25  and  O9_27 
REMARK   18  A    between atoms: P2_25  and  O10_28 
REMARK   19  A    between atoms: O10_28  and  C14_29 
REMARK   20  A    between atoms: C14_29  and  C15_30 
REMARK   21  A    between atoms: C16_31  and  O13_49 
REMARK   22  A    between atoms: C17_32  and  O12_48 
REMARK   23  A    between atoms: C18_33  and  N3_35 
REMARK   24  A    between atoms: C21_40  and  N7_47 
REMARK   25  A    between atoms: O13_49  and  P3_50 
REMARK   26  A    between atoms: P3_50  and  O15_52 
REMARK   27  A    between atoms: P3_50  and  O16_53 
ROOT
HETATM    1  C1  UNL     1       4.020  18.911  -6.741  1.00  0.00     0.104 C 
HETATM    2  C2  UNL     1       5.473  18.786  -7.086  1.00  0.00     0.182 C 
HETATM    3  O1  UNL     1       6.090  19.636  -7.723  1.00  0.00    -0.286 OA
ENDROOT
BRANCH   2   4
HETATM    4  S1  UNL     1       6.223  17.293  -6.537  1.00  0.00    -0.091 SA
BRANCH   4   5
HETATM    5  C3  UNL     1       4.757  16.218  -6.421  1.00  0.00     0.102 C 
BRANCH   5   6
HETATM    6  C4  UNL     1       4.708  15.462  -5.092  1.00  0.00     0.133 C 
BRANCH   6   7
HETATM    7  N1  UNL     1       4.674  14.024  -5.267  1.00  0.00    -0.360 N 
HETATM    8  C5  UNL     1       3.986  13.205  -4.402  1.00  0.00     0.219 C 
HETATM    9  O2  UNL     1       3.433  13.628  -3.393  1.00  0.00    -0.274 OA
HETATM   10  H8  UNL     1       5.165  13.618  -6.053  1.00  0.00     0.162 HD
BRANCH   8  11
HETATM   11  C6  UNL     1       4.031  11.745  -4.795  1.00  0.00     0.122 C 
BRANCH  11  12
HETATM   12  C7  UNL     1       5.296  11.055  -4.285  1.00  0.00     0.132 C 
BRANCH  12  13
HETATM   13  N2  UNL     1       6.041  11.861  -3.341  1.00  0.00    -0.358 N 
HETATM   14  C8  UNL     1       5.936  11.619  -1.983  1.00  0.00     0.247 C 
HETATM   15  O3  UNL     1       5.138  10.812  -1.525  1.00  0.00    -0.271 OA
HETATM   16  H13 UNL     1       6.927  12.228  -3.682  1.00  0.00     0.162 HD
BRANCH  14  17
HETATM   17  C9  UNL     1       6.909  12.424  -1.109  1.00  0.00     0.219 C 
BRANCH  17  18
HETATM   18  C10 UNL     1       8.080  11.594  -0.519  1.00  0.00     0.009 C 
HETATM   19  C11 UNL     1       8.413  12.008   0.922  1.00  0.00     0.020 C 
HETATM   20  C12 UNL     1       7.759  10.086  -0.518  1.00  0.00     0.020 C 
BRANCH  18  21
HETATM   21  C13 UNL     1       9.304  11.870  -1.438  1.00  0.00     0.192 C 
BRANCH  21  22
HETATM   22  O4  UNL     1      10.247  12.733  -0.834  1.00  0.00    -0.296 OA
BRANCH  22  23
HETATM   23  P1  UNL     1      11.314  13.583  -1.677  1.00  0.00     0.401 P 
HETATM   24  O5  UNL     1      10.754  14.820  -2.304  1.00  0.00    -0.631 OA
BRANCH  23  25
HETATM   25  O6  UNL     1      11.989  12.569  -2.729  1.00  0.00    -0.307 OA
HETATM   26  H23 UNL     1      11.514  11.729  -2.779  1.00  0.00     0.222 HD
ENDBRANCH  23  25
BRANCH  23  27
HETATM   27  O7  UNL     1      12.523  13.835  -0.673  1.00  0.00    -0.195 OA
BRANCH  27  28
HETATM   28  P2  UNL     1      13.757  14.717  -1.160  1.00  0.00     0.401 P 
HETATM   29  O8  UNL     1      14.561  14.184  -2.301  1.00  0.00    -0.631 OA
BRANCH  28  30
HETATM   30  O9  UNL     1      13.100  16.145  -1.438  1.00  0.00    -0.307 OA
HETATM   31  H24 UNL     1      13.042  16.725  -0.640  1.00  0.00     0.222 HD
ENDBRANCH  28  30
BRANCH  28  32
HETATM   32  O10 UNL     1      14.567  15.022   0.182  1.00  0.00    -0.294 OA
BRANCH  32  33
HETATM   33  C14 UNL     1      14.784  14.000   1.119  1.00  0.00     0.215 C 
BRANCH  33  34
HETATM   34  C15 UNL     1      15.047  14.695   2.454  1.00  0.00     0.180 C 
HETATM   35  C16 UNL     1      13.730  14.933   3.180  1.00  0.00     0.197 C 
HETATM   36  C17 UNL     1      13.625  16.442   3.300  1.00  0.00     0.199 C 
HETATM   37  C18 UNL     1      15.093  16.872   3.250  1.00  0.00     0.262 C 
HETATM   38  O11 UNL     1      15.699  15.962   2.306  1.00  0.00    -0.353 OA
BRANCH  35  39
HETATM   39  O13 UNL     1      13.805  14.297   4.451  1.00  0.00    -0.286 OA
BRANCH  39  40
HETATM   40  P3  UNL     1      12.670  13.210   4.746  1.00  0.00     0.391 P 
HETATM   41  O14 UNL     1      11.966  12.726   3.520  1.00  0.00    -0.632 OA
BRANCH  40  42
HETATM   42  O15 UNL     1      11.798  13.978   5.846  1.00  0.00    -0.307 OA
HETATM   43  H36 UNL     1      11.734  13.445   6.674  1.00  0.00     0.222 HD
ENDBRANCH  40  42
BRANCH  40  44
HETATM   44  O16 UNL     1      13.474  12.140   5.604  1.00  0.00    -0.307 OA
HETATM   45  H37 UNL     1      13.735  12.476   6.476  1.00  0.00     0.222 HD
ENDBRANCH  40  44
ENDBRANCH  39  40
ENDBRANCH  35  39
BRANCH  36  46
HETATM   46  O12 UNL     1      12.877  16.795   4.467  1.00  0.00    -0.388 OA
HETATM   47  H35 UNL     1      13.536  17.071   5.147  1.00  0.00     0.210 HD
ENDBRANCH  36  46
BRANCH  37  48
HETATM   48  N3  UNL     1      15.258  18.227   2.762  1.00  0.00    -0.297 N 
HETATM   49  C19 UNL     1      15.540  19.349   3.505  1.00  0.00     0.188 A 
HETATM   50  N4  UNL     1      15.754  20.406   2.752  1.00  0.00    -0.346 N 
HETATM   51  C20 UNL     1      15.609  19.945   1.455  1.00  0.00     0.116 A 
HETATM   52  H4  UNL     1      15.978  21.354   3.055  1.00  0.00     0.167 HD
HETATM   53  C21 UNL     1      15.752  20.565   0.202  1.00  0.00     0.109 A 
HETATM   54  C23 UNL     1      15.263  18.606   1.449  1.00  0.00     0.142 A 
HETATM   55  N5  UNL     1      15.527  19.830  -0.915  1.00  0.00    -0.341 N 
HETATM   56  C22 UNL     1      15.172  18.538  -0.768  1.00  0.00     0.183 A 
HETATM   57  H5  UNL     1      15.624  20.244  -1.842  1.00  0.00     0.167 HD
HETATM   58  N6  UNL     1      15.014  17.837   0.373  1.00  0.00    -0.336 N 
HETATM   59  H6  UNL     1      14.742  16.855   0.416  1.00  0.00     0.168 HD
BRANCH  53  60
HETATM   60  N7  UNL     1      16.102  21.896   0.046  1.00  0.00    -0.287 NA
HETATM   61  H33 UNL     1      15.479  22.551   0.513  1.00  0.00     0.125 HD
HETATM   62  H34 UNL     1      16.376  22.124  -0.901  1.00  0.00     0.125 HD
ENDBRANCH  53  60
ENDBRANCH  37  48
ENDBRANCH  33  34
ENDBRANCH  32  33
ENDBRANCH  28  32
ENDBRANCH  27  28
ENDBRANCH  23  27
ENDBRANCH  22  23
ENDBRANCH  21  22
ENDBRANCH  18  21
ENDBRANCH  17  18
BRANCH  17  63
HETATM   63  O17 UNL     1       7.457  13.515  -1.857  1.00  0.00    -0.385 OA
HETATM   64  H38 UNL     1       6.956  14.317  -1.632  1.00  0.00     0.210 HD
ENDBRANCH  17  63
ENDBRANCH  14  17
ENDBRANCH  12  13
ENDBRANCH  11  12
ENDBRANCH   8  11
ENDBRANCH   6   7
ENDBRANCH   5   6
ENDBRANCH   4   5
ENDBRANCH   2   4
TORSDOF 27
ENDMDL
MODEL 8
REMARK VINA RESULT:      -5.8      9.488     14.566
REMARK  27 active torsions:
REMARK  status: ('A' for Active; 'I' for Inactive)
REMARK    1  A    between atoms: C2_2  and  S1_4 
REMARK    2  A    between atoms: S1_4  and  C3_5 
REMARK    3  A    between atoms: C3_5  and  C4_6 
REMARK    4  A    between atoms: C4_6  and  N1_7 
REMARK       I    between atoms: N1_7  and  C5_8 
REMARK    5  A    between atoms: C5_8  and  C6_10 
REMARK    6  A    between atoms: C6_10  and  C7_11 
REMARK    7  A    between atoms: C7_11  and  N2_12 
REMARK       I    between atoms: N2_12  and  C8_13 
REMARK    8  A    between atoms: C8_13  and  C9_15 
REMARK    9  A    between atoms: C9_15  and  C10_16 
REMARK   10  A    between atoms: C9_15  and  O17_54 
REMARK   11  A    between atoms: C10_16  and  C13_19 
REMARK   12  A    between atoms: C13_19  and  O4_20 
REMARK   13  A    between atoms: O4_20  and  P1_21 
REMARK   14  A    between atoms: P1_21  and  O6_23 
REMARK   15  A    between atoms: P1_21  and  O7_24 
REMARK   16  A    between atoms: O7_24  and  P2_25 
REMARK   17  A    between atoms: P2_25  and  O9_27 
REMARK   18  A    between atoms: P2_25  and  O10_28 
REMARK   19  A    between atoms: O10_28  and  C14_29 
REMARK   20  A    between atoms: C14_29  and  C15_30 
REMARK   21  A    between atoms: C16_31  and  O13_49 
REMARK   22  A    between atoms: C17_32  and  O12_48 
REMARK   23  A    between atoms: C18_33  and  N3_35 
REMARK   24  A    between atoms: C21_40  and  N7_47 
REMARK   25  A    between atoms: O13_49  and  P3_50 
REMARK   26  A    between atoms: P3_50  and  O15_52 
REMARK   27  A    between atoms: P3_50  and  O16_53 
ROOT
HETATM    1  C1  UNL     1      -8.491  19.018  -4.573  1.00  0.00     0.104 C 
HETATM    2  C2  UNL     1      -8.878  18.731  -5.991  1.00  0.00     0.182 C 
HETATM    3  O1  UNL     1      -9.414  17.683  -6.345  1.00  0.00    -0.286 OA
ENDROOT
BRANCH   2   4
HETATM    4  S1  UNL     1      -8.465  20.007  -7.128  1.00  0.00    -0.091 SA
BRANCH   4   5
HETATM    5  C3  UNL     1      -7.142  20.850  -6.202  1.00  0.00     0.102 C 
BRANCH   5   6
HETATM    6  C4  UNL     1      -6.411  21.882  -7.064  1.00  0.00     0.133 C 
BRANCH   6   7
HETATM    7  N1  UNL     1      -5.272  21.321  -7.761  1.00  0.00    -0.360 N 
HETATM    8  C5  UNL     1      -4.009  21.340  -7.216  1.00  0.00     0.219 C 
HETATM    9  O2  UNL     1      -3.756  21.897  -6.154  1.00  0.00    -0.274 OA
HETATM   10  H8  UNL     1      -5.416  20.900  -8.669  1.00  0.00     0.162 HD
BRANCH   8  11
HETATM   11  C6  UNL     1      -2.973  20.654  -8.081  1.00  0.00     0.122 C 
BRANCH  11  12
HETATM   12  C7  UNL     1      -1.552  20.905  -7.577  1.00  0.00     0.132 C 
BRANCH  12  13
HETATM   13  N2  UNL     1      -0.802  19.686  -7.364  1.00  0.00    -0.358 N 
HETATM   14  C8  UNL     1      -0.181  19.453  -6.151  1.00  0.00     0.247 C 
HETATM   15  O3  UNL     1      -0.138  20.300  -5.267  1.00  0.00    -0.271 OA
HETATM   16  H13 UNL     1      -1.129  18.873  -7.883  1.00  0.00     0.162 HD
BRANCH  14  17
HETATM   17  C9  UNL     1       0.428  18.051  -5.997  1.00  0.00     0.219 C 
BRANCH  17  18
HETATM   18  C10 UNL     1       1.576  17.736  -6.991  1.00  0.00     0.009 C 
HETATM   19  C11 UNL     1       1.057  17.113  -8.296  1.00  0.00     0.020 C 
HETATM   20  C12 UNL     1       2.373  19.005  -7.355  1.00  0.00     0.020 C 
BRANCH  18  21
HETATM   21  C13 UNL     1       2.506  16.723  -6.263  1.00  0.00     0.192 C 
BRANCH  21  22
HETATM   22  O4  UNL     1       3.874  17.045  -6.411  1.00  0.00    -0.296 OA
BRANCH  22  23
HETATM   23  P1  UNL     1       5.035  15.940  -6.395  1.00  0.00     0.401 P 
HETATM   24  O5  UNL     1       6.066  16.151  -5.332  1.00  0.00    -0.631 OA
BRANCH  23  25
HETATM   25  O6  UNL     1       5.641  15.880  -7.885  1.00  0.00    -0.307 OA
HETATM   26  H23 UNL     1       5.656  16.750  -8.305  1.00  0.00     0.222 HD
ENDBRANCH  23  25
BRANCH  23  27
HETATM   27  O7  UNL     1       4.274  14.545  -6.315  1.00  0.00    -0.195 OA
BRANCH  27  28
HETATM   28  P2  UNL     1       4.014  13.891  -4.886  1.00  0.00     0.401 P 
HETATM   29  O8  UNL     1       3.928  14.822  -3.721  1.00  0.00    -0.631 OA
BRANCH  28  30
HETATM   30  O9  UNL     1       2.700  13.015  -5.117  1.00  0.00    -0.307 OA
HETATM   31  H24 UNL     1       2.172  12.855  -4.297  1.00  0.00     0.222 HD
ENDBRANCH  28  30
BRANCH  28  32
HETATM   32  O10 UNL     1       5.118  12.742  -4.780  1.00  0.00    -0.294 OA
BRANCH  32  33
HETATM   33  C14 UNL     1       6.237  12.918  -3.951  1.00  0.00     0.215 C 
BRANCH  33  34
HETATM   34  C15 UNL     1       5.794  12.512  -2.546  1.00  0.00     0.180 C 
HETATM   35  C16 UNL     1       6.820  11.568  -1.934  1.00  0.00     0.197 C 
HETATM   36  C17 UNL     1       6.063  10.273  -1.706  1.00  0.00     0.199 C 
HETATM   37  C18 UNL     1       4.618  10.762  -1.581  1.00  0.00     0.262 C 
HETATM   38  O11 UNL     1       4.525  11.847  -2.530  1.00  0.00    -0.353 OA
BRANCH  35  39
HETATM   39  O13 UNL     1       7.278  12.144  -0.715  1.00  0.00    -0.286 OA
BRANCH  39  40
HETATM   40  P3  UNL     1       8.843  11.990  -0.426  1.00  0.00     0.391 P 
HETATM   41  O14 UNL     1       9.200  12.077   1.022  1.00  0.00    -0.632 OA
BRANCH  40  42
HETATM   42  O15 UNL     1       9.439  13.108  -1.404  1.00  0.00    -0.307 OA
HETATM   43  H36 UNL     1      10.192  13.580  -0.976  1.00  0.00     0.222 HD
ENDBRANCH  40  42
BRANCH  40  44
HETATM   44  O16 UNL     1       9.173  10.632  -1.186  1.00  0.00    -0.307 OA
HETATM   45  H37 UNL     1      10.041  10.645  -1.619  1.00  0.00     0.222 HD
ENDBRANCH  40  44
ENDBRANCH  39  40
ENDBRANCH  35  39
BRANCH  36  46
HETATM   46  O12 UNL     1       6.616   9.565  -0.593  1.00  0.00    -0.388 OA
HETATM   47  H35 UNL     1       7.523   9.288  -0.863  1.00  0.00     0.210 HD
ENDBRANCH  36  46
BRANCH  37  48
HETATM   48  N3  UNL     1       3.653   9.743  -1.942  1.00  0.00    -0.297 N 
HETATM   49  C19 UNL     1       3.767   8.385  -1.753  1.00  0.00     0.188 A 
HETATM   50  N4  UNL     1       2.665   7.743  -2.073  1.00  0.00    -0.346 N 
HETATM   51  C20 UNL     1       1.791   8.733  -2.486  1.00  0.00     0.116 A 
HETATM   52  H4  UNL     1       2.493   6.739  -2.028  1.00  0.00     0.167 HD
HETATM   53  C21 UNL     1       0.452   8.706  -2.911  1.00  0.00     0.109 A 
HETATM   54  C23 UNL     1       2.404   9.973  -2.447  1.00  0.00     0.142 A 
HETATM   55  N5  UNL     1      -0.140   9.872  -3.267  1.00  0.00    -0.341 N 
HETATM   56  C22 UNL     1       0.589  11.004  -3.201  1.00  0.00     0.183 A 
HETATM   57  H5  UNL     1      -1.112   9.892  -3.577  1.00  0.00     0.167 HD
HETATM   58  N6  UNL     1       1.868  11.154  -2.804  1.00  0.00    -0.336 N 
HETATM   59  H6  UNL     1       2.365  12.045  -2.777  1.00  0.00     0.168 HD
BRANCH  53  60
HETATM   60  N7  UNL     1      -0.297   7.543  -2.995  1.00  0.00    -0.287 NA
HETATM   61  H33 UNL     1      -1.291   7.695  -3.151  1.00  0.00     0.125 HD
HETATM   62  H34 UNL     1      -0.046   6.860  -2.292  1.00  0.00     0.125 HD
ENDBRANCH  53  60
ENDBRANCH  37  48
ENDBRANCH  33  34
ENDBRANCH  32  33
ENDBRANCH  28  32
ENDBRANCH  27  28
ENDBRANCH  23  27
ENDBRANCH  22  23
ENDBRANCH  21  22
ENDBRANCH  18  21
ENDBRANCH  17  18
BRANCH  17  63
HETATM   63  O17 UNL     1       0.918  17.870  -4.664  1.00  0.00    -0.385 OA
HETATM   64  H38 UNL     1       1.669  17.254  -4.700  1.00  0.00     0.210 HD
ENDBRANCH  17  63
ENDBRANCH  14  17
ENDBRANCH  12  13
ENDBRANCH  11  12
ENDBRANCH   8  11
ENDBRANCH   6   7
ENDBRANCH   5   6
ENDBRANCH   4   5
ENDBRANCH   2   4
TORSDOF 27
ENDMDL
MODEL 9
REMARK VINA RESULT:      -5.8      4.087      6.906
REMARK  27 active torsions:
REMARK  status: ('A' for Active; 'I' for Inactive)
REMARK    1  A    between atoms: C2_2  and  S1_4 
REMARK    2  A    between atoms: S1_4  and  C3_5 
REMARK    3  A    between atoms: C3_5  and  C4_6 
REMARK    4  A    between atoms: C4_6  and  N1_7 
REMARK       I    between atoms: N1_7  and  C5_8 
REMARK    5  A    between atoms: C5_8  and  C6_10 
REMARK    6  A    between atoms: C6_10  and  C7_11 
REMARK    7  A    between atoms: C7_11  and  N2_12 
REMARK       I    between atoms: N2_12  and  C8_13 
REMARK    8  A    between atoms: C8_13  and  C9_15 
REMARK    9  A    between atoms: C9_15  and  C10_16 
REMARK   10  A    between atoms: C9_15  and  O17_54 
REMARK   11  A    between atoms: C10_16  and  C13_19 
REMARK   12  A    between atoms: C13_19  and  O4_20 
REMARK   13  A    between atoms: O4_20  and  P1_21 
REMARK   14  A    between atoms: P1_21  and  O6_23 
REMARK   15  A    between atoms: P1_21  and  O7_24 
REMARK   16  A    between atoms: O7_24  and  P2_25 
REMARK   17  A    between atoms: P2_25  and  O9_27 
REMARK   18  A    between atoms: P2_25  and  O10_28 
REMARK   19  A    between atoms: O10_28  and  C14_29 
REMARK   20  A    between atoms: C14_29  and  C15_30 
REMARK   21  A    between atoms: C16_31  and  O13_49 
REMARK   22  A    between atoms: C17_32  and  O12_48 
REMARK   23  A    between atoms: C18_33  and  N3_35 
REMARK   24  A    between atoms: C21_40  and  N7_47 
REMARK   25  A    between atoms: O13_49  and  P3_50 
REMARK   26  A    between atoms: P3_50  and  O15_52 
REMARK   27  A    between atoms: P3_50  and  O16_53 
ROOT
HETATM    1  C1  UNL     1       1.228  16.635  -7.296  1.00  0.00     0.104 C 
HETATM    2  C2  UNL     1       2.407  15.717  -7.171  1.00  0.00     0.182 C 
HETATM    3  O1  UNL     1       2.377  14.533  -7.497  1.00  0.00    -0.286 OA
ENDROOT
BRANCH   2   4
HETATM    4  S1  UNL     1       3.838  16.467  -6.477  1.00  0.00    -0.091 SA
BRANCH   4   5
HETATM    5  C3  UNL     1       4.529  15.053  -5.558  1.00  0.00     0.102 C 
BRANCH   5   6
HETATM    6  C4  UNL     1       3.758  14.782  -4.265  1.00  0.00     0.133 C 
BRANCH   6   7
HETATM    7  N1  UNL     1       4.155  13.545  -3.626  1.00  0.00    -0.360 N 
HETATM    8  C5  UNL     1       3.625  12.333  -4.004  1.00  0.00     0.219 C 
HETATM    9  O2  UNL     1       2.735  12.233  -4.840  1.00  0.00    -0.274 OA
HETATM   10  H8  UNL     1       4.845  13.578  -2.887  1.00  0.00     0.162 HD
BRANCH   8  11
HETATM   11  C6  UNL     1       4.214  11.160  -3.250  1.00  0.00     0.122 C 
BRANCH  11  12
HETATM   12  C7  UNL     1       5.721  11.034  -3.476  1.00  0.00     0.132 C 
BRANCH  12  13
HETATM   13  N2  UNL     1       6.506  11.683  -2.447  1.00  0.00    -0.358 N 
HETATM   14  C8  UNL     1       7.595  11.037  -1.891  1.00  0.00     0.247 C 
HETATM   15  O3  UNL     1       7.865   9.872  -2.152  1.00  0.00    -0.271 OA
HETATM   16  H13 UNL     1       6.543  12.699  -2.499  1.00  0.00     0.162 HD
BRANCH  14  17
HETATM   17  C9  UNL     1       8.441  11.901  -0.944  1.00  0.00     0.219 C 
BRANCH  17  18
HETATM   18  C10 UNL     1       8.277  11.557   0.560  1.00  0.00     0.009 C 
HETATM   19  C11 UNL     1       7.610  12.696   1.345  1.00  0.00     0.020 C 
HETATM   20  C12 UNL     1       7.430  10.284   0.759  1.00  0.00     0.020 C 
BRANCH  18  21
HETATM   21  C13 UNL     1       9.715  11.320   1.103  1.00  0.00     0.192 C 
BRANCH  21  22
HETATM   22  O4  UNL     1      10.366  12.527   1.447  1.00  0.00    -0.296 OA
BRANCH  22  23
HETATM   23  P1  UNL     1      11.816  12.569   2.132  1.00  0.00     0.401 P 
HETATM   24  O5  UNL     1      12.878  13.185   1.276  1.00  0.00    -0.631 OA
BRANCH  23  25
HETATM   25  O6  UNL     1      12.151  11.068   2.604  1.00  0.00    -0.307 OA
HETATM   26  H23 UNL     1      13.101  10.924   2.706  1.00  0.00     0.222 HD
ENDBRANCH  23  25
BRANCH  23  27
HETATM   27  O7  UNL     1      11.588  13.290   3.531  1.00  0.00    -0.195 OA
BRANCH  27  28
HETATM   28  P2  UNL     1      12.784  13.326   4.583  1.00  0.00     0.401 P 
HETATM   29  O8  UNL     1      12.915  12.153   5.498  1.00  0.00    -0.631 OA
BRANCH  28  30
HETATM   30  O9  UNL     1      14.068  13.585   3.669  1.00  0.00    -0.307 OA
HETATM   31  H24 UNL     1      13.900  14.179   2.898  1.00  0.00     0.222 HD
ENDBRANCH  28  30
BRANCH  28  32
HETATM   32  O10 UNL     1      12.635  14.750   5.290  1.00  0.00    -0.294 OA
BRANCH  32  33
HETATM   33  C14 UNL     1      11.443  15.083   5.953  1.00  0.00     0.215 C 
BRANCH  33  34
HETATM   34  C15 UNL     1      11.543  16.570   6.289  1.00  0.00     0.180 C 
HETATM   35  C16 UNL     1      12.981  17.042   6.116  1.00  0.00     0.197 C 
HETATM   36  C17 UNL     1      13.406  17.494   7.500  1.00  0.00     0.199 C 
HETATM   37  C18 UNL     1      12.066  17.853   8.148  1.00  0.00     0.262 C 
HETATM   38  O11 UNL     1      11.145  16.867   7.632  1.00  0.00    -0.353 OA
BRANCH  35  39
HETATM   39  O13 UNL     1      12.984  18.112   5.177  1.00  0.00    -0.286 OA
BRANCH  39  40
HETATM   40  P3  UNL     1      14.148  18.064   4.082  1.00  0.00     0.391 P 
HETATM   41  O14 UNL     1      15.507  18.346   4.635  1.00  0.00    -0.632 OA
BRANCH  40  42
HETATM   42  O15 UNL     1      13.569  19.075   2.986  1.00  0.00    -0.307 OA
HETATM   43  H36 UNL     1      13.031  18.591   2.315  1.00  0.00     0.222 HD
ENDBRANCH  40  42
BRANCH  40  44
HETATM   44  O16 UNL     1      13.902  16.637   3.423  1.00  0.00    -0.307 OA
HETATM   45  H37 UNL     1      14.532  16.437   2.712  1.00  0.00     0.222 HD
ENDBRANCH  40  44
ENDBRANCH  39  40
ENDBRANCH  35  39
BRANCH  36  46
HETATM   46  O12 UNL     1      14.387  18.530   7.404  1.00  0.00    -0.388 OA
HETATM   47  H35 UNL     1      15.214  18.100   7.082  1.00  0.00     0.210 HD
ENDBRANCH  36  46
BRANCH  37  48
HETATM   48  N3  UNL     1      12.101  17.749   9.593  1.00  0.00    -0.297 N 
HETATM   49  C19 UNL     1      12.942  16.966  10.350  1.00  0.00     0.188 A 
HETATM   50  N4  UNL     1      12.807  17.191  11.638  1.00  0.00    -0.346 N 
HETATM   51  C20 UNL     1      11.834  18.172  11.721  1.00  0.00     0.116 A 
HETATM   52  H4  UNL     1      13.308  16.744  12.406  1.00  0.00     0.167 HD
HETATM   53  C21 UNL     1      11.273  18.868  12.806  1.00  0.00     0.109 A 
HETATM   54  C23 UNL     1      11.360  18.498  10.464  1.00  0.00     0.142 A 
HETATM   55  N5  UNL     1      10.307  19.786  12.558  1.00  0.00    -0.341 N 
HETATM   56  C22 UNL     1       9.927  19.983  11.280  1.00  0.00     0.183 A 
HETATM   57  H5  UNL     1       9.879  20.313  13.319  1.00  0.00     0.167 HD
HETATM   58  N6  UNL     1      10.395  19.386  10.165  1.00  0.00    -0.336 N 
HETATM   59  H6  UNL     1      10.062  19.581   9.221  1.00  0.00     0.168 HD
BRANCH  53  60
HETATM   60  N7  UNL     1      11.650  18.659  14.123  1.00  0.00    -0.287 NA
HETATM   61  H33 UNL     1      12.274  19.370  14.498  1.00  0.00     0.125 HD
HETATM   62  H34 UNL     1      11.888  17.696  14.317  1.00  0.00     0.125 HD
ENDBRANCH  53  60
ENDBRANCH  37  48
ENDBRANCH  33  34
ENDBRANCH  32  33
ENDBRANCH  28  32
ENDBRANCH  27  28
ENDBRANCH  23  27
ENDBRANCH  22  23
ENDBRANCH  21  22
ENDBRANCH  18  21
ENDBRANCH  17  18
BRANCH  17  63
HETATM   63  O17 UNL     1       9.827  11.795  -1.286  1.00  0.00    -0.385 OA
HETATM   64  H38 UNL     1      10.344  12.242  -0.595  1.00  0.00     0.210 HD
ENDBRANCH  17  63
ENDBRANCH  14  17
ENDBRANCH  12  13
ENDBRANCH  11  12
ENDBRANCH   8  11
ENDBRANCH   6   7
ENDBRANCH   5   6
ENDBRANCH   4   5
ENDBRANCH   2   4
TORSDOF 27
ENDMDL
