MODEL 1
REMARK VINA RESULT:      -4.1      0.000      0.000
REMARK  2 active torsions:
REMARK  status: ('A' for Active; 'I' for Inactive)
REMARK    1  A    between atoms: C3_3  and  O1_10 
REMARK    2  A    between atoms: C6_6  and  N1_7 
ROOT
HETATM    1  C1  PAP L   1      -7.435  -6.231  -6.016  1.00  0.00     0.026 A 
HETATM    2  C2  PAP L   1      -7.104  -5.143  -5.205  1.00  0.00     0.038 A 
HETATM    3  C3  PAP L   1      -6.962  -5.324  -3.836  1.00  0.00     0.065 A 
HETATM    4  C4  PAP L   1      -7.130  -6.581  -3.266  1.00  0.00     0.038 A 
HETATM    5  C5  PAP L   1      -7.463  -7.665  -4.084  1.00  0.00     0.026 A 
HETATM    6  C6  PAP L   1      -7.668  -7.491  -5.457  1.00  0.00     0.005 A 
ENDROOT
BRANCH   6   7
HETATM    7  N1  PAP L   1      -7.882  -8.601  -6.283  1.00  0.00    -0.303 NA
HETATM    8  H5  PAP L   1      -8.537  -8.427  -7.038  1.00  0.00     0.124 HD
HETATM    9  H6  PAP L   1      -8.094  -9.454  -5.778  1.00  0.00     0.124 HD
ENDBRANCH   6   7
BRANCH   3  10
HETATM   10  O1  PAP L   1      -6.636  -4.239  -3.079  1.00  0.00    -0.361 OA
HETATM   11  H7  PAP L   1      -7.090  -4.310  -2.224  1.00  0.00     0.217 HD
ENDBRANCH   3  10
TORSDOF 2
ENDMDL
MODEL 2
REMARK VINA RESULT:      -4.1      2.788      3.269
REMARK  2 active torsions:
REMARK  status: ('A' for Active; 'I' for Inactive)
REMARK    1  A    between atoms: C3_3  and  O1_10 
REMARK    2  A    between atoms: C6_6  and  N1_7 
ROOT
HETATM    1  C1  PAP L   1      -7.411  -5.249  -5.494  1.00  0.00     0.026 A 
HETATM    2  C2  PAP L   1      -7.675  -6.426  -6.199  1.00  0.00     0.038 A 
HETATM    3  C3  PAP L   1      -7.615  -7.648  -5.543  1.00  0.00     0.065 A 
HETATM    4  C4  PAP L   1      -7.310  -7.711  -4.188  1.00  0.00     0.038 A 
HETATM    5  C5  PAP L   1      -7.046  -6.529  -3.489  1.00  0.00     0.026 A 
HETATM    6  C6  PAP L   1      -7.044  -5.293  -4.145  1.00  0.00     0.005 A 
ENDROOT
BRANCH   6   7
HETATM    7  N1  PAP L   1      -6.898  -4.108  -3.415  1.00  0.00    -0.303 NA
HETATM    8  H5  PAP L   1      -6.404  -4.229  -2.537  1.00  0.00     0.124 HD
HETATM    9  H6  PAP L   1      -7.761  -3.586  -3.304  1.00  0.00     0.124 HD
ENDBRANCH   6   7
BRANCH   3  10
HETATM   10  O1  PAP L   1      -7.880  -8.773  -6.264  1.00  0.00    -0.361 OA
HETATM   11  H7  PAP L   1      -7.047  -9.111  -6.630  1.00  0.00     0.217 HD
ENDBRANCH   3  10
TORSDOF 2
ENDMDL
MODEL 3
REMARK VINA RESULT:      -4.0     16.071     16.869
REMARK  2 active torsions:
REMARK  status: ('A' for Active; 'I' for Inactive)
REMARK    1  A    between atoms: C3_3  and  O1_10 
REMARK    2  A    between atoms: C6_6  and  N1_7 
ROOT
HETATM    1  C1  PAP L   1       6.729   2.983   1.017  1.00  0.00     0.026 A 
HETATM    2  C2  PAP L   1       5.760   2.803   2.008  1.00  0.00     0.038 A 
HETATM    3  C3  PAP L   1       5.107   1.583   2.118  1.00  0.00     0.065 A 
HETATM    4  C4  PAP L   1       5.420   0.533   1.263  1.00  0.00     0.038 A 
HETATM    5  C5  PAP L   1       6.390   0.720   0.273  1.00  0.00     0.026 A 
HETATM    6  C6  PAP L   1       7.016   1.960   0.108  1.00  0.00     0.005 A 
ENDROOT
BRANCH   6   7
HETATM    7  N1  PAP L   1       8.068   2.102  -0.804  1.00  0.00    -0.303 NA
HETATM    8  H5  PAP L   1       8.536   3.001  -0.749  1.00  0.00     0.124 HD
HETATM    9  H6  PAP L   1       7.822   1.853  -1.756  1.00  0.00     0.124 HD
ENDBRANCH   6   7
BRANCH   3  10
HETATM   10  O1  PAP L   1       4.170   1.447   3.098  1.00  0.00    -0.361 OA
HETATM   11  H7  PAP L   1       3.603   0.689   2.882  1.00  0.00     0.217 HD
ENDBRANCH   3  10
TORSDOF 2
ENDMDL
MODEL 4
REMARK VINA RESULT:      -3.9     16.136     16.944
REMARK  2 active torsions:
REMARK  status: ('A' for Active; 'I' for Inactive)
REMARK    1  A    between atoms: C3_3  and  O1_10 
REMARK    2  A    between atoms: C6_6  and  N1_7 
ROOT
HETATM    1  C1  PAP L   1       5.790   2.815   1.997  1.00  0.00     0.026 A 
HETATM    2  C2  PAP L   1       6.776   3.027   1.030  1.00  0.00     0.038 A 
HETATM    3  C3  PAP L   1       7.102   2.008   0.145  1.00  0.00     0.065 A 
HETATM    4  C4  PAP L   1       6.445   0.783   0.202  1.00  0.00     0.038 A 
HETATM    5  C5  PAP L   1       5.460   0.578   1.173  1.00  0.00     0.026 A 
HETATM    6  C6  PAP L   1       5.159   1.572   2.111  1.00  0.00     0.005 A 
ENDROOT
BRANCH   6   7
HETATM    7  N1  PAP L   1       4.092   1.402   3.000  1.00  0.00    -0.303 NA
HETATM    8  H5  PAP L   1       4.087   0.499   3.463  1.00  0.00     0.124 HD
HETATM    9  H6  PAP L   1       3.187   1.637   2.605  1.00  0.00     0.124 HD
ENDBRANCH   6   7
BRANCH   3  10
HETATM   10  O1  PAP L   1       8.066   2.254  -0.784  1.00  0.00    -0.361 OA
HETATM   11  H7  PAP L   1       8.935   2.129  -0.370  1.00  0.00     0.217 HD
ENDBRANCH   3  10
TORSDOF 2
ENDMDL
MODEL 5
REMARK VINA RESULT:      -3.9     16.151     16.982
REMARK  2 active torsions:
REMARK  status: ('A' for Active; 'I' for Inactive)
REMARK    1  A    between atoms: C3_3  and  O1_10 
REMARK    2  A    between atoms: C6_6  and  N1_7 
ROOT
HETATM    1  C1  PAP L   1       5.467   0.605   1.160  1.00  0.00     0.026 A 
HETATM    2  C2  PAP L   1       6.471   0.848   0.219  1.00  0.00     0.038 A 
HETATM    3  C3  PAP L   1       7.105   2.082   0.194  1.00  0.00     0.065 A 
HETATM    4  C4  PAP L   1       6.762   3.074   1.107  1.00  0.00     0.038 A 
HETATM    5  C5  PAP L   1       5.756   2.823   2.045  1.00  0.00     0.026 A 
HETATM    6  C6  PAP L   1       5.065   1.607   2.048  1.00  0.00     0.005 A 
ENDROOT
BRANCH   6   7
HETATM    7  N1  PAP L   1       4.145   1.322   3.064  1.00  0.00    -0.303 NA
HETATM    8  H5  PAP L   1       3.267   0.944   2.724  1.00  0.00     0.124 HD
HETATM    9  H6  PAP L   1       4.010   2.084   3.720  1.00  0.00     0.124 HD
ENDBRANCH   6   7
BRANCH   3  10
HETATM   10  O1  PAP L   1       8.080   2.280  -0.736  1.00  0.00    -0.361 OA
HETATM   11  H7  PAP L   1       7.764   2.931  -1.384  1.00  0.00     0.217 HD
ENDBRANCH   3  10
TORSDOF 2
ENDMDL
MODEL 6
REMARK VINA RESULT:      -3.8      2.885      3.507
REMARK  2 active torsions:
REMARK  status: ('A' for Active; 'I' for Inactive)
REMARK    1  A    between atoms: C3_3  and  O1_10 
REMARK    2  A    between atoms: C6_6  and  N1_7 
ROOT
HETATM    1  C1  PAP L   1      -6.563  -6.605  -2.087  1.00  0.00     0.026 A 
HETATM    2  C2  PAP L   1      -5.470  -7.191  -2.730  1.00  0.00     0.038 A 
HETATM    3  C3  PAP L   1      -5.636  -7.763  -3.983  1.00  0.00     0.065 A 
HETATM    4  C4  PAP L   1      -6.876  -7.746  -4.612  1.00  0.00     0.038 A 
HETATM    5  C5  PAP L   1      -7.966  -7.158  -3.962  1.00  0.00     0.026 A 
HETATM    6  C6  PAP L   1      -7.832  -6.629  -2.674  1.00  0.00     0.005 A 
ENDROOT
BRANCH   6   7
HETATM    7  N1  PAP L   1      -8.896  -5.938  -2.082  1.00  0.00    -0.303 NA
HETATM    8  H5  PAP L   1      -9.768  -6.016  -2.595  1.00  0.00     0.124 HD
HETATM    9  H6  PAP L   1      -8.676  -4.978  -1.838  1.00  0.00     0.124 HD
ENDBRANCH   6   7
BRANCH   3  10
HETATM   10  O1  PAP L   1      -4.545  -8.322  -4.579  1.00  0.00    -0.361 OA
HETATM   11  H7  PAP L   1      -3.837  -7.660  -4.614  1.00  0.00     0.217 HD
ENDBRANCH   3  10
TORSDOF 2
ENDMDL
MODEL 7
REMARK VINA RESULT:      -3.8      2.317      2.877
REMARK  2 active torsions:
REMARK  status: ('A' for Active; 'I' for Inactive)
REMARK    1  A    between atoms: C3_3  and  O1_10 
REMARK    2  A    between atoms: C6_6  and  N1_7 
ROOT
HETATM    1  C1  PAP L   1      -5.532  -7.137  -2.629  1.00  0.00     0.026 A 
HETATM    2  C2  PAP L   1      -6.686  -6.599  -2.054  1.00  0.00     0.038 A 
HETATM    3  C3  PAP L   1      -7.883  -6.633  -2.756  1.00  0.00     0.065 A 
HETATM    4  C4  PAP L   1      -7.949  -7.212  -4.018  1.00  0.00     0.038 A 
HETATM    5  C5  PAP L   1      -6.790  -7.748  -4.587  1.00  0.00     0.026 A 
HETATM    6  C6  PAP L   1      -5.562  -7.671  -3.921  1.00  0.00     0.005 A 
ENDROOT
BRANCH   6   7
HETATM    7  N1  PAP L   1      -4.435  -8.315  -4.444  1.00  0.00    -0.303 NA
HETATM    8  H5  PAP L   1      -4.154  -7.969  -5.356  1.00  0.00     0.124 HD
HETATM    9  H6  PAP L   1      -4.491  -9.328  -4.416  1.00  0.00     0.124 HD
ENDBRANCH   6   7
BRANCH   3  10
HETATM   10  O1  PAP L   1      -8.987  -6.099  -2.161  1.00  0.00    -0.361 OA
HETATM   11  H7  PAP L   1      -9.162  -5.230  -2.555  1.00  0.00     0.217 HD
ENDBRANCH   3  10
TORSDOF 2
ENDMDL
MODEL 8
REMARK VINA RESULT:      -3.8      2.949      3.586
REMARK  2 active torsions:
REMARK  status: ('A' for Active; 'I' for Inactive)
REMARK    1  A    between atoms: C3_3  and  O1_10 
REMARK    2  A    between atoms: C6_6  and  N1_7 
ROOT
HETATM    1  C1  PAP L   1      -8.458  -3.910  -2.847  1.00  0.00     0.026 A 
HETATM    2  C2  PAP L   1      -9.094  -4.724  -1.905  1.00  0.00     0.038 A 
HETATM    3  C3  PAP L   1      -8.968  -6.103  -1.991  1.00  0.00     0.065 A 
HETATM    4  C4  PAP L   1      -8.202  -6.683  -2.996  1.00  0.00     0.038 A 
HETATM    5  C5  PAP L   1      -7.569  -5.863  -3.935  1.00  0.00     0.026 A 
HETATM    6  C6  PAP L   1      -7.732  -4.474  -3.900  1.00  0.00     0.005 A 
ENDROOT
BRANCH   6   7
HETATM    7  N1  PAP L   1      -7.001  -3.657  -4.769  1.00  0.00    -0.303 NA
HETATM    8  H5  PAP L   1      -6.048  -3.971  -4.919  1.00  0.00     0.124 HD
HETATM    9  H6  PAP L   1      -7.050  -2.669  -4.542  1.00  0.00     0.124 HD
ENDBRANCH   6   7
BRANCH   3  10
HETATM   10  O1  PAP L   1      -9.601  -6.862  -1.053  1.00  0.00    -0.361 OA
HETATM   11  H7  PAP L   1      -8.984  -7.540  -0.735  1.00  0.00     0.217 HD
ENDBRANCH   3  10
TORSDOF 2
ENDMDL
MODEL 9
REMARK VINA RESULT:      -3.8      2.673      3.283
REMARK  2 active torsions:
REMARK  status: ('A' for Active; 'I' for Inactive)
REMARK    1  A    between atoms: C3_3  and  O1_10 
REMARK    2  A    between atoms: C6_6  and  N1_7 
ROOT
HETATM    1  C1  PAP L   1      -9.026  -4.595  -2.038  1.00  0.00     0.026 A 
HETATM    2  C2  PAP L   1      -8.357  -3.813  -2.984  1.00  0.00     0.038 A 
HETATM    3  C3  PAP L   1      -7.590  -4.426  -3.964  1.00  0.00     0.065 A 
HETATM    4  C4  PAP L   1      -7.493  -5.812  -4.024  1.00  0.00     0.038 A 
HETATM    5  C5  PAP L   1      -8.164  -6.588  -3.074  1.00  0.00     0.026 A 
HETATM    6  C6  PAP L   1      -8.894  -5.987  -2.043  1.00  0.00     0.005 A 
ENDROOT
BRANCH   6   7
HETATM    7  N1  PAP L   1      -9.658  -6.771  -1.171  1.00  0.00    -0.303 NA
HETATM    8  H5  PAP L   1      -9.887  -7.687  -1.541  1.00  0.00     0.124 HD
HETATM    9  H6  PAP L   1     -10.470  -6.293  -0.795  1.00  0.00     0.124 HD
ENDBRANCH   6   7
BRANCH   3  10
HETATM   10  O1  PAP L   1      -6.956  -3.630  -4.869  1.00  0.00    -0.361 OA
HETATM   11  H7  PAP L   1      -6.304  -3.085  -4.400  1.00  0.00     0.217 HD
ENDBRANCH   3  10
TORSDOF 2
ENDMDL
MODEL 10
REMARK VINA RESULT:      -3.7      2.450      2.985
REMARK  2 active torsions:
REMARK  status: ('A' for Active; 'I' for Inactive)
REMARK    1  A    between atoms: C3_3  and  O1_10 
REMARK    2  A    between atoms: C6_6  and  N1_7 
ROOT
HETATM    1  C1  PAP L   1      -6.827  -5.249  -3.375  1.00  0.00     0.026 A 
HETATM    2  C2  PAP L   1      -7.334  -5.007  -4.655  1.00  0.00     0.038 A 
HETATM    3  C3  PAP L   1      -7.547  -6.070  -5.522  1.00  0.00     0.065 A 
HETATM    4  C4  PAP L   1      -7.277  -7.374  -5.123  1.00  0.00     0.038 A 
HETATM    5  C5  PAP L   1      -6.769  -7.608  -3.842  1.00  0.00     0.026 A 
HETATM    6  C6  PAP L   1      -6.492  -6.546  -2.975  1.00  0.00     0.005 A 
ENDROOT
BRANCH   6   7
HETATM    7  N1  PAP L   1      -6.098  -6.797  -1.656  1.00  0.00    -0.303 NA
HETATM    8  H5  PAP L   1      -5.218  -6.360  -1.403  1.00  0.00     0.124 HD
HETATM    9  H6  PAP L   1      -6.130  -7.778  -1.398  1.00  0.00     0.124 HD
ENDBRANCH   6   7
BRANCH   3  10
HETATM   10  O1  PAP L   1      -8.044  -5.794  -6.760  1.00  0.00    -0.361 OA
HETATM   11  H7  PAP L   1      -7.743  -6.481  -7.375  1.00  0.00     0.217 HD
ENDBRANCH   3  10
TORSDOF 2
ENDMDL
MODEL 11
REMARK VINA RESULT:      -3.7     11.503     12.444
REMARK  2 active torsions:
REMARK  status: ('A' for Active; 'I' for Inactive)
REMARK    1  A    between atoms: C3_3  and  O1_10 
REMARK    2  A    between atoms: C6_6  and  N1_7 
ROOT
HETATM    1  C1  PAP L   1      -1.049   2.297  -1.472  1.00  0.00     0.026 A 
HETATM    2  C2  PAP L   1      -0.527   3.211  -0.553  1.00  0.00     0.038 A 
HETATM    3  C3  PAP L   1       0.262   4.262  -1.001  1.00  0.00     0.065 A 
HETATM    4  C4  PAP L   1       0.525   4.423  -2.357  1.00  0.00     0.038 A 
HETATM    5  C5  PAP L   1      -0.000   3.504  -3.271  1.00  0.00     0.026 A 
HETATM    6  C6  PAP L   1      -0.748   2.405  -2.833  1.00  0.00     0.005 A 
ENDROOT
BRANCH   6   7
HETATM    7  N1  PAP L   1      -1.368   1.561  -3.761  1.00  0.00    -0.303 NA
HETATM    8  H5  PAP L   1      -0.757   0.837  -4.126  1.00  0.00     0.124 HD
HETATM    9  H6  PAP L   1      -1.864   2.053  -4.497  1.00  0.00     0.124 HD
ENDBRANCH   6   7
BRANCH   3  10
HETATM   10  O1  PAP L   1       0.750   5.133  -0.074  1.00  0.00    -0.361 OA
HETATM   11  H7  PAP L   1       0.058   5.307   0.584  1.00  0.00     0.217 HD
ENDBRANCH   3  10
TORSDOF 2
ENDMDL
MODEL 12
REMARK VINA RESULT:      -3.6     11.546     12.373
REMARK  2 active torsions:
REMARK  status: ('A' for Active; 'I' for Inactive)
REMARK    1  A    between atoms: C3_3  and  O1_10 
REMARK    2  A    between atoms: C6_6  and  N1_7 
ROOT
HETATM    1  C1  PAP L   1      -1.336   2.852  -3.140  1.00  0.00     0.026 A 
HETATM    2  C2  PAP L   1      -0.762   2.446  -1.933  1.00  0.00     0.038 A 
HETATM    3  C3  PAP L   1      -0.557   3.375  -0.922  1.00  0.00     0.065 A 
HETATM    4  C4  PAP L   1      -0.932   4.703  -1.093  1.00  0.00     0.038 A 
HETATM    5  C5  PAP L   1      -1.505   5.102  -2.304  1.00  0.00     0.026 A 
HETATM    6  C6  PAP L   1      -1.666   4.194  -3.356  1.00  0.00     0.005 A 
ENDROOT
BRANCH   6   7
HETATM    7  N1  PAP L   1      -2.348   4.574  -4.517  1.00  0.00    -0.303 NA
HETATM    8  H5  PAP L   1      -2.557   3.800  -5.139  1.00  0.00     0.124 HD
HETATM    9  H6  PAP L   1      -1.924   5.357  -5.005  1.00  0.00     0.124 HD
ENDBRANCH   6   7
BRANCH   3  10
HETATM   10  O1  PAP L   1       0.004   2.939   0.241  1.00  0.00    -0.361 OA
HETATM   11  H7  PAP L   1       0.965   3.059   0.186  1.00  0.00     0.217 HD
ENDBRANCH   3  10
TORSDOF 2
ENDMDL
MODEL 13
REMARK VINA RESULT:      -3.5      3.292      4.000
REMARK  2 active torsions:
REMARK  status: ('A' for Active; 'I' for Inactive)
REMARK    1  A    between atoms: C3_3  and  O1_10 
REMARK    2  A    between atoms: C6_6  and  N1_7 
ROOT
HETATM    1  C1  PAP L   1      -6.673  -6.482  -2.323  1.00  0.00     0.026 A 
HETATM    2  C2  PAP L   1      -7.275  -7.018  -3.464  1.00  0.00     0.038 A 
HETATM    3  C3  PAP L   1      -6.518  -7.771  -4.352  1.00  0.00     0.065 A 
HETATM    4  C4  PAP L   1      -5.170  -8.010  -4.108  1.00  0.00     0.038 A 
HETATM    5  C5  PAP L   1      -4.574  -7.469  -2.965  1.00  0.00     0.026 A 
HETATM    6  C6  PAP L   1      -5.306  -6.659  -2.089  1.00  0.00     0.005 A 
ENDROOT
BRANCH   6   7
HETATM    7  N1  PAP L   1      -4.733  -6.223  -0.889  1.00  0.00    -0.303 NA
HETATM    8  H5  PAP L   1      -3.945  -6.785  -0.585  1.00  0.00     0.124 HD
HETATM    9  H6  PAP L   1      -5.407  -6.068  -0.146  1.00  0.00     0.124 HD
ENDBRANCH   6   7
BRANCH   3  10
HETATM   10  O1  PAP L   1      -7.142  -8.278  -5.451  1.00  0.00    -0.361 OA
HETATM   11  H7  PAP L   1      -6.659  -7.991  -6.243  1.00  0.00     0.217 HD
ENDBRANCH   3  10
TORSDOF 2
ENDMDL
MODEL 14
REMARK VINA RESULT:      -3.5      4.696      4.786
REMARK  2 active torsions:
REMARK  status: ('A' for Active; 'I' for Inactive)
REMARK    1  A    between atoms: C3_3  and  O1_10 
REMARK    2  A    between atoms: C6_6  and  N1_7 
ROOT
HETATM    1  C1  PAP L   1      -3.137  -6.878  -5.379  1.00  0.00     0.026 A 
HETATM    2  C2  PAP L   1      -1.948  -7.274  -4.760  1.00  0.00     0.038 A 
HETATM    3  C3  PAP L   1      -1.996  -8.081  -3.632  1.00  0.00     0.065 A 
HETATM    4  C4  PAP L   1      -3.215  -8.513  -3.121  1.00  0.00     0.038 A 
HETATM    5  C5  PAP L   1      -4.400  -8.112  -3.745  1.00  0.00     0.026 A 
HETATM    6  C6  PAP L   1      -4.375  -7.251  -4.847  1.00  0.00     0.005 A 
ENDROOT
BRANCH   6   7
HETATM    7  N1  PAP L   1      -5.557  -6.953  -5.535  1.00  0.00    -0.303 NA
HETATM    8  H5  PAP L   1      -6.377  -6.917  -4.940  1.00  0.00     0.124 HD
HETATM    9  H6  PAP L   1      -5.704  -7.523  -6.362  1.00  0.00     0.124 HD
ENDBRANCH   6   7
BRANCH   3  10
HETATM   10  O1  PAP L   1      -0.815  -8.447  -3.059  1.00  0.00    -0.361 OA
HETATM   11  H7  PAP L   1      -0.508  -9.266  -3.478  1.00  0.00     0.217 HD
ENDBRANCH   3  10
TORSDOF 2
ENDMDL
MODEL 15
REMARK VINA RESULT:      -3.5      4.088      4.598
REMARK  2 active torsions:
REMARK  status: ('A' for Active; 'I' for Inactive)
REMARK    1  A    between atoms: C3_3  and  O1_10 
REMARK    2  A    between atoms: C6_6  and  N1_7 
ROOT
HETATM    1  C1  PAP L   1      -5.098  -7.020  -2.907  1.00  0.00     0.026 A 
HETATM    2  C2  PAP L   1      -4.229  -8.063  -2.578  1.00  0.00     0.038 A 
HETATM    3  C3  PAP L   1      -3.281  -8.485  -3.499  1.00  0.00     0.065 A 
HETATM    4  C4  PAP L   1      -3.176  -7.868  -4.741  1.00  0.00     0.038 A 
HETATM    5  C5  PAP L   1      -4.050  -6.825  -5.064  1.00  0.00     0.026 A 
HETATM    6  C6  PAP L   1      -5.050  -6.425  -4.172  1.00  0.00     0.005 A 
ENDROOT
BRANCH   6   7
HETATM    7  N1  PAP L   1      -5.839  -5.305  -4.454  1.00  0.00    -0.303 NA
HETATM    8  H5  PAP L   1      -6.830  -5.452  -4.292  1.00  0.00     0.124 HD
HETATM    9  H6  PAP L   1      -5.655  -4.891  -5.363  1.00  0.00     0.124 HD
ENDBRANCH   6   7
BRANCH   3  10
HETATM   10  O1  PAP L   1      -2.451  -9.504  -3.140  1.00  0.00    -0.361 OA
HETATM   11  H7  PAP L   1      -1.954  -9.791  -3.923  1.00  0.00     0.217 HD
ENDBRANCH   3  10
TORSDOF 2
ENDMDL
MODEL 16
REMARK VINA RESULT:      -3.4      5.269      5.923
REMARK  2 active torsions:
REMARK  status: ('A' for Active; 'I' for Inactive)
REMARK    1  A    between atoms: C3_3  and  O1_10 
REMARK    2  A    between atoms: C6_6  and  N1_7 
ROOT
HETATM    1  C1  PAP L   1      -3.909  -7.854  -1.954  1.00  0.00     0.026 A 
HETATM    2  C2  PAP L   1      -4.549  -7.588  -0.741  1.00  0.00     0.038 A 
HETATM    3  C3  PAP L   1      -4.344  -8.428   0.344  1.00  0.00     0.065 A 
HETATM    4  C4  PAP L   1      -3.494  -9.524   0.241  1.00  0.00     0.038 A 
HETATM    5  C5  PAP L   1      -2.857  -9.784  -0.976  1.00  0.00     0.026 A 
HETATM    6  C6  PAP L   1      -3.097  -8.983  -2.098  1.00  0.00     0.005 A 
ENDROOT
BRANCH   6   7
HETATM    7  N1  PAP L   1      -2.365  -9.181  -3.274  1.00  0.00    -0.303 NA
HETATM    8  H5  PAP L   1      -1.749  -8.408  -3.506  1.00  0.00     0.124 HD
HETATM    9  H6  PAP L   1      -2.930  -9.474  -4.065  1.00  0.00     0.124 HD
ENDBRANCH   6   7
BRANCH   3  10
HETATM   10  O1  PAP L   1      -4.985  -8.134   1.510  1.00  0.00    -0.361 OA
HETATM   11  H7  PAP L   1      -4.469  -7.463   1.986  1.00  0.00     0.217 HD
ENDBRANCH   3  10
TORSDOF 2
ENDMDL
MODEL 17
REMARK VINA RESULT:      -3.4     12.444     13.083
REMARK  2 active torsions:
REMARK  status: ('A' for Active; 'I' for Inactive)
REMARK    1  A    between atoms: C3_3  and  O1_10 
REMARK    2  A    between atoms: C6_6  and  N1_7 
ROOT
HETATM    1  C1  PAP L   1       0.457   4.027  -2.415  1.00  0.00     0.026 A 
HETATM    2  C2  PAP L   1      -0.462   3.824  -3.447  1.00  0.00     0.038 A 
HETATM    3  C3  PAP L   1      -1.811   4.068  -3.225  1.00  0.00     0.065 A 
HETATM    4  C4  PAP L   1      -2.253   4.526  -1.989  1.00  0.00     0.038 A 
HETATM    5  C5  PAP L   1      -1.328   4.726  -0.960  1.00  0.00     0.026 A 
HETATM    6  C6  PAP L   1       0.027   4.430  -1.147  1.00  0.00     0.005 A 
ENDROOT
BRANCH   6   7
HETATM    7  N1  PAP L   1       0.960   4.746  -0.153  1.00  0.00    -0.303 NA
HETATM    8  H5  PAP L   1       1.698   5.367  -0.469  1.00  0.00     0.124 HD
HETATM    9  H6  PAP L   1       1.323   3.937   0.341  1.00  0.00     0.124 HD
ENDBRANCH   6   7
BRANCH   3  10
HETATM   10  O1  PAP L   1      -2.675   3.860  -4.257  1.00  0.00    -0.361 OA
HETATM   11  H7  PAP L   1      -3.532   4.255  -4.028  1.00  0.00     0.217 HD
ENDBRANCH   3  10
TORSDOF 2
ENDMDL
MODEL 18
REMARK VINA RESULT:      -3.4     11.781     12.528
REMARK  2 active torsions:
REMARK  status: ('A' for Active; 'I' for Inactive)
REMARK    1  A    between atoms: C3_3  and  O1_10 
REMARK    2  A    between atoms: C6_6  and  N1_7 
ROOT
HETATM    1  C1  PAP L   1       1.740  -5.522   1.808  1.00  0.00     0.026 A 
HETATM    2  C2  PAP L   1       1.503  -6.850   2.172  1.00  0.00     0.038 A 
HETATM    3  C3  PAP L   1       1.858  -7.290   3.439  1.00  0.00     0.065 A 
HETATM    4  C4  PAP L   1       2.431  -6.417   4.357  1.00  0.00     0.038 A 
HETATM    5  C5  PAP L   1       2.666  -5.089   3.986  1.00  0.00     0.026 A 
HETATM    6  C6  PAP L   1       2.370  -4.643   2.694  1.00  0.00     0.005 A 
ENDROOT
BRANCH   6   7
HETATM    7  N1  PAP L   1       2.496  -3.287   2.371  1.00  0.00    -0.303 NA
HETATM    8  H5  PAP L   1       1.691  -2.906   1.885  1.00  0.00     0.124 HD
HETATM    9  H6  PAP L   1       3.370  -3.055   1.910  1.00  0.00     0.124 HD
ENDBRANCH   6   7
BRANCH   3  10
HETATM   10  O1  PAP L   1       1.609  -8.591   3.757  1.00  0.00    -0.361 OA
HETATM   11  H7  PAP L   1       1.248  -9.038   2.974  1.00  0.00     0.217 HD
ENDBRANCH   3  10
TORSDOF 2
ENDMDL
MODEL 19
REMARK VINA RESULT:      -3.3      5.981      6.748
REMARK  2 active torsions:
REMARK  status: ('A' for Active; 'I' for Inactive)
REMARK    1  A    between atoms: C3_3  and  O1_10 
REMARK    2  A    between atoms: C6_6  and  N1_7 
ROOT
HETATM    1  C1  PAP L   1      -4.295  -7.516  -0.669  1.00  0.00     0.026 A 
HETATM    2  C2  PAP L   1      -3.883  -8.102  -1.869  1.00  0.00     0.038 A 
HETATM    3  C3  PAP L   1      -2.956  -9.135  -1.847  1.00  0.00     0.065 A 
HETATM    4  C4  PAP L   1      -2.444  -9.602  -0.642  1.00  0.00     0.038 A 
HETATM    5  C5  PAP L   1      -2.860  -9.010   0.555  1.00  0.00     0.026 A 
HETATM    6  C6  PAP L   1      -3.749  -7.930   0.549  1.00  0.00     0.005 A 
ENDROOT
BRANCH   6   7
HETATM    7  N1  PAP L   1      -4.250  -7.424   1.754  1.00  0.00    -0.303 NA
HETATM    8  H5  PAP L   1      -4.891  -6.646   1.635  1.00  0.00     0.124 HD
HETATM    9  H6  PAP L   1      -3.534  -7.231   2.448  1.00  0.00     0.124 HD
ENDBRANCH   6   7
BRANCH   3  10
HETATM   10  O1  PAP L   1      -2.582  -9.682  -3.038  1.00  0.00    -0.361 OA
HETATM   11  H7  PAP L   1      -2.895  -9.108  -3.755  1.00  0.00     0.217 HD
ENDBRANCH   3  10
TORSDOF 2
ENDMDL
MODEL 20
REMARK VINA RESULT:      -3.3     12.991     13.485
REMARK  2 active torsions:
REMARK  status: ('A' for Active; 'I' for Inactive)
REMARK    1  A    between atoms: C3_3  and  O1_10 
REMARK    2  A    between atoms: C6_6  and  N1_7 
ROOT
HETATM    1  C1  PAP L   1       6.627  -4.461  -3.702  1.00  0.00     0.026 A 
HETATM    2  C2  PAP L   1       6.065  -4.926  -2.510  1.00  0.00     0.038 A 
HETATM    3  C3  PAP L   1       5.030  -4.217  -1.916  1.00  0.00     0.065 A 
HETATM    4  C4  PAP L   1       4.536  -3.057  -2.503  1.00  0.00     0.038 A 
HETATM    5  C5  PAP L   1       5.104  -2.598  -3.695  1.00  0.00     0.026 A 
HETATM    6  C6  PAP L   1       6.187  -3.265  -4.278  1.00  0.00     0.005 A 
ENDROOT
BRANCH   6   7
HETATM    7  N1  PAP L   1       6.669  -2.866  -5.530  1.00  0.00    -0.303 NA
HETATM    8  H5  PAP L   1       6.752  -3.627  -6.196  1.00  0.00     0.124 HD
HETATM    9  H6  PAP L   1       7.510  -2.300  -5.484  1.00  0.00     0.124 HD
ENDBRANCH   6   7
BRANCH   3  10
HETATM   10  O1  PAP L   1       4.506  -4.704  -0.756  1.00  0.00    -0.361 OA
HETATM   11  H7  PAP L   1       3.542  -4.599  -0.783  1.00  0.00     0.217 HD
ENDBRANCH   3  10
TORSDOF 2
ENDMDL
