HETATM    1  C1  PAP L   1      -5.340   3.264  -9.668  1.00  0.00     0.026 A 
HETATM    2  C2  PAP L   1      -4.345   2.336  -9.345  1.00  0.00     0.038 A 
HETATM    3  C3  PAP L   1      -4.174   1.944  -8.025  1.00  0.00     0.065 A 
HETATM    4  C4  PAP L   1      -4.993   2.452  -7.022  1.00  0.00     0.038 A 
HETATM    5  C5  PAP L   1      -5.985   3.381  -7.353  1.00  0.00     0.026 A 
HETATM    6  C6  PAP L   1      -6.134   3.833  -8.669  1.00  0.00     0.005 A 
HETATM    7  N1  PAP L   1      -7.204   4.668  -9.009  1.00  0.00    -0.303 NA
HETATM    8  H5  PAP L   1      -6.921   5.605  -9.277  1.00  0.00     0.124 HD
HETATM    9  H6  PAP L   1      -7.955   4.673  -8.326  1.00  0.00     0.124 HD
HETATM   10  O1  PAP L   1      -3.196   1.036  -7.751  1.00  0.00    -0.361 OA
HETATM   11  H7  PAP L   1      -2.511   1.470  -7.216  1.00  0.00     0.217 HD
HETATM    1  C1  PAP L   1     -16.800   4.511  -0.734  1.00  0.00     0.026 A 
HETATM    2  C2  PAP L   1     -15.539   4.168  -0.237  1.00  0.00     0.038 A 
HETATM    3  C3  PAP L   1     -15.001   4.883   0.824  1.00  0.00     0.065 A 
HETATM    4  C4  PAP L   1     -15.711   5.926   1.408  1.00  0.00     0.038 A 
HETATM    5  C5  PAP L   1     -16.971   6.264   0.905  1.00  0.00     0.026 A 
HETATM    6  C6  PAP L   1     -17.505   5.594  -0.201  1.00  0.00     0.005 A 
HETATM    7  N1  PAP L   1     -18.813   5.858  -0.620  1.00  0.00    -0.303 NA
HETATM    8  H5  PAP L   1     -19.083   5.354  -1.458  1.00  0.00     0.124 HD
HETATM    9  H6  PAP L   1     -19.034   6.847  -0.677  1.00  0.00     0.124 HD
HETATM   10  O1  PAP L   1     -13.771   4.517   1.281  1.00  0.00    -0.361 OA
HETATM   11  H7  PAP L   1     -13.161   4.471   0.528  1.00  0.00     0.217 HD
HETATM    1  C1  PAP L   1      -5.311   3.818  -7.264  1.00  0.00     0.026 A 
HETATM    2  C2  PAP L   1      -4.835   3.134  -6.143  1.00  0.00     0.038 A 
HETATM    3  C3  PAP L   1      -4.927   1.751  -6.090  1.00  0.00     0.065 A 
HETATM    4  C4  PAP L   1      -5.475   1.036  -7.150  1.00  0.00     0.038 A 
HETATM    5  C5  PAP L   1      -5.951   1.727  -8.269  1.00  0.00     0.026 A 
HETATM    6  C6  PAP L   1      -5.920   3.125  -8.315  1.00  0.00     0.005 A 
HETATM    7  N1  PAP L   1      -6.287   3.799  -9.485  1.00  0.00    -0.303 NA
HETATM    8  H5  PAP L   1      -5.520   3.933 -10.136  1.00  0.00     0.124 HD
HETATM    9  H6  PAP L   1      -6.807   4.655  -9.320  1.00  0.00     0.124 HD
HETATM   10  O1  PAP L   1      -4.450   1.121  -4.981  1.00  0.00    -0.361 OA
HETATM   11  H7  PAP L   1      -4.744   1.609  -4.195  1.00  0.00     0.217 HD
HETATM    1  C1  PAP L   1      -5.203   3.467  -6.291  1.00  0.00     0.026 A 
HETATM    2  C2  PAP L   1      -5.804   3.478  -7.552  1.00  0.00     0.038 A 
HETATM    3  C3  PAP L   1      -6.051   2.280  -8.207  1.00  0.00     0.065 A 
HETATM    4  C4  PAP L   1      -5.721   1.067  -7.614  1.00  0.00     0.038 A 
HETATM    5  C5  PAP L   1      -5.119   1.063  -6.352  1.00  0.00     0.026 A 
HETATM    6  C6  PAP L   1      -4.808   2.262  -5.701  1.00  0.00     0.005 A 
HETATM    7  N1  PAP L   1      -4.316   2.246  -4.391  1.00  0.00    -0.303 NA
HETATM    8  H5  PAP L   1      -3.966   1.340  -4.098  1.00  0.00     0.124 HD
HETATM    9  H6  PAP L   1      -4.949   2.653  -3.710  1.00  0.00     0.124 HD
HETATM   10  O1  PAP L   1      -6.641   2.333  -9.434  1.00  0.00    -0.361 OA
HETATM   11  H7  PAP L   1      -7.598   2.445  -9.314  1.00  0.00     0.217 HD
HETATM    1  C1  PAP L   1     -16.059   4.579  -0.438  1.00  0.00     0.026 A 
HETATM    2  C2  PAP L   1     -17.210   5.292  -0.783  1.00  0.00     0.038 A 
HETATM    3  C3  PAP L   1     -17.642   6.333   0.026  1.00  0.00     0.065 A 
HETATM    4  C4  PAP L   1     -16.932   6.684   1.169  1.00  0.00     0.038 A 
HETATM    5  C5  PAP L   1     -15.782   5.965   1.509  1.00  0.00     0.026 A 
HETATM    6  C6  PAP L   1     -15.363   4.875   0.738  1.00  0.00     0.005 A 
HETATM    7  N1  PAP L   1     -14.148   4.240   1.018  1.00  0.00    -0.303 NA
HETATM    8  H5  PAP L   1     -13.343   4.855   0.958  1.00  0.00     0.124 HD
HETATM    9  H6  PAP L   1     -14.011   3.374   0.508  1.00  0.00     0.124 HD
HETATM   10  O1  PAP L   1     -18.767   7.006  -0.345  1.00  0.00    -0.361 OA
HETATM   11  H7  PAP L   1     -18.679   7.933  -0.073  1.00  0.00     0.217 HD
HETATM    1  C1  PAP L   1      -6.346   2.739  -8.563  1.00  0.00     0.026 A 
HETATM    2  C2  PAP L   1      -5.734   3.425  -7.510  1.00  0.00     0.038 A 
HETATM    3  C3  PAP L   1      -4.470   3.045  -7.084  1.00  0.00     0.065 A 
HETATM    4  C4  PAP L   1      -3.798   1.997  -7.704  1.00  0.00     0.038 A 
HETATM    5  C5  PAP L   1      -4.417   1.314  -8.756  1.00  0.00     0.026 A 
HETATM    6  C6  PAP L   1      -5.714   1.644  -9.161  1.00  0.00     0.005 A 
HETATM    7  N1  PAP L   1      -6.276   1.037 -10.290  1.00  0.00    -0.303 NA
HETATM    8  H5  PAP L   1      -7.170   0.591 -10.110  1.00  0.00     0.124 HD
HETATM    9  H6  PAP L   1      -5.636   0.430 -10.791  1.00  0.00     0.124 HD
HETATM   10  O1  PAP L   1      -3.906   3.740  -6.057  1.00  0.00    -0.361 OA
HETATM   11  H7  PAP L   1      -4.294   3.430  -5.223  1.00  0.00     0.217 HD
HETATM    1  C1  PAP L   1     -13.590   8.432  -5.355  1.00  0.00     0.026 A 
HETATM    2  C2  PAP L   1     -12.688   9.363  -5.876  1.00  0.00     0.038 A 
HETATM    3  C3  PAP L   1     -13.162  10.450  -6.599  1.00  0.00     0.065 A 
HETATM    4  C4  PAP L   1     -14.526  10.629  -6.795  1.00  0.00     0.038 A 
HETATM    5  C5  PAP L   1     -15.423   9.693  -6.272  1.00  0.00     0.026 A 
HETATM    6  C6  PAP L   1     -14.962   8.560  -5.592  1.00  0.00     0.005 A 
HETATM    7  N1  PAP L   1     -15.869   7.694  -4.970  1.00  0.00    -0.303 NA
HETATM    8  H5  PAP L   1     -16.840   7.947  -5.117  1.00  0.00     0.124 HD
HETATM    9  H6  PAP L   1     -15.660   7.514  -3.993  1.00  0.00     0.124 HD
HETATM   10  O1  PAP L   1     -12.251  11.336  -7.088  1.00  0.00    -0.361 OA
HETATM   11  H7  PAP L   1     -11.360  10.981  -6.938  1.00  0.00     0.217 HD
HETATM    1  C1  PAP L   1     -16.460   5.471   0.298  1.00  0.00     0.026 A 
HETATM    2  C2  PAP L   1     -17.344   6.551   0.377  1.00  0.00     0.038 A 
HETATM    3  C3  PAP L   1     -17.106   7.569   1.290  1.00  0.00     0.065 A 
HETATM    4  C4  PAP L   1     -15.989   7.533   2.117  1.00  0.00     0.038 A 
HETATM    5  C5  PAP L   1     -15.109   6.449   2.033  1.00  0.00     0.026 A 
HETATM    6  C6  PAP L   1     -15.363   5.385   1.161  1.00  0.00     0.005 A 
HETATM    7  N1  PAP L   1     -14.418   4.366   0.999  1.00  0.00    -0.303 NA
HETATM    8  H5  PAP L   1     -14.661   3.504   1.476  1.00  0.00     0.124 HD
HETATM    9  H6  PAP L   1     -13.465   4.656   1.190  1.00  0.00     0.124 HD
HETATM   10  O1  PAP L   1     -17.989   8.605   1.335  1.00  0.00    -0.361 OA
HETATM   11  H7  PAP L   1     -18.891   8.246   1.316  1.00  0.00     0.217 HD
HETATM    1  C1  PAP L   1     -14.661   8.145   2.603  1.00  0.00     0.026 A 
HETATM    2  C2  PAP L   1     -13.953   6.995   2.242  1.00  0.00     0.038 A 
HETATM    3  C3  PAP L   1     -14.628   5.921   1.679  1.00  0.00     0.065 A 
HETATM    4  C4  PAP L   1     -15.999   5.983   1.455  1.00  0.00     0.038 A 
HETATM    5  C5  PAP L   1     -16.701   7.137   1.819  1.00  0.00     0.026 A 
HETATM    6  C6  PAP L   1     -16.049   8.206   2.442  1.00  0.00     0.005 A 
HETATM    7  N1  PAP L   1     -16.736   9.400   2.693  1.00  0.00    -0.303 NA
HETATM    8  H5  PAP L   1     -16.128  10.207   2.791  1.00  0.00     0.124 HD
HETATM    9  H6  PAP L   1     -17.413   9.333   3.445  1.00  0.00     0.124 HD
HETATM   10  O1  PAP L   1     -13.902   4.819   1.339  1.00  0.00    -0.361 OA
HETATM   11  H7  PAP L   1     -13.642   4.356   2.151  1.00  0.00     0.217 HD
HETATM    1  C1  PAP L   1     -13.721   8.317  -5.463  1.00  0.00     0.026 A 
HETATM    2  C2  PAP L   1     -14.691   9.270  -5.785  1.00  0.00     0.038 A 
HETATM    3  C3  PAP L   1     -14.326  10.418  -6.475  1.00  0.00     0.065 A 
HETATM    4  C4  PAP L   1     -13.006  10.620  -6.864  1.00  0.00     0.038 A 
HETATM    5  C5  PAP L   1     -12.041   9.662  -6.538  1.00  0.00     0.026 A 
HETATM    6  C6  PAP L   1     -12.379   8.528  -5.792  1.00  0.00     0.005 A 
HETATM    7  N1  PAP L   1     -11.433   7.520  -5.575  1.00  0.00    -0.303 NA
HETATM    8  H5  PAP L   1     -10.986   7.569  -4.666  1.00  0.00     0.124 HD
HETATM    9  H6  PAP L   1     -10.762   7.418  -6.330  1.00  0.00     0.124 HD
HETATM   10  O1  PAP L   1     -15.300  11.322  -6.771  1.00  0.00    -0.361 OA
HETATM   11  H7  PAP L   1     -15.531  11.233  -7.710  1.00  0.00     0.217 HD
HETATM    1  C1  PAP L   1     -13.198   9.474  -6.206  1.00  0.00     0.026 A 
HETATM    2  C2  PAP L   1     -13.844   8.471  -5.479  1.00  0.00     0.038 A 
HETATM    3  C3  PAP L   1     -15.230   8.455  -5.412  1.00  0.00     0.065 A 
HETATM    4  C4  PAP L   1     -15.983   9.418  -6.075  1.00  0.00     0.038 A 
HETATM    5  C5  PAP L   1     -15.329  10.419  -6.800  1.00  0.00     0.026 A 
HETATM    6  C6  PAP L   1     -13.932  10.487  -6.831  1.00  0.00     0.005 A 
HETATM    7  N1  PAP L   1     -13.290  11.418  -7.654  1.00  0.00    -0.303 NA
HETATM    8  H5  PAP L   1     -12.949  12.235  -7.158  1.00  0.00     0.124 HD
HETATM    9  H6  PAP L   1     -13.818  11.664  -8.485  1.00  0.00     0.124 HD
HETATM   10  O1  PAP L   1     -15.823   7.460  -4.695  1.00  0.00    -0.361 OA
HETATM   11  H7  PAP L   1     -16.763   7.676  -4.581  1.00  0.00     0.217 HD
HETATM    1  C1  PAP L   1     -15.425   5.506   1.355  1.00  0.00     0.026 A 
HETATM    2  C2  PAP L   1     -15.261   4.560   0.340  1.00  0.00     0.038 A 
HETATM    3  C3  PAP L   1     -16.178   4.502  -0.700  1.00  0.00     0.065 A 
HETATM    4  C4  PAP L   1     -17.251   5.385  -0.749  1.00  0.00     0.038 A 
HETATM    5  C5  PAP L   1     -17.409   6.328   0.271  1.00  0.00     0.026 A 
HETATM    6  C6  PAP L   1     -16.529   6.364   1.357  1.00  0.00     0.005 A 
HETATM    7  N1  PAP L   1     -16.625   7.386   2.309  1.00  0.00    -0.303 NA
HETATM    8  H5  PAP L   1     -17.285   8.115   2.059  1.00  0.00     0.124 HD
HETATM    9  H6  PAP L   1     -15.729   7.760   2.602  1.00  0.00     0.124 HD
HETATM   10  O1  PAP L   1     -15.982   3.567  -1.672  1.00  0.00    -0.361 OA
HETATM   11  H7  PAP L   1     -16.619   2.846  -1.542  1.00  0.00     0.217 HD
HETATM    1  C1  PAP L   1     -16.818   5.008   0.663  1.00  0.00     0.026 A 
HETATM    2  C2  PAP L   1     -16.568   5.667  -0.544  1.00  0.00     0.038 A 
HETATM    3  C3  PAP L   1     -16.163   4.940  -1.654  1.00  0.00     0.065 A 
HETATM    4  C4  PAP L   1     -16.019   3.559  -1.582  1.00  0.00     0.038 A 
HETATM    5  C5  PAP L   1     -16.270   2.905  -0.371  1.00  0.00     0.026 A 
HETATM    6  C6  PAP L   1     -16.622   3.628   0.774  1.00  0.00     0.005 A 
HETATM    7  N1  PAP L   1     -16.987   2.956   1.946  1.00  0.00    -0.303 NA
HETATM    8  H5  PAP L   1     -16.344   2.216   2.209  1.00  0.00     0.124 HD
HETATM    9  H6  PAP L   1     -17.954   2.649   1.959  1.00  0.00     0.124 HD
HETATM   10  O1  PAP L   1     -15.931   5.619  -2.812  1.00  0.00    -0.361 OA
HETATM   11  H7  PAP L   1     -15.183   5.203  -3.271  1.00  0.00     0.217 HD
HETATM    1  C1  PAP L   1     -13.532  11.188   3.841  1.00  0.00     0.026 A 
HETATM    2  C2  PAP L   1     -13.649  10.437   5.014  1.00  0.00     0.038 A 
HETATM    3  C3  PAP L   1     -14.108   9.129   4.950  1.00  0.00     0.065 A 
HETATM    4  C4  PAP L   1     -14.438   8.553   3.728  1.00  0.00     0.038 A 
HETATM    5  C5  PAP L   1     -14.319   9.311   2.559  1.00  0.00     0.026 A 
HETATM    6  C6  PAP L   1     -13.914  10.649   2.609  1.00  0.00     0.005 A 
HETATM    7  N1  PAP L   1     -13.684  11.361   1.427  1.00  0.00    -0.303 NA
HETATM    8  H5  PAP L   1     -14.534  11.652   0.954  1.00  0.00     0.124 HD
HETATM    9  H6  PAP L   1     -13.028  10.911   0.798  1.00  0.00     0.124 HD
HETATM   10  O1  PAP L   1     -14.206   8.429   6.114  1.00  0.00    -0.361 OA
HETATM   11  H7  PAP L   1     -15.119   8.491   6.438  1.00  0.00     0.217 HD
HETATM    1  C1  PAP L   1     -13.682  10.494   4.895  1.00  0.00     0.026 A 
HETATM    2  C2  PAP L   1     -13.638  11.137   3.655  1.00  0.00     0.038 A 
HETATM    3  C3  PAP L   1     -14.004  10.445   2.509  1.00  0.00     0.065 A 
HETATM    4  C4  PAP L   1     -14.432   9.124   2.584  1.00  0.00     0.038 A 
HETATM    5  C5  PAP L   1     -14.473   8.487   3.829  1.00  0.00     0.026 A 
HETATM    6  C6  PAP L   1     -14.051   9.149   4.987  1.00  0.00     0.005 A 
HETATM    7  N1  PAP L   1     -14.209   8.545   6.240  1.00  0.00    -0.303 NA
HETATM    8  H5  PAP L   1     -13.565   7.779   6.408  1.00  0.00     0.124 HD
HETATM    9  H6  PAP L   1     -15.169   8.297   6.458  1.00  0.00     0.124 HD
HETATM   10  O1  PAP L   1     -13.949  11.107   1.319  1.00  0.00    -0.361 OA
HETATM   11  H7  PAP L   1     -13.232  11.760   1.360  1.00  0.00     0.217 HD
HETATM    1  C1  PAP L   1     -11.528  12.229   4.956  1.00  0.00     0.026 A 
HETATM    2  C2  PAP L   1     -12.796  11.703   4.693  1.00  0.00     0.038 A 
HETATM    3  C3  PAP L   1     -13.141  10.457   5.197  1.00  0.00     0.065 A 
HETATM    4  C4  PAP L   1     -12.243   9.733   5.974  1.00  0.00     0.038 A 
HETATM    5  C5  PAP L   1     -10.976  10.265   6.232  1.00  0.00     0.026 A 
HETATM    6  C6  PAP L   1     -10.589  11.493   5.684  1.00  0.00     0.005 A 
HETATM    7  N1  PAP L   1      -9.367  12.071   6.046  1.00  0.00    -0.303 NA
HETATM    8  H5  PAP L   1      -9.426  12.677   6.857  1.00  0.00     0.124 HD
HETATM    9  H6  PAP L   1      -8.875  12.508   5.273  1.00  0.00     0.124 HD
HETATM   10  O1  PAP L   1     -14.387   9.979   4.921  1.00  0.00    -0.361 OA
HETATM   11  H7  PAP L   1     -14.701  10.389   4.099  1.00  0.00     0.217 HD
HETATM    1  C1  PAP L   1     -12.855  11.450   4.769  1.00  0.00     0.026 A 
HETATM    2  C2  PAP L   1     -11.701  12.237   4.723  1.00  0.00     0.038 A 
HETATM    3  C3  PAP L   1     -10.584  11.863   5.456  1.00  0.00     0.065 A 
HETATM    4  C4  PAP L   1     -10.595  10.704   6.224  1.00  0.00     0.038 A 
HETATM    5  C5  PAP L   1     -11.753   9.921   6.266  1.00  0.00     0.026 A 
HETATM    6  C6  PAP L   1     -12.909  10.313   5.581  1.00  0.00     0.005 A 
HETATM    7  N1  PAP L   1     -14.020   9.464   5.533  1.00  0.00    -0.303 NA
HETATM    8  H5  PAP L   1     -13.782   8.487   5.401  1.00  0.00     0.124 HD
HETATM    9  H6  PAP L   1     -14.746   9.774   4.895  1.00  0.00     0.124 HD
HETATM   10  O1  PAP L   1      -9.478  12.656   5.383  1.00  0.00    -0.361 OA
HETATM   11  H7  PAP L   1      -9.616  13.318   4.687  1.00  0.00     0.217 HD
HETATM    1  C1  PAP L   1     -15.207   8.985   3.457  1.00  0.00     0.026 A 
HETATM    2  C2  PAP L   1     -14.332   9.505   2.500  1.00  0.00     0.038 A 
HETATM    3  C3  PAP L   1     -14.330  10.868   2.238  1.00  0.00     0.065 A 
HETATM    4  C4  PAP L   1     -15.179  11.724   2.932  1.00  0.00     0.038 A 
HETATM    5  C5  PAP L   1     -16.052  11.197   3.888  1.00  0.00     0.026 A 
HETATM    6  C6  PAP L   1     -16.110   9.819   4.123  1.00  0.00     0.005 A 
HETATM    7  N1  PAP L   1     -16.899   9.315   5.164  1.00  0.00    -0.303 NA
HETATM    8  H5  PAP L   1     -17.866   9.622   5.128  1.00  0.00     0.124 HD
HETATM    9  H6  PAP L   1     -16.490   9.435   6.084  1.00  0.00     0.124 HD
HETATM   10  O1  PAP L   1     -13.461  11.337   1.300  1.00  0.00    -0.361 OA
HETATM   11  H7  PAP L   1     -12.561  11.077   1.553  1.00  0.00     0.217 HD
