MODEL 1
REMARK VINA RESULT:      -4.5      0.000      0.000
REMARK  2 active torsions:
REMARK  status: ('A' for Active; 'I' for Inactive)
REMARK    1  A    between atoms: C3_3  and  O1_10 
REMARK    2  A    between atoms: C6_6  and  N1_7 
ROOT
HETATM    1  C1  PAP L   1      -2.911  -1.212 -20.157  1.00  0.00     0.026 A 
HETATM    2  C2  PAP L   1      -1.916  -2.140 -19.834  1.00  0.00     0.038 A 
HETATM    3  C3  PAP L   1      -1.745  -2.532 -18.514  1.00  0.00     0.065 A 
HETATM    4  C4  PAP L   1      -2.564  -2.024 -17.511  1.00  0.00     0.038 A 
HETATM    5  C5  PAP L   1      -3.556  -1.095 -17.842  1.00  0.00     0.026 A 
HETATM    6  C6  PAP L   1      -3.705  -0.643 -19.158  1.00  0.00     0.005 A 
ENDROOT
BRANCH   6   7
HETATM    7  N1  PAP L   1      -4.775   0.192 -19.498  1.00  0.00    -0.303 NA
HETATM    8  H5  PAP L   1      -4.492   1.129 -19.766  1.00  0.00     0.124 HD
HETATM    9  H6  PAP L   1      -5.526   0.197 -18.815  1.00  0.00     0.124 HD
ENDBRANCH   6   7
BRANCH   3  10
HETATM   10  O1  PAP L   1      -0.767  -3.440 -18.240  1.00  0.00    -0.361 OA
HETATM   11  H7  PAP L   1      -0.082  -3.006 -17.705  1.00  0.00     0.217 HD
ENDBRANCH   3  10
TORSDOF 2
ENDMDL
MODEL 2
REMARK VINA RESULT:      -4.5     13.577     14.317
REMARK  2 active torsions:
REMARK  status: ('A' for Active; 'I' for Inactive)
REMARK    1  A    between atoms: C3_3  and  O1_10 
REMARK    2  A    between atoms: C6_6  and  N1_7 
ROOT
HETATM    1  C1  PAP L   1     -14.371   0.035 -11.223  1.00  0.00     0.026 A 
HETATM    2  C2  PAP L   1     -13.110  -0.308 -10.726  1.00  0.00     0.038 A 
HETATM    3  C3  PAP L   1     -12.572   0.407  -9.665  1.00  0.00     0.065 A 
HETATM    4  C4  PAP L   1     -13.282   1.450  -9.081  1.00  0.00     0.038 A 
HETATM    5  C5  PAP L   1     -14.542   1.788  -9.584  1.00  0.00     0.026 A 
HETATM    6  C6  PAP L   1     -15.076   1.118 -10.690  1.00  0.00     0.005 A 
ENDROOT
BRANCH   6   7
HETATM    7  N1  PAP L   1     -16.384   1.382 -11.109  1.00  0.00    -0.303 NA
HETATM    8  H5  PAP L   1     -16.654   0.878 -11.947  1.00  0.00     0.124 HD
HETATM    9  H6  PAP L   1     -16.605   2.371 -11.166  1.00  0.00     0.124 HD
ENDBRANCH   6   7
BRANCH   3  10
HETATM   10  O1  PAP L   1     -11.342   0.041  -9.208  1.00  0.00    -0.361 OA
HETATM   11  H7  PAP L   1     -10.732  -0.005  -9.961  1.00  0.00     0.217 HD
ENDBRANCH   3  10
TORSDOF 2
ENDMDL
MODEL 3
REMARK VINA RESULT:      -4.2      1.704      2.212
REMARK  2 active torsions:
REMARK  status: ('A' for Active; 'I' for Inactive)
REMARK    1  A    between atoms: C3_3  and  O1_10 
REMARK    2  A    between atoms: C6_6  and  N1_7 
ROOT
HETATM    1  C1  PAP L   1      -2.882  -0.658 -17.753  1.00  0.00     0.026 A 
HETATM    2  C2  PAP L   1      -2.406  -1.342 -16.632  1.00  0.00     0.038 A 
HETATM    3  C3  PAP L   1      -2.498  -2.725 -16.579  1.00  0.00     0.065 A 
HETATM    4  C4  PAP L   1      -3.046  -3.440 -17.639  1.00  0.00     0.038 A 
HETATM    5  C5  PAP L   1      -3.522  -2.749 -18.758  1.00  0.00     0.026 A 
HETATM    6  C6  PAP L   1      -3.491  -1.351 -18.804  1.00  0.00     0.005 A 
ENDROOT
BRANCH   6   7
HETATM    7  N1  PAP L   1      -3.858  -0.677 -19.974  1.00  0.00    -0.303 NA
HETATM    8  H5  PAP L   1      -3.091  -0.543 -20.625  1.00  0.00     0.124 HD
HETATM    9  H6  PAP L   1      -4.378   0.179 -19.809  1.00  0.00     0.124 HD
ENDBRANCH   6   7
BRANCH   3  10
HETATM   10  O1  PAP L   1      -2.021  -3.355 -15.470  1.00  0.00    -0.361 OA
HETATM   11  H7  PAP L   1      -2.315  -2.867 -14.684  1.00  0.00     0.217 HD
ENDBRANCH   3  10
TORSDOF 2
ENDMDL
MODEL 4
REMARK VINA RESULT:      -4.2      2.877      3.476
REMARK  2 active torsions:
REMARK  status: ('A' for Active; 'I' for Inactive)
REMARK    1  A    between atoms: C3_3  and  O1_10 
REMARK    2  A    between atoms: C6_6  and  N1_7 
ROOT
HETATM    1  C1  PAP L   1      -2.774  -1.009 -16.780  1.00  0.00     0.026 A 
HETATM    2  C2  PAP L   1      -3.375  -0.998 -18.041  1.00  0.00     0.038 A 
HETATM    3  C3  PAP L   1      -3.622  -2.196 -18.696  1.00  0.00     0.065 A 
HETATM    4  C4  PAP L   1      -3.292  -3.409 -18.103  1.00  0.00     0.038 A 
HETATM    5  C5  PAP L   1      -2.690  -3.413 -16.841  1.00  0.00     0.026 A 
HETATM    6  C6  PAP L   1      -2.379  -2.214 -16.190  1.00  0.00     0.005 A 
ENDROOT
BRANCH   6   7
HETATM    7  N1  PAP L   1      -1.887  -2.230 -14.880  1.00  0.00    -0.303 NA
HETATM    8  H5  PAP L   1      -1.537  -3.136 -14.587  1.00  0.00     0.124 HD
HETATM    9  H6  PAP L   1      -2.520  -1.823 -14.199  1.00  0.00     0.124 HD
ENDBRANCH   6   7
BRANCH   3  10
HETATM   10  O1  PAP L   1      -4.212  -2.143 -19.923  1.00  0.00    -0.361 OA
HETATM   11  H7  PAP L   1      -5.169  -2.031 -19.803  1.00  0.00     0.217 HD
ENDBRANCH   3  10
TORSDOF 2
ENDMDL
MODEL 5
REMARK VINA RESULT:      -4.1     14.137     14.917
REMARK  2 active torsions:
REMARK  status: ('A' for Active; 'I' for Inactive)
REMARK    1  A    between atoms: C3_3  and  O1_10 
REMARK    2  A    between atoms: C6_6  and  N1_7 
ROOT
HETATM    1  C1  PAP L   1     -13.630   0.103 -10.927  1.00  0.00     0.026 A 
HETATM    2  C2  PAP L   1     -14.781   0.816 -11.272  1.00  0.00     0.038 A 
HETATM    3  C3  PAP L   1     -15.213   1.857 -10.463  1.00  0.00     0.065 A 
HETATM    4  C4  PAP L   1     -14.503   2.208  -9.320  1.00  0.00     0.038 A 
HETATM    5  C5  PAP L   1     -13.353   1.489  -8.980  1.00  0.00     0.026 A 
HETATM    6  C6  PAP L   1     -12.934   0.399  -9.751  1.00  0.00     0.005 A 
ENDROOT
BRANCH   6   7
HETATM    7  N1  PAP L   1     -11.719  -0.236  -9.471  1.00  0.00    -0.303 NA
HETATM    8  H5  PAP L   1     -10.914   0.379  -9.531  1.00  0.00     0.124 HD
HETATM    9  H6  PAP L   1     -11.582  -1.102  -9.981  1.00  0.00     0.124 HD
ENDBRANCH   6   7
BRANCH   3  10
HETATM   10  O1  PAP L   1     -16.338   2.530 -10.834  1.00  0.00    -0.361 OA
HETATM   11  H7  PAP L   1     -16.250   3.457 -10.562  1.00  0.00     0.217 HD
ENDBRANCH   3  10
TORSDOF 2
ENDMDL
MODEL 6
REMARK VINA RESULT:      -3.9      2.015      2.587
REMARK  2 active torsions:
REMARK  status: ('A' for Active; 'I' for Inactive)
REMARK    1  A    between atoms: C3_3  and  O1_10 
REMARK    2  A    between atoms: C6_6  and  N1_7 
ROOT
HETATM    1  C1  PAP L   1      -3.917  -1.737 -19.052  1.00  0.00     0.026 A 
HETATM    2  C2  PAP L   1      -3.305  -1.051 -17.999  1.00  0.00     0.038 A 
HETATM    3  C3  PAP L   1      -2.041  -1.431 -17.573  1.00  0.00     0.065 A 
HETATM    4  C4  PAP L   1      -1.369  -2.479 -18.193  1.00  0.00     0.038 A 
HETATM    5  C5  PAP L   1      -1.988  -3.162 -19.245  1.00  0.00     0.026 A 
HETATM    6  C6  PAP L   1      -3.285  -2.832 -19.650  1.00  0.00     0.005 A 
ENDROOT
BRANCH   6   7
HETATM    7  N1  PAP L   1      -3.847  -3.439 -20.779  1.00  0.00    -0.303 NA
HETATM    8  H5  PAP L   1      -4.741  -3.885 -20.599  1.00  0.00     0.124 HD
HETATM    9  H6  PAP L   1      -3.207  -4.046 -21.280  1.00  0.00     0.124 HD
ENDBRANCH   6   7
BRANCH   3  10
HETATM   10  O1  PAP L   1      -1.477  -0.736 -16.546  1.00  0.00    -0.361 OA
HETATM   11  H7  PAP L   1      -1.865  -1.046 -15.712  1.00  0.00     0.217 HD
ENDBRANCH   3  10
TORSDOF 2
ENDMDL
MODEL 7
REMARK VINA RESULT:      -3.9     10.784     11.653
REMARK  2 active torsions:
REMARK  status: ('A' for Active; 'I' for Inactive)
REMARK    1  A    between atoms: C3_3  and  O1_10 
REMARK    2  A    between atoms: C6_6  and  N1_7 
ROOT
HETATM    1  C1  PAP L   1     -11.161   3.956 -15.844  1.00  0.00     0.026 A 
HETATM    2  C2  PAP L   1     -10.259   4.887 -16.365  1.00  0.00     0.038 A 
HETATM    3  C3  PAP L   1     -10.733   5.974 -17.088  1.00  0.00     0.065 A 
HETATM    4  C4  PAP L   1     -12.097   6.153 -17.284  1.00  0.00     0.038 A 
HETATM    5  C5  PAP L   1     -12.994   5.217 -16.761  1.00  0.00     0.026 A 
HETATM    6  C6  PAP L   1     -12.533   4.084 -16.081  1.00  0.00     0.005 A 
ENDROOT
BRANCH   6   7
HETATM    7  N1  PAP L   1     -13.440   3.218 -15.459  1.00  0.00    -0.303 NA
HETATM    8  H5  PAP L   1     -14.411   3.471 -15.606  1.00  0.00     0.124 HD
HETATM    9  H6  PAP L   1     -13.231   3.038 -14.482  1.00  0.00     0.124 HD
ENDBRANCH   6   7
BRANCH   3  10
HETATM   10  O1  PAP L   1      -9.822   6.860 -17.577  1.00  0.00    -0.361 OA
HETATM   11  H7  PAP L   1      -8.931   6.505 -17.427  1.00  0.00     0.217 HD
ENDBRANCH   3  10
TORSDOF 2
ENDMDL
MODEL 8
REMARK VINA RESULT:      -3.7     14.695     15.415
REMARK  2 active torsions:
REMARK  status: ('A' for Active; 'I' for Inactive)
REMARK    1  A    between atoms: C3_3  and  O1_10 
REMARK    2  A    between atoms: C6_6  and  N1_7 
ROOT
HETATM    1  C1  PAP L   1     -14.031   0.995 -10.191  1.00  0.00     0.026 A 
HETATM    2  C2  PAP L   1     -14.915   2.075 -10.112  1.00  0.00     0.038 A 
HETATM    3  C3  PAP L   1     -14.677   3.093  -9.199  1.00  0.00     0.065 A 
HETATM    4  C4  PAP L   1     -13.560   3.057  -8.372  1.00  0.00     0.038 A 
HETATM    5  C5  PAP L   1     -12.680   1.973  -8.456  1.00  0.00     0.026 A 
HETATM    6  C6  PAP L   1     -12.934   0.909  -9.328  1.00  0.00     0.005 A 
ENDROOT
BRANCH   6   7
HETATM    7  N1  PAP L   1     -11.989  -0.110  -9.490  1.00  0.00    -0.303 NA
HETATM    8  H5  PAP L   1     -12.232  -0.972  -9.013  1.00  0.00     0.124 HD
HETATM    9  H6  PAP L   1     -11.036   0.180  -9.299  1.00  0.00     0.124 HD
ENDBRANCH   6   7
BRANCH   3  10
HETATM   10  O1  PAP L   1     -15.560   4.129  -9.154  1.00  0.00    -0.361 OA
HETATM   11  H7  PAP L   1     -16.462   3.770  -9.173  1.00  0.00     0.217 HD
ENDBRANCH   3  10
TORSDOF 2
ENDMDL
MODEL 9
REMARK VINA RESULT:      -3.6     14.448     15.207
REMARK  2 active torsions:
REMARK  status: ('A' for Active; 'I' for Inactive)
REMARK    1  A    between atoms: C3_3  and  O1_10 
REMARK    2  A    between atoms: C6_6  and  N1_7 
ROOT
HETATM    1  C1  PAP L   1     -12.232   3.669  -7.886  1.00  0.00     0.026 A 
HETATM    2  C2  PAP L   1     -11.524   2.519  -8.247  1.00  0.00     0.038 A 
HETATM    3  C3  PAP L   1     -12.199   1.445  -8.810  1.00  0.00     0.065 A 
HETATM    4  C4  PAP L   1     -13.570   1.507  -9.034  1.00  0.00     0.038 A 
HETATM    5  C5  PAP L   1     -14.272   2.661  -8.670  1.00  0.00     0.026 A 
HETATM    6  C6  PAP L   1     -13.620   3.730  -8.047  1.00  0.00     0.005 A 
ENDROOT
BRANCH   6   7
HETATM    7  N1  PAP L   1     -14.307   4.924  -7.796  1.00  0.00    -0.303 NA
HETATM    8  H5  PAP L   1     -13.699   5.731  -7.698  1.00  0.00     0.124 HD
HETATM    9  H6  PAP L   1     -14.984   4.857  -7.044  1.00  0.00     0.124 HD
ENDBRANCH   6   7
BRANCH   3  10
HETATM   10  O1  PAP L   1     -11.473   0.343  -9.150  1.00  0.00    -0.361 OA
HETATM   11  H7  PAP L   1     -11.213  -0.120  -8.338  1.00  0.00     0.217 HD
ENDBRANCH   3  10
TORSDOF 2
ENDMDL
MODEL 10
REMARK VINA RESULT:      -3.6     10.288     11.329
REMARK  2 active torsions:
REMARK  status: ('A' for Active; 'I' for Inactive)
REMARK    1  A    between atoms: C3_3  and  O1_10 
REMARK    2  A    between atoms: C6_6  and  N1_7 
ROOT
HETATM    1  C1  PAP L   1     -11.292   3.841 -15.952  1.00  0.00     0.026 A 
HETATM    2  C2  PAP L   1     -12.262   4.794 -16.274  1.00  0.00     0.038 A 
HETATM    3  C3  PAP L   1     -11.897   5.942 -16.964  1.00  0.00     0.065 A 
HETATM    4  C4  PAP L   1     -10.577   6.144 -17.353  1.00  0.00     0.038 A 
HETATM    5  C5  PAP L   1      -9.612   5.186 -17.027  1.00  0.00     0.026 A 
HETATM    6  C6  PAP L   1      -9.950   4.052 -16.281  1.00  0.00     0.005 A 
ENDROOT
BRANCH   6   7
HETATM    7  N1  PAP L   1      -9.004   3.044 -16.064  1.00  0.00    -0.303 NA
HETATM    8  H5  PAP L   1      -8.557   3.093 -15.155  1.00  0.00     0.124 HD
HETATM    9  H6  PAP L   1      -8.333   2.942 -16.819  1.00  0.00     0.124 HD
ENDBRANCH   6   7
BRANCH   3  10
HETATM   10  O1  PAP L   1     -12.871   6.846 -17.260  1.00  0.00    -0.361 OA
HETATM   11  H7  PAP L   1     -13.102   6.757 -18.199  1.00  0.00     0.217 HD
ENDBRANCH   3  10
TORSDOF 2
ENDMDL
MODEL 11
REMARK VINA RESULT:      -3.6     11.083     11.921
REMARK  2 active torsions:
REMARK  status: ('A' for Active; 'I' for Inactive)
REMARK    1  A    between atoms: C3_3  and  O1_10 
REMARK    2  A    between atoms: C6_6  and  N1_7 
ROOT
HETATM    1  C1  PAP L   1     -10.769   4.998 -16.695  1.00  0.00     0.026 A 
HETATM    2  C2  PAP L   1     -11.415   3.995 -15.968  1.00  0.00     0.038 A 
HETATM    3  C3  PAP L   1     -12.801   3.979 -15.901  1.00  0.00     0.065 A 
HETATM    4  C4  PAP L   1     -13.554   4.942 -16.564  1.00  0.00     0.038 A 
HETATM    5  C5  PAP L   1     -12.900   5.943 -17.289  1.00  0.00     0.026 A 
HETATM    6  C6  PAP L   1     -11.503   6.011 -17.320  1.00  0.00     0.005 A 
ENDROOT
BRANCH   6   7
HETATM    7  N1  PAP L   1     -10.861   6.942 -18.143  1.00  0.00    -0.303 NA
HETATM    8  H5  PAP L   1     -10.520   7.759 -17.647  1.00  0.00     0.124 HD
HETATM    9  H6  PAP L   1     -11.389   7.188 -18.974  1.00  0.00     0.124 HD
ENDBRANCH   6   7
BRANCH   3  10
HETATM   10  O1  PAP L   1     -13.394   2.984 -15.184  1.00  0.00    -0.361 OA
HETATM   11  H7  PAP L   1     -14.334   3.200 -15.070  1.00  0.00     0.217 HD
ENDBRANCH   3  10
TORSDOF 2
ENDMDL
MODEL 12
REMARK VINA RESULT:      -3.6     13.801     14.543
REMARK  2 active torsions:
REMARK  status: ('A' for Active; 'I' for Inactive)
REMARK    1  A    between atoms: C3_3  and  O1_10 
REMARK    2  A    between atoms: C6_6  and  N1_7 
ROOT
HETATM    1  C1  PAP L   1     -12.996   1.030  -9.134  1.00  0.00     0.026 A 
HETATM    2  C2  PAP L   1     -12.832   0.084 -10.149  1.00  0.00     0.038 A 
HETATM    3  C3  PAP L   1     -13.749   0.026 -11.189  1.00  0.00     0.065 A 
HETATM    4  C4  PAP L   1     -14.822   0.909 -11.238  1.00  0.00     0.038 A 
HETATM    5  C5  PAP L   1     -14.980   1.852 -10.218  1.00  0.00     0.026 A 
HETATM    6  C6  PAP L   1     -14.100   1.888  -9.132  1.00  0.00     0.005 A 
ENDROOT
BRANCH   6   7
HETATM    7  N1  PAP L   1     -14.196   2.910  -8.180  1.00  0.00    -0.303 NA
HETATM    8  H5  PAP L   1     -14.856   3.639  -8.430  1.00  0.00     0.124 HD
HETATM    9  H6  PAP L   1     -13.300   3.284  -7.887  1.00  0.00     0.124 HD
ENDBRANCH   6   7
BRANCH   3  10
HETATM   10  O1  PAP L   1     -13.553  -0.909 -12.161  1.00  0.00    -0.361 OA
HETATM   11  H7  PAP L   1     -14.190  -1.630 -12.031  1.00  0.00     0.217 HD
ENDBRANCH   3  10
TORSDOF 2
ENDMDL
MODEL 13
REMARK VINA RESULT:      -3.5     13.335     14.166
REMARK  2 active torsions:
REMARK  status: ('A' for Active; 'I' for Inactive)
REMARK    1  A    between atoms: C3_3  and  O1_10 
REMARK    2  A    between atoms: C6_6  and  N1_7 
ROOT
HETATM    1  C1  PAP L   1     -14.389   0.532  -9.826  1.00  0.00     0.026 A 
HETATM    2  C2  PAP L   1     -14.139   1.191 -11.033  1.00  0.00     0.038 A 
HETATM    3  C3  PAP L   1     -13.734   0.464 -12.143  1.00  0.00     0.065 A 
HETATM    4  C4  PAP L   1     -13.590  -0.917 -12.071  1.00  0.00     0.038 A 
HETATM    5  C5  PAP L   1     -13.841  -1.571 -10.860  1.00  0.00     0.026 A 
HETATM    6  C6  PAP L   1     -14.193  -0.848  -9.715  1.00  0.00     0.005 A 
ENDROOT
BRANCH   6   7
HETATM    7  N1  PAP L   1     -14.558  -1.520  -8.543  1.00  0.00    -0.303 NA
HETATM    8  H5  PAP L   1     -13.915  -2.260  -8.280  1.00  0.00     0.124 HD
HETATM    9  H6  PAP L   1     -15.525  -1.827  -8.530  1.00  0.00     0.124 HD
ENDBRANCH   6   7
BRANCH   3  10
HETATM   10  O1  PAP L   1     -13.502   1.143 -13.301  1.00  0.00    -0.361 OA
HETATM   11  H7  PAP L   1     -12.754   0.727 -13.760  1.00  0.00     0.217 HD
ENDBRANCH   3  10
TORSDOF 2
ENDMDL
MODEL 14
REMARK VINA RESULT:      -3.2     15.974     16.704
REMARK  2 active torsions:
REMARK  status: ('A' for Active; 'I' for Inactive)
REMARK    1  A    between atoms: C3_3  and  O1_10 
REMARK    2  A    between atoms: C6_6  and  N1_7 
ROOT
HETATM    1  C1  PAP L   1     -11.103   6.712  -6.648  1.00  0.00     0.026 A 
HETATM    2  C2  PAP L   1     -11.220   5.961  -5.475  1.00  0.00     0.038 A 
HETATM    3  C3  PAP L   1     -11.679   4.653  -5.539  1.00  0.00     0.065 A 
HETATM    4  C4  PAP L   1     -12.009   4.077  -6.761  1.00  0.00     0.038 A 
HETATM    5  C5  PAP L   1     -11.890   4.835  -7.930  1.00  0.00     0.026 A 
HETATM    6  C6  PAP L   1     -11.485   6.173  -7.880  1.00  0.00     0.005 A 
ENDROOT
BRANCH   6   7
HETATM    7  N1  PAP L   1     -11.255   6.885  -9.062  1.00  0.00    -0.303 NA
HETATM    8  H5  PAP L   1     -12.105   7.176  -9.535  1.00  0.00     0.124 HD
HETATM    9  H6  PAP L   1     -10.599   6.435  -9.691  1.00  0.00     0.124 HD
ENDBRANCH   6   7
BRANCH   3  10
HETATM   10  O1  PAP L   1     -11.777   3.953  -4.375  1.00  0.00    -0.361 OA
HETATM   11  H7  PAP L   1     -12.690   4.015  -4.051  1.00  0.00     0.217 HD
ENDBRANCH   3  10
TORSDOF 2
ENDMDL
MODEL 15
REMARK VINA RESULT:      -3.0     16.105     16.841
REMARK  2 active torsions:
REMARK  status: ('A' for Active; 'I' for Inactive)
REMARK    1  A    between atoms: C3_3  and  O1_10 
REMARK    2  A    between atoms: C6_6  and  N1_7 
ROOT
HETATM    1  C1  PAP L   1     -11.253   6.018  -5.594  1.00  0.00     0.026 A 
HETATM    2  C2  PAP L   1     -11.209   6.661  -6.834  1.00  0.00     0.038 A 
HETATM    3  C3  PAP L   1     -11.575   5.969  -7.980  1.00  0.00     0.065 A 
HETATM    4  C4  PAP L   1     -12.003   4.648  -7.905  1.00  0.00     0.038 A 
HETATM    5  C5  PAP L   1     -12.044   4.011  -6.660  1.00  0.00     0.026 A 
HETATM    6  C6  PAP L   1     -11.622   4.673  -5.502  1.00  0.00     0.005 A 
ENDROOT
BRANCH   6   7
HETATM    7  N1  PAP L   1     -11.780   4.069  -4.249  1.00  0.00    -0.303 NA
HETATM    8  H5  PAP L   1     -11.136   3.303  -4.081  1.00  0.00     0.124 HD
HETATM    9  H6  PAP L   1     -12.740   3.821  -4.031  1.00  0.00     0.124 HD
ENDBRANCH   6   7
BRANCH   3  10
HETATM   10  O1  PAP L   1     -11.520   6.631  -9.170  1.00  0.00    -0.361 OA
HETATM   11  H7  PAP L   1     -10.803   7.284  -9.129  1.00  0.00     0.217 HD
ENDBRANCH   3  10
TORSDOF 2
ENDMDL
MODEL 16
REMARK VINA RESULT:      -2.9     17.551     17.622
REMARK  2 active torsions:
REMARK  status: ('A' for Active; 'I' for Inactive)
REMARK    1  A    between atoms: C3_3  and  O1_10 
REMARK    2  A    between atoms: C6_6  and  N1_7 
ROOT
HETATM    1  C1  PAP L   1      -9.099   7.753  -5.533  1.00  0.00     0.026 A 
HETATM    2  C2  PAP L   1     -10.367   7.227  -5.796  1.00  0.00     0.038 A 
HETATM    3  C3  PAP L   1     -10.712   5.981  -5.292  1.00  0.00     0.065 A 
HETATM    4  C4  PAP L   1      -9.814   5.257  -4.515  1.00  0.00     0.038 A 
HETATM    5  C5  PAP L   1      -8.547   5.789  -4.257  1.00  0.00     0.026 A 
HETATM    6  C6  PAP L   1      -8.160   7.017  -4.805  1.00  0.00     0.005 A 
ENDROOT
BRANCH   6   7
HETATM    7  N1  PAP L   1      -6.938   7.595  -4.443  1.00  0.00    -0.303 NA
HETATM    8  H5  PAP L   1      -6.997   8.201  -3.632  1.00  0.00     0.124 HD
HETATM    9  H6  PAP L   1      -6.446   8.032  -5.216  1.00  0.00     0.124 HD
ENDBRANCH   6   7
BRANCH   3  10
HETATM   10  O1  PAP L   1     -11.958   5.503  -5.568  1.00  0.00    -0.361 OA
HETATM   11  H7  PAP L   1     -12.272   5.913  -6.390  1.00  0.00     0.217 HD
ENDBRANCH   3  10
TORSDOF 2
ENDMDL
MODEL 17
REMARK VINA RESULT:      -2.9     17.459     17.530
REMARK  2 active torsions:
REMARK  status: ('A' for Active; 'I' for Inactive)
REMARK    1  A    between atoms: C3_3  and  O1_10 
REMARK    2  A    between atoms: C6_6  and  N1_7 
ROOT
HETATM    1  C1  PAP L   1     -10.426   6.974  -5.720  1.00  0.00     0.026 A 
HETATM    2  C2  PAP L   1      -9.272   7.761  -5.766  1.00  0.00     0.038 A 
HETATM    3  C3  PAP L   1      -8.155   7.387  -5.033  1.00  0.00     0.065 A 
HETATM    4  C4  PAP L   1      -8.166   6.228  -4.265  1.00  0.00     0.038 A 
HETATM    5  C5  PAP L   1      -9.324   5.445  -4.223  1.00  0.00     0.026 A 
HETATM    6  C6  PAP L   1     -10.480   5.837  -4.908  1.00  0.00     0.005 A 
ENDROOT
BRANCH   6   7
HETATM    7  N1  PAP L   1     -11.591   4.988  -4.956  1.00  0.00    -0.303 NA
HETATM    8  H5  PAP L   1     -11.353   4.011  -5.088  1.00  0.00     0.124 HD
HETATM    9  H6  PAP L   1     -12.317   5.298  -5.594  1.00  0.00     0.124 HD
ENDBRANCH   6   7
BRANCH   3  10
HETATM   10  O1  PAP L   1      -7.049   8.180  -5.106  1.00  0.00    -0.361 OA
HETATM   11  H7  PAP L   1      -7.187   8.842  -5.802  1.00  0.00     0.217 HD
ENDBRANCH   3  10
TORSDOF 2
ENDMDL
MODEL 18
REMARK VINA RESULT:      -2.8     16.187     17.206
REMARK  2 active torsions:
REMARK  status: ('A' for Active; 'I' for Inactive)
REMARK    1  A    between atoms: C3_3  and  O1_10 
REMARK    2  A    between atoms: C6_6  and  N1_7 
ROOT
HETATM    1  C1  PAP L   1     -12.778   4.509  -7.032  1.00  0.00     0.026 A 
HETATM    2  C2  PAP L   1     -11.903   5.029  -7.989  1.00  0.00     0.038 A 
HETATM    3  C3  PAP L   1     -11.901   6.392  -8.251  1.00  0.00     0.065 A 
HETATM    4  C4  PAP L   1     -12.750   7.248  -7.557  1.00  0.00     0.038 A 
HETATM    5  C5  PAP L   1     -13.623   6.721  -6.601  1.00  0.00     0.026 A 
HETATM    6  C6  PAP L   1     -13.681   5.343  -6.366  1.00  0.00     0.005 A 
ENDROOT
BRANCH   6   7
HETATM    7  N1  PAP L   1     -14.470   4.839  -5.325  1.00  0.00    -0.303 NA
HETATM    8  H5  PAP L   1     -15.437   5.146  -5.361  1.00  0.00     0.124 HD
HETATM    9  H6  PAP L   1     -14.061   4.959  -4.405  1.00  0.00     0.124 HD
ENDBRANCH   6   7
BRANCH   3  10
HETATM   10  O1  PAP L   1     -11.032   6.861  -9.189  1.00  0.00    -0.361 OA
HETATM   11  H7  PAP L   1     -10.132   6.601  -8.936  1.00  0.00     0.217 HD
ENDBRANCH   3  10
TORSDOF 2
ENDMDL
