MODEL 1
REMARK VINA RESULT:      -3.6      0.000      0.000
REMARK  2 active torsions:
REMARK  status: ('A' for Active; 'I' for Inactive)
REMARK    1  A    between atoms: C3_3  and  O1_8 
REMARK    2  A    between atoms: C6_6  and  N1_7 
ROOT
HETATM    1  C1  UNL     1      -9.297   2.775  11.006  1.00  0.00     0.026 A 
HETATM    2  C2  UNL     1     -10.332   2.982  11.920  1.00  0.00     0.038 A 
HETATM    3  C3  UNL     1     -11.531   3.531  11.487  1.00  0.00     0.065 A 
HETATM    4  C4  UNL     1     -11.717   3.862  10.150  1.00  0.00     0.038 A 
HETATM    5  C5  UNL     1     -10.675   3.653   9.241  1.00  0.00     0.026 A 
HETATM    6  C6  UNL     1      -9.440   3.156   9.668  1.00  0.00     0.005 A 
ENDROOT
BRANCH   6   7
HETATM    7  N1  UNL     1      -8.447   2.839   8.734  1.00  0.00    -0.303 NA
HETATM    8  H5  UNL     1      -8.375   1.846   8.536  1.00  0.00     0.124 HD
HETATM    9  H6  UNL     1      -7.545   3.259   8.936  1.00  0.00     0.124 HD
ENDBRANCH   6   7
BRANCH   3  10
HETATM   10  O1  UNL     1     -12.518   3.715  12.409  1.00  0.00    -0.361 OA
HETATM   11  H7  UNL     1     -13.371   3.751  11.947  1.00  0.00     0.217 HD
ENDBRANCH   3  10
TORSDOF 2
ENDMDL
MODEL 2
REMARK VINA RESULT:      -3.6      2.777      3.263
REMARK  2 active torsions:
REMARK  status: ('A' for Active; 'I' for Inactive)
REMARK    1  A    between atoms: C3_3  and  O1_8 
REMARK    2  A    between atoms: C6_6  and  N1_7 
ROOT
HETATM    1  C1  UNL     1     -10.301   2.990  11.935  1.00  0.00     0.026 A 
HETATM    2  C2  UNL     1      -9.266   2.743  11.030  1.00  0.00     0.038 A 
HETATM    3  C3  UNL     1      -9.434   3.061   9.690  1.00  0.00     0.065 A 
HETATM    4  C4  UNL     1     -10.618   3.638   9.242  1.00  0.00     0.038 A 
HETATM    5  C5  UNL     1     -11.649   3.881  10.154  1.00  0.00     0.026 A 
HETATM    6  C6  UNL     1     -11.521   3.513  11.497  1.00  0.00     0.005 A 
ENDROOT
BRANCH   6   7
HETATM    7  N1  UNL     1     -12.509   3.868  12.422  1.00  0.00    -0.303 NA
HETATM    8  H5  UNL     1     -13.311   4.331  12.006  1.00  0.00     0.124 HD
HETATM    9  H6  UNL     1     -12.154   4.365  13.232  1.00  0.00     0.124 HD
ENDBRANCH   6   7
BRANCH   3  10
HETATM   10  O1  UNL     1      -8.400   2.808   8.839  1.00  0.00    -0.361 OA
HETATM   11  H7  UNL     1      -8.764   2.589   7.966  1.00  0.00     0.217 HD
ENDBRANCH   3  10
TORSDOF 2
ENDMDL
MODEL 3
REMARK VINA RESULT:      -3.6     20.810     21.608
REMARK  2 active torsions:
REMARK  status: ('A' for Active; 'I' for Inactive)
REMARK    1  A    between atoms: C3_3  and  O1_8 
REMARK    2  A    between atoms: C6_6  and  N1_7 
ROOT
HETATM    1  C1  UNL     1      -9.954  -5.882  -7.458  1.00  0.00     0.026 A 
HETATM    2  C2  UNL     1     -10.812  -5.217  -8.337  1.00  0.00     0.038 A 
HETATM    3  C3  UNL     1     -10.527  -5.200  -9.695  1.00  0.00     0.065 A 
HETATM    4  C4  UNL     1      -9.403  -5.853 -10.191  1.00  0.00     0.038 A 
HETATM    5  C5  UNL     1      -8.548  -6.515  -9.304  1.00  0.00     0.026 A 
HETATM    6  C6  UNL     1      -8.787  -6.493  -7.926  1.00  0.00     0.005 A 
ENDROOT
BRANCH   6   7
HETATM    7  N1  UNL     1      -7.995  -7.256  -7.062  1.00  0.00    -0.303 NA
HETATM    8  H5  UNL     1      -8.483  -8.047  -6.653  1.00  0.00     0.124 HD
HETATM    9  H6  UNL     1      -7.499  -6.708  -6.367  1.00  0.00     0.124 HD
ENDBRANCH   6   7
BRANCH   3  10
HETATM   10  O1  UNL     1     -11.389  -4.544 -10.521  1.00  0.00    -0.361 OA
HETATM   11  H7  UNL     1     -10.873  -4.028 -11.161  1.00  0.00     0.217 HD
ENDBRANCH   3  10
TORSDOF 2
ENDMDL
MODEL 4
REMARK VINA RESULT:      -3.6     20.726     21.537
REMARK  2 active torsions:
REMARK  status: ('A' for Active; 'I' for Inactive)
REMARK    1  A    between atoms: C3_3  and  O1_8 
REMARK    2  A    between atoms: C6_6  and  N1_7 
ROOT
HETATM    1  C1  UNL     1      -9.430  -5.861 -10.041  1.00  0.00     0.026 A 
HETATM    2  C2  UNL     1      -8.595  -6.577  -9.179  1.00  0.00     0.038 A 
HETATM    3  C3  UNL     1      -8.861  -6.590  -7.817  1.00  0.00     0.065 A 
HETATM    4  C4  UNL     1      -9.961  -5.911  -7.304  1.00  0.00     0.038 A 
HETATM    5  C5  UNL     1     -10.791  -5.196  -8.172  1.00  0.00     0.026 A 
HETATM    6  C6  UNL     1     -10.506  -5.122  -9.540  1.00  0.00     0.005 A 
ENDROOT
BRANCH   6   7
HETATM    7  N1  UNL     1     -11.407  -4.505 -10.415  1.00  0.00    -0.303 NA
HETATM    8  H5  UNL     1     -11.527  -5.001 -11.293  1.00  0.00     0.124 HD
HETATM    9  H6  UNL     1     -11.233  -3.515 -10.551  1.00  0.00     0.124 HD
ENDBRANCH   6   7
BRANCH   3  10
HETATM   10  O1  UNL     1      -8.025  -7.302  -7.010  1.00  0.00    -0.361 OA
HETATM   11  H7  UNL     1      -7.475  -6.680  -6.509  1.00  0.00     0.217 HD
ENDBRANCH   3  10
TORSDOF 2
ENDMDL
MODEL 5
REMARK VINA RESULT:      -3.6     20.759     21.560
REMARK  2 active torsions:
REMARK  status: ('A' for Active; 'I' for Inactive)
REMARK    1  A    between atoms: C3_3  and  O1_8 
REMARK    2  A    between atoms: C6_6  and  N1_7 
ROOT
HETATM    1  C1  UNL     1     -10.769  -5.270  -8.193  1.00  0.00     0.026 A 
HETATM    2  C2  UNL     1      -9.915  -5.960  -7.330  1.00  0.00     0.038 A 
HETATM    3  C3  UNL     1      -8.810  -6.626  -7.843  1.00  0.00     0.065 A 
HETATM    4  C4  UNL     1      -8.536  -6.598  -9.206  1.00  0.00     0.038 A 
HETATM    5  C5  UNL     1      -9.396  -5.906 -10.064  1.00  0.00     0.026 A 
HETATM    6  C6  UNL     1     -10.546  -5.279  -9.574  1.00  0.00     0.005 A 
ENDROOT
BRANCH   6   7
HETATM    7  N1  UNL     1     -11.334  -4.490 -10.420  1.00  0.00    -0.303 NA
HETATM    8  H5  UNL     1     -11.585  -4.951 -11.290  1.00  0.00     0.124 HD
HETATM    9  H6  UNL     1     -10.968  -3.556 -10.569  1.00  0.00     0.124 HD
ENDBRANCH   6   7
BRANCH   3  10
HETATM   10  O1  UNL     1      -7.999  -7.285  -6.968  1.00  0.00    -0.361 OA
HETATM   11  H7  UNL     1      -7.589  -8.033  -7.431  1.00  0.00     0.217 HD
ENDBRANCH   3  10
TORSDOF 2
ENDMDL
MODEL 6
REMARK VINA RESULT:      -3.5     11.238     11.686
REMARK  2 active torsions:
REMARK  status: ('A' for Active; 'I' for Inactive)
REMARK    1  A    between atoms: C3_3  and  O1_8 
REMARK    2  A    between atoms: C6_6  and  N1_7 
ROOT
HETATM    1  C1  UNL     1      -4.488  -0.558   0.912  1.00  0.00     0.026 A 
HETATM    2  C2  UNL     1      -4.736  -1.792   1.518  1.00  0.00     0.038 A 
HETATM    3  C3  UNL     1      -4.222  -2.055   2.780  1.00  0.00     0.065 A 
HETATM    4  C4  UNL     1      -3.475  -1.094   3.454  1.00  0.00     0.038 A 
HETATM    5  C5  UNL     1      -3.230   0.138   2.841  1.00  0.00     0.026 A 
HETATM    6  C6  UNL     1      -3.689   0.399   1.546  1.00  0.00     0.005 A 
ENDROOT
BRANCH   6   7
HETATM    7  N1  UNL     1      -3.541   1.674   0.989  1.00  0.00    -0.303 NA
HETATM    8  H5  UNL     1      -4.412   2.079   0.660  1.00  0.00     0.124 HD
HETATM    9  H6  UNL     1      -2.801   1.737   0.299  1.00  0.00     0.124 HD
ENDBRANCH   6   7
BRANCH   3  10
HETATM   10  O1  UNL     1      -4.489  -3.269   3.338  1.00  0.00    -0.361 OA
HETATM   11  H7  UNL     1      -5.196  -3.160   3.993  1.00  0.00     0.217 HD
ENDBRANCH   3  10
TORSDOF 2
ENDMDL
MODEL 7
REMARK VINA RESULT:      -3.4     11.061     11.520
REMARK  2 active torsions:
REMARK  status: ('A' for Active; 'I' for Inactive)
REMARK    1  A    between atoms: C3_3  and  O1_8 
REMARK    2  A    between atoms: C6_6  and  N1_7 
ROOT
HETATM    1  C1  UNL     1      -7.633  -8.494  12.153  1.00  0.00     0.026 A 
HETATM    2  C2  UNL     1      -8.170  -7.727  13.190  1.00  0.00     0.038 A 
HETATM    3  C3  UNL     1      -9.441  -7.187  13.058  1.00  0.00     0.065 A 
HETATM    4  C4  UNL     1     -10.193  -7.416  11.911  1.00  0.00     0.038 A 
HETATM    5  C5  UNL     1      -9.649  -8.185  10.878  1.00  0.00     0.026 A 
HETATM    6  C6  UNL     1      -8.347  -8.688  10.967  1.00  0.00     0.005 A 
ENDROOT
BRANCH   6   7
HETATM    7  N1  UNL     1      -7.857  -9.553   9.982  1.00  0.00    -0.303 NA
HETATM    8  H5  UNL     1      -6.884  -9.390   9.744  1.00  0.00     0.124 HD
HETATM    9  H6  UNL     1      -8.450  -9.618   9.161  1.00  0.00     0.124 HD
ENDBRANCH   6   7
BRANCH   3  10
HETATM   10  O1  UNL     1      -9.930  -6.446  14.092  1.00  0.00    -0.361 OA
HETATM   11  H7  UNL     1      -9.184  -6.130  14.627  1.00  0.00     0.217 HD
ENDBRANCH   3  10
TORSDOF 2
ENDMDL
MODEL 8
REMARK VINA RESULT:      -3.4     14.632     15.138
REMARK  2 active torsions:
REMARK  status: ('A' for Active; 'I' for Inactive)
REMARK    1  A    between atoms: C3_3  and  O1_8 
REMARK    2  A    between atoms: C6_6  and  N1_7 
ROOT
HETATM    1  C1  UNL     1      -8.719 -10.846   5.468  1.00  0.00     0.026 A 
HETATM    2  C2  UNL     1      -8.737  -9.449   5.491  1.00  0.00     0.038 A 
HETATM    3  C3  UNL     1      -8.014  -8.736   4.545  1.00  0.00     0.065 A 
HETATM    4  C4  UNL     1      -7.285  -9.399   3.564  1.00  0.00     0.038 A 
HETATM    5  C5  UNL     1      -7.270 -10.797   3.548  1.00  0.00     0.026 A 
HETATM    6  C6  UNL     1      -7.945 -11.533   4.528  1.00  0.00     0.005 A 
ENDROOT
BRANCH   6   7
HETATM    7  N1  UNL     1      -8.023 -12.927   4.434  1.00  0.00    -0.303 NA
HETATM    8  H5  UNL     1      -8.248 -13.383   5.312  1.00  0.00     0.124 HD
HETATM    9  H6  UNL     1      -7.227 -13.352   3.971  1.00  0.00     0.124 HD
ENDBRANCH   6   7
BRANCH   3  10
HETATM   10  O1  UNL     1      -8.059  -7.376   4.600  1.00  0.00    -0.361 OA
HETATM   11  H7  UNL     1      -7.185  -7.027   4.363  1.00  0.00     0.217 HD
ENDBRANCH   3  10
TORSDOF 2
ENDMDL
MODEL 9
REMARK VINA RESULT:      -3.3     10.992     11.390
REMARK  2 active torsions:
REMARK  status: ('A' for Active; 'I' for Inactive)
REMARK    1  A    between atoms: C3_3  and  O1_8 
REMARK    2  A    between atoms: C6_6  and  N1_7 
ROOT
HETATM    1  C1  UNL     1      -9.923  -8.358  11.038  1.00  0.00     0.026 A 
HETATM    2  C2  UNL     1      -9.435  -7.606  12.109  1.00  0.00     0.038 A 
HETATM    3  C3  UNL     1     -10.323  -7.029  13.006  1.00  0.00     0.065 A 
HETATM    4  C4  UNL     1     -11.694  -7.205  12.857  1.00  0.00     0.038 A 
HETATM    5  C5  UNL     1     -12.176  -7.957  11.782  1.00  0.00     0.026 A 
HETATM    6  C6  UNL     1     -11.300  -8.498  10.835  1.00  0.00     0.005 A 
ENDROOT
BRANCH   6   7
HETATM    7  N1  UNL     1     -11.782  -9.347   9.832  1.00  0.00    -0.303 NA
HETATM    8  H5  UNL     1     -11.164 -10.125   9.624  1.00  0.00     0.124 HD
HETATM    9  H6  UNL     1     -12.086  -8.861   8.995  1.00  0.00     0.124 HD
ENDBRANCH   6   7
BRANCH   3  10
HETATM   10  O1  UNL     1      -9.807  -6.306  14.039  1.00  0.00    -0.361 OA
HETATM   11  H7  UNL     1      -9.379  -6.916  14.661  1.00  0.00     0.217 HD
ENDBRANCH   3  10
TORSDOF 2
ENDMDL
