HETATM    1  C1  PAP L   1      -7.725  -2.687   1.046  1.00  0.00     0.026 A 
HETATM    2  C2  PAP L   1      -8.800  -2.487   1.916  1.00  0.00     0.038 A 
HETATM    3  C3  PAP L   1      -8.650  -2.760   3.269  1.00  0.00     0.065 A 
HETATM    4  C4  PAP L   1      -7.435  -3.215   3.769  1.00  0.00     0.038 A 
HETATM    5  C5  PAP L   1      -6.364  -3.414   2.892  1.00  0.00     0.026 A 
HETATM    6  C6  PAP L   1      -6.513  -3.200   1.517  1.00  0.00     0.005 A 
HETATM    7  N1  PAP L   1      -5.405  -3.286   0.667  1.00  0.00    -0.303 NA
HETATM    8  H5  PAP L   1      -5.583  -3.811  -0.183  1.00  0.00     0.124 HD
HETATM    9  H6  PAP L   1      -4.553  -3.581   1.132  1.00  0.00     0.124 HD
HETATM   10  O1  PAP L   1      -9.720  -2.551   4.085  1.00  0.00    -0.361 OA
HETATM   11  H7  PAP L   1     -10.325  -3.306   4.003  1.00  0.00     0.217 HD
HETATM    1  C1  PAP L   1      -6.399  -3.369   2.880  1.00  0.00     0.026 A 
HETATM    2  C2  PAP L   1      -7.490  -3.191   3.735  1.00  0.00     0.038 A 
HETATM    3  C3  PAP L   1      -8.697  -2.734   3.223  1.00  0.00     0.065 A 
HETATM    4  C4  PAP L   1      -8.836  -2.468   1.866  1.00  0.00     0.038 A 
HETATM    5  C5  PAP L   1      -7.739  -2.648   1.016  1.00  0.00     0.026 A 
HETATM    6  C6  PAP L   1      -6.499  -3.050   1.522  1.00  0.00     0.005 A 
HETATM    7  N1  PAP L   1      -5.444  -3.342   0.650  1.00  0.00    -0.303 NA
HETATM    8  H5  PAP L   1      -4.527  -3.247   1.074  1.00  0.00     0.124 HD
HETATM    9  H6  PAP L   1      -5.507  -2.866  -0.244  1.00  0.00     0.124 HD
HETATM   10  O1  PAP L   1      -9.737  -2.575   4.088  1.00  0.00    -0.361 OA
HETATM   11  H7  PAP L   1      -9.984  -3.446   4.440  1.00  0.00     0.217 HD
HETATM    1  C1  PAP L   1      -7.444  -3.160   3.661  1.00  0.00     0.026 A 
HETATM    2  C2  PAP L   1      -6.323  -3.335   2.845  1.00  0.00     0.038 A 
HETATM    3  C3  PAP L   1      -6.426  -3.117   1.478  1.00  0.00     0.065 A 
HETATM    4  C4  PAP L   1      -7.630  -2.710   0.914  1.00  0.00     0.038 A 
HETATM    5  C5  PAP L   1      -8.748  -2.538   1.737  1.00  0.00     0.026 A 
HETATM    6  C6  PAP L   1      -8.679  -2.810   3.107  1.00  0.00     0.005 A 
HETATM    7  N1  PAP L   1      -9.767  -2.520   3.938  1.00  0.00    -0.303 NA
HETATM    8  H5  PAP L   1     -10.173  -1.605   3.774  1.00  0.00     0.124 HD
HETATM    9  H6  PAP L   1      -9.590  -2.693   4.922  1.00  0.00     0.124 HD
HETATM   10  O1  PAP L   1      -5.310  -3.296   0.718  1.00  0.00    -0.361 OA
HETATM   11  H7  PAP L   1      -4.540  -3.358   1.306  1.00  0.00     0.217 HD
HETATM    1  C1  PAP L   1      -8.809  -2.619   1.695  1.00  0.00     0.026 A 
HETATM    2  C2  PAP L   1      -7.642  -2.783   0.944  1.00  0.00     0.038 A 
HETATM    3  C3  PAP L   1      -6.457  -3.127   1.580  1.00  0.00     0.065 A 
HETATM    4  C4  PAP L   1      -6.424  -3.326   2.956  1.00  0.00     0.038 A 
HETATM    5  C5  PAP L   1      -7.595  -3.159   3.701  1.00  0.00     0.026 A 
HETATM    6  C6  PAP L   1      -8.785  -2.755   3.087  1.00  0.00     0.005 A 
HETATM    7  N1  PAP L   1      -9.976  -2.707   3.820  1.00  0.00    -0.303 NA
HETATM    8  H5  PAP L   1      -9.863  -2.956   4.797  1.00  0.00     0.124 HD
HETATM    9  H6  PAP L   1     -10.747  -3.201   3.383  1.00  0.00     0.124 HD
HETATM   10  O1  PAP L   1      -5.342  -3.280   0.813  1.00  0.00    -0.361 OA
HETATM   11  H7  PAP L   1      -4.754  -2.523   0.965  1.00  0.00     0.217 HD
HETATM    1  C1  PAP L   1      -1.991   2.639   0.606  1.00  0.00     0.026 A 
HETATM    2  C2  PAP L   1      -0.785   3.332   0.746  1.00  0.00     0.038 A 
HETATM    3  C3  PAP L   1      -0.776   4.718   0.664  1.00  0.00     0.065 A 
HETATM    4  C4  PAP L   1      -1.956   5.424   0.461  1.00  0.00     0.038 A 
HETATM    5  C5  PAP L   1      -3.158   4.723   0.321  1.00  0.00     0.026 A 
HETATM    6  C6  PAP L   1      -3.180   3.325   0.342  1.00  0.00     0.005 A 
HETATM    7  N1  PAP L   1      -4.400   2.639   0.321  1.00  0.00    -0.303 NA
HETATM    8  H5  PAP L   1      -4.387   1.768   0.842  1.00  0.00     0.124 HD
HETATM    9  H6  PAP L   1      -4.792   2.526  -0.608  1.00  0.00     0.124 HD
HETATM   10  O1  PAP L   1       0.419   5.357   0.808  1.00  0.00    -0.361 OA
HETATM   11  H7  PAP L   1       0.629   5.812  -0.023  1.00  0.00     0.217 HD
HETATM    1  C1  PAP L   1      -0.896   3.361   0.710  1.00  0.00     0.026 A 
HETATM    2  C2  PAP L   1      -2.075   2.620   0.603  1.00  0.00     0.038 A 
HETATM    3  C3  PAP L   1      -3.287   3.276   0.440  1.00  0.00     0.065 A 
HETATM    4  C4  PAP L   1      -3.338   4.663   0.364  1.00  0.00     0.038 A 
HETATM    5  C5  PAP L   1      -2.153   5.399   0.473  1.00  0.00     0.026 A 
HETATM    6  C6  PAP L   1      -0.930   4.759   0.697  1.00  0.00     0.005 A 
HETATM    7  N1  PAP L   1       0.262   5.493   0.685  1.00  0.00    -0.303 NA
HETATM    8  H5  PAP L   1       0.123   6.497   0.737  1.00  0.00     0.124 HD
HETATM    9  H6  PAP L   1       0.898   5.229  -0.060  1.00  0.00     0.124 HD
HETATM   10  O1  PAP L   1      -4.415   2.518   0.337  1.00  0.00    -0.361 OA
HETATM   11  H7  PAP L   1      -4.288   1.703   0.849  1.00  0.00     0.217 HD
HETATM    1  C1  PAP L   1      -8.199  -3.318   3.705  1.00  0.00     0.026 A 
HETATM    2  C2  PAP L   1      -6.877  -3.057   3.337  1.00  0.00     0.038 A 
HETATM    3  C3  PAP L   1      -6.577  -1.907   2.619  1.00  0.00     0.065 A 
HETATM    4  C4  PAP L   1      -7.578  -1.005   2.277  1.00  0.00     0.038 A 
HETATM    5  C5  PAP L   1      -8.899  -1.273   2.648  1.00  0.00     0.026 A 
HETATM    6  C6  PAP L   1      -9.229  -2.454   3.320  1.00  0.00     0.005 A 
HETATM    7  N1  PAP L   1     -10.532  -2.656   3.792  1.00  0.00    -0.303 NA
HETATM    8  H5  PAP L   1     -10.644  -3.512   4.325  1.00  0.00     0.124 HD
HETATM    9  H6  PAP L   1     -11.247  -2.547   3.080  1.00  0.00     0.124 HD
HETATM   10  O1  PAP L   1      -5.276  -1.688   2.280  1.00  0.00    -0.361 OA
HETATM   11  H7  PAP L   1      -4.802  -2.534   2.305  1.00  0.00     0.217 HD
HETATM    1  C1  PAP L   1      -7.718  -0.925   2.307  1.00  0.00     0.026 A 
HETATM    2  C2  PAP L   1      -9.062  -1.068   2.664  1.00  0.00     0.038 A 
HETATM    3  C3  PAP L   1      -9.482  -2.225   3.306  1.00  0.00     0.065 A 
HETATM    4  C4  PAP L   1      -8.577  -3.235   3.610  1.00  0.00     0.038 A 
HETATM    5  C5  PAP L   1      -7.235  -3.085   3.249  1.00  0.00     0.026 A 
HETATM    6  C6  PAP L   1      -6.803  -1.953   2.549  1.00  0.00     0.005 A 
HETATM    7  N1  PAP L   1      -5.440  -1.758   2.299  1.00  0.00    -0.303 NA
HETATM    8  H5  PAP L   1      -5.015  -2.501   1.754  1.00  0.00     0.124 HD
HETATM    9  H6  PAP L   1      -4.899  -1.528   3.126  1.00  0.00     0.124 HD
HETATM   10  O1  PAP L   1     -10.799  -2.326   3.640  1.00  0.00    -0.361 OA
HETATM   11  H7  PAP L   1     -11.254  -1.515   3.359  1.00  0.00     0.217 HD
HETATM    1  C1  PAP L   1      -8.250  -3.007   3.642  1.00  0.00     0.026 A 
HETATM    2  C2  PAP L   1      -9.193  -3.111   2.616  1.00  0.00     0.038 A 
HETATM    3  C3  PAP L   1      -8.777  -3.062   1.293  1.00  0.00     0.065 A 
HETATM    4  C4  PAP L   1      -7.429  -2.926   0.978  1.00  0.00     0.038 A 
HETATM    5  C5  PAP L   1      -6.491  -2.822   2.010  1.00  0.00     0.026 A 
HETATM    6  C6  PAP L   1      -6.897  -2.811   3.349  1.00  0.00     0.005 A 
HETATM    7  N1  PAP L   1      -5.944  -2.827   4.374  1.00  0.00    -0.303 NA
HETATM    8  H5  PAP L   1      -5.363  -3.659   4.378  1.00  0.00     0.124 HD
HETATM    9  H6  PAP L   1      -6.325  -2.618   5.291  1.00  0.00     0.124 HD
HETATM   10  O1  PAP L   1      -9.726  -3.168   0.321  1.00  0.00    -0.361 OA
HETATM   11  H7  PAP L   1     -10.410  -3.787   0.622  1.00  0.00     0.217 HD
HETATM    1  C1  PAP L   1      -3.119   2.696   1.223  1.00  0.00     0.026 A 
HETATM    2  C2  PAP L   1      -2.410   3.842   0.855  1.00  0.00     0.038 A 
HETATM    3  C3  PAP L   1      -3.086   5.042   0.678  1.00  0.00     0.065 A 
HETATM    4  C4  PAP L   1      -4.460   5.117   0.879  1.00  0.00     0.038 A 
HETATM    5  C5  PAP L   1      -5.163   3.966   1.246  1.00  0.00     0.026 A 
HETATM    6  C6  PAP L   1      -4.509   2.735   1.372  1.00  0.00     0.005 A 
HETATM    7  N1  PAP L   1      -5.198   1.617   1.855  1.00  0.00    -0.303 NA
HETATM    8  H5  PAP L   1      -6.179   1.600   1.597  1.00  0.00     0.124 HD
HETATM    9  H6  PAP L   1      -5.057   1.445   2.845  1.00  0.00     0.124 HD
HETATM   10  O1  PAP L   1      -2.359   6.137   0.321  1.00  0.00    -0.361 OA
HETATM   11  H7  PAP L   1      -2.572   6.365  -0.598  1.00  0.00     0.217 HD
HETATM    1  C1  PAP L   1      -8.737   4.231   0.625  1.00  0.00     0.026 A 
HETATM    2  C2  PAP L   1      -8.497   2.864   0.463  1.00  0.00     0.038 A 
HETATM    3  C3  PAP L   1      -7.197   2.381   0.530  1.00  0.00     0.065 A 
HETATM    4  C4  PAP L   1      -6.133   3.242   0.773  1.00  0.00     0.038 A 
HETATM    5  C5  PAP L   1      -6.381   4.609   0.933  1.00  0.00     0.026 A 
HETATM    6  C6  PAP L   1      -7.677   5.123   0.810  1.00  0.00     0.005 A 
HETATM    7  N1  PAP L   1      -7.930   6.470   1.090  1.00  0.00    -0.303 NA
HETATM    8  H5  PAP L   1      -7.532   6.786   1.968  1.00  0.00     0.124 HD
HETATM    9  H6  PAP L   1      -8.905   6.734   0.990  1.00  0.00     0.124 HD
HETATM   10  O1  PAP L   1      -7.005   1.042   0.370  1.00  0.00    -0.361 OA
HETATM   11  H7  PAP L   1      -7.079   0.611   1.236  1.00  0.00     0.217 HD
HETATM    1  C1  PAP L   1      -7.640  -3.049   2.948  1.00  0.00     0.026 A 
HETATM    2  C2  PAP L   1      -6.789  -2.031   2.510  1.00  0.00     0.038 A 
HETATM    3  C3  PAP L   1      -7.303  -0.767   2.256  1.00  0.00     0.065 A 
HETATM    4  C4  PAP L   1      -8.654  -0.499   2.449  1.00  0.00     0.038 A 
HETATM    5  C5  PAP L   1      -9.499  -1.523   2.887  1.00  0.00     0.026 A 
HETATM    6  C6  PAP L   1      -9.011  -2.818   3.092  1.00  0.00     0.005 A 
HETATM    7  N1  PAP L   1      -9.838  -3.803   3.644  1.00  0.00    -0.303 NA
HETATM    8  H5  PAP L   1     -10.599  -4.085   3.035  1.00  0.00     0.124 HD
HETATM    9  H6  PAP L   1     -10.154  -3.594   4.585  1.00  0.00     0.124 HD
HETATM   10  O1  PAP L   1      -6.441   0.199   1.832  1.00  0.00    -0.361 OA
HETATM   11  H7  PAP L   1      -6.852   1.066   1.974  1.00  0.00     0.217 HD
HETATM    1  C1  PAP L   1      -7.830  -0.692   2.072  1.00  0.00     0.026 A 
HETATM    2  C2  PAP L   1      -6.823  -1.657   2.165  1.00  0.00     0.038 A 
HETATM    3  C3  PAP L   1      -7.071  -2.847   2.834  1.00  0.00     0.065 A 
HETATM    4  C4  PAP L   1      -8.318  -3.096   3.398  1.00  0.00     0.038 A 
HETATM    5  C5  PAP L   1      -9.320  -2.126   3.302  1.00  0.00     0.026 A 
HETATM    6  C6  PAP L   1      -9.070  -0.896   2.683  1.00  0.00     0.005 A 
HETATM    7  N1  PAP L   1     -10.112   0.018   2.487  1.00  0.00    -0.303 NA
HETATM    8  H5  PAP L   1     -10.468   0.033   1.537  1.00  0.00     0.124 HD
HETATM    9  H6  PAP L   1      -9.913   0.948   2.839  1.00  0.00     0.124 HD
HETATM   10  O1  PAP L   1      -6.065  -3.763   2.901  1.00  0.00    -0.361 OA
HETATM   11  H7  PAP L   1      -5.984  -4.068   3.819  1.00  0.00     0.217 HD
HETATM    1  C1  PAP L   1      -6.804  -2.320   2.600  1.00  0.00     0.026 A 
HETATM    2  C2  PAP L   1      -7.470  -1.765   1.504  1.00  0.00     0.038 A 
HETATM    3  C3  PAP L   1      -8.849  -1.884   1.405  1.00  0.00     0.065 A 
HETATM    4  C4  PAP L   1      -9.576  -2.538   2.394  1.00  0.00     0.038 A 
HETATM    5  C5  PAP L   1      -8.903  -3.092   3.487  1.00  0.00     0.026 A 
HETATM    6  C6  PAP L   1      -7.508  -3.033   3.575  1.00  0.00     0.005 A 
HETATM    7  N1  PAP L   1      -6.855  -3.484   4.728  1.00  0.00    -0.303 NA
HETATM    8  H5  PAP L   1      -6.743  -2.769   5.439  1.00  0.00     0.124 HD
HETATM    9  H6  PAP L   1      -5.990  -3.981   4.542  1.00  0.00     0.124 HD
HETATM   10  O1  PAP L   1      -9.462  -1.328   0.324  1.00  0.00    -0.361 OA
HETATM   11  H7  PAP L   1     -10.336  -1.003   0.595  1.00  0.00     0.217 HD
HETATM    1  C1  PAP L   1      -8.541  -0.995   2.252  1.00  0.00     0.026 A 
HETATM    2  C2  PAP L   1      -8.682  -1.894   3.312  1.00  0.00     0.038 A 
HETATM    3  C3  PAP L   1      -7.776  -2.936   3.455  1.00  0.00     0.065 A 
HETATM    4  C4  PAP L   1      -6.719  -3.083   2.564  1.00  0.00     0.038 A 
HETATM    5  C5  PAP L   1      -6.584  -2.180   1.505  1.00  0.00     0.026 A 
HETATM    6  C6  PAP L   1      -7.521  -1.159   1.309  1.00  0.00     0.005 A 
HETATM    7  N1  PAP L   1      -7.311  -0.191   0.321  1.00  0.00    -0.303 NA
HETATM    8  H5  PAP L   1      -6.459   0.345   0.449  1.00  0.00     0.124 HD
HETATM    9  H6  PAP L   1      -8.117   0.401   0.149  1.00  0.00     0.124 HD
HETATM   10  O1  PAP L   1      -7.946  -3.790   4.502  1.00  0.00    -0.361 OA
HETATM   11  H7  PAP L   1      -8.869  -3.738   4.798  1.00  0.00     0.217 HD
HETATM    1  C1  PAP L   1      -6.310   3.080   0.750  1.00  0.00     0.026 A 
HETATM    2  C2  PAP L   1      -7.584   2.561   0.504  1.00  0.00     0.038 A 
HETATM    3  C3  PAP L   1      -8.691   3.396   0.569  1.00  0.00     0.065 A 
HETATM    4  C4  PAP L   1      -8.543   4.747   0.861  1.00  0.00     0.038 A 
HETATM    5  C5  PAP L   1      -7.265   5.259   1.107  1.00  0.00     0.026 A 
HETATM    6  C6  PAP L   1      -6.144   4.422   1.104  1.00  0.00     0.005 A 
HETATM    7  N1  PAP L   1      -4.860   4.964   1.232  1.00  0.00    -0.303 NA
HETATM    8  H5  PAP L   1      -4.205   4.629   0.534  1.00  0.00     0.124 HD
HETATM    9  H6  PAP L   1      -4.484   4.909   2.173  1.00  0.00     0.124 HD
HETATM   10  O1  PAP L   1      -9.916   2.853   0.321  1.00  0.00    -0.361 OA
HETATM   11  H7  PAP L   1     -10.280   3.262  -0.481  1.00  0.00     0.217 HD
HETATM    1  C1  PAP L   1      -7.822   2.362   0.471  1.00  0.00     0.026 A 
HETATM    2  C2  PAP L   1      -6.642   3.093   0.631  1.00  0.00     0.038 A 
HETATM    3  C3  PAP L   1      -6.707   4.453   0.896  1.00  0.00     0.065 A 
HETATM    4  C4  PAP L   1      -7.935   5.094   1.021  1.00  0.00     0.038 A 
HETATM    5  C5  PAP L   1      -9.112   4.356   0.858  1.00  0.00     0.026 A 
HETATM    6  C6  PAP L   1      -9.067   2.996   0.532  1.00  0.00     0.005 A 
HETATM    7  N1  PAP L   1     -10.245   2.243   0.490  1.00  0.00    -0.303 NA
HETATM    8  H5  PAP L   1     -10.452   1.760   1.359  1.00  0.00     0.124 HD
HETATM    9  H6  PAP L   1     -10.313   1.631  -0.316  1.00  0.00     0.124 HD
HETATM   10  O1  PAP L   1      -5.534   5.130   1.048  1.00  0.00    -0.361 OA
HETATM   11  H7  PAP L   1      -4.800   4.503   0.956  1.00  0.00     0.217 HD
HETATM    1  C1  PAP L   1      -9.200  -1.209   2.325  1.00  0.00     0.026 A 
HETATM    2  C2  PAP L   1      -7.857  -1.004   2.653  1.00  0.00     0.038 A 
HETATM    3  C3  PAP L   1      -6.884  -1.838   2.121  1.00  0.00     0.065 A 
HETATM    4  C4  PAP L   1      -7.230  -2.866   1.251  1.00  0.00     0.038 A 
HETATM    5  C5  PAP L   1      -8.576  -3.066   0.928  1.00  0.00     0.026 A 
HETATM    6  C6  PAP L   1      -9.577  -2.274   1.500  1.00  0.00     0.005 A 
HETATM    7  N1  PAP L   1     -10.905  -2.403   1.080  1.00  0.00    -0.303 NA
HETATM    8  H5  PAP L   1     -11.170  -1.744   0.356  1.00  0.00     0.124 HD
HETATM    9  H6  PAP L   1     -11.576  -2.431   1.841  1.00  0.00     0.124 HD
HETATM   10  O1  PAP L   1      -5.586  -1.604   2.463  1.00  0.00    -0.361 OA
HETATM   11  H7  PAP L   1      -5.490  -1.729   3.421  1.00  0.00     0.217 HD
HETATM    1  C1  PAP L   1      -9.144   0.464   1.620  1.00  0.00     0.026 A 
HETATM    2  C2  PAP L   1      -9.939  -0.365   2.417  1.00  0.00     0.038 A 
HETATM    3  C3  PAP L   1      -9.395  -1.518   2.966  1.00  0.00     0.065 A 
HETATM    4  C4  PAP L   1      -8.063  -1.849   2.743  1.00  0.00     0.038 A 
HETATM    5  C5  PAP L   1      -7.275  -1.016   1.944  1.00  0.00     0.026 A 
HETATM    6  C6  PAP L   1      -7.820   0.119   1.335  1.00  0.00     0.005 A 
HETATM    7  N1  PAP L   1      -6.995   1.009   0.637  1.00  0.00    -0.303 NA
HETATM    8  H5  PAP L   1      -6.749   0.692  -0.295  1.00  0.00     0.124 HD
HETATM    9  H6  PAP L   1      -6.186   1.319   1.165  1.00  0.00     0.124 HD
HETATM   10  O1  PAP L   1     -10.202  -2.299   3.738  1.00  0.00    -0.361 OA
HETATM   11  H7  PAP L   1     -11.107  -1.953   3.691  1.00  0.00     0.217 HD
