MODEL 1
REMARK VINA RESULT:      -3.9      0.000      0.000
REMARK  2 active torsions:
REMARK  status: ('A' for Active; 'I' for Inactive)
REMARK    1  A    between atoms: C3_3  and  O1_10 
REMARK    2  A    between atoms: C6_6  and  N1_7 
ROOT
HETATM    1  C1  PAP L   1      -9.992  -2.889 -10.393  1.00  0.00     0.026 A 
HETATM    2  C2  PAP L   1     -11.067  -2.689  -9.523  1.00  0.00     0.038 A 
HETATM    3  C3  PAP L   1     -10.917  -2.962  -8.170  1.00  0.00     0.065 A 
HETATM    4  C4  PAP L   1      -9.702  -3.417  -7.670  1.00  0.00     0.038 A 
HETATM    5  C5  PAP L   1      -8.631  -3.616  -8.547  1.00  0.00     0.026 A 
HETATM    6  C6  PAP L   1      -8.780  -3.402  -9.922  1.00  0.00     0.005 A 
ENDROOT
BRANCH   6   7
HETATM    7  N1  PAP L   1      -7.672  -3.488 -10.772  1.00  0.00    -0.303 NA
HETATM    8  H5  PAP L   1      -7.850  -4.013 -11.622  1.00  0.00     0.124 HD
HETATM    9  H6  PAP L   1      -6.820  -3.783 -10.307  1.00  0.00     0.124 HD
ENDBRANCH   6   7
BRANCH   3  10
HETATM   10  O1  PAP L   1     -11.987  -2.753  -7.354  1.00  0.00    -0.361 OA
HETATM   11  H7  PAP L   1     -12.592  -3.508  -7.436  1.00  0.00     0.217 HD
ENDBRANCH   3  10
TORSDOF 2
ENDMDL
MODEL 2
REMARK VINA RESULT:      -3.9      0.078      1.706
REMARK  2 active torsions:
REMARK  status: ('A' for Active; 'I' for Inactive)
REMARK    1  A    between atoms: C3_3  and  O1_10 
REMARK    2  A    between atoms: C6_6  and  N1_7 
ROOT
HETATM    1  C1  PAP L   1      -8.666  -3.571  -8.559  1.00  0.00     0.026 A 
HETATM    2  C2  PAP L   1      -9.757  -3.393  -7.704  1.00  0.00     0.038 A 
HETATM    3  C3  PAP L   1     -10.964  -2.936  -8.216  1.00  0.00     0.065 A 
HETATM    4  C4  PAP L   1     -11.103  -2.670  -9.573  1.00  0.00     0.038 A 
HETATM    5  C5  PAP L   1     -10.006  -2.850 -10.423  1.00  0.00     0.026 A 
HETATM    6  C6  PAP L   1      -8.766  -3.252  -9.917  1.00  0.00     0.005 A 
ENDROOT
BRANCH   6   7
HETATM    7  N1  PAP L   1      -7.711  -3.544 -10.789  1.00  0.00    -0.303 NA
HETATM    8  H5  PAP L   1      -6.794  -3.449 -10.365  1.00  0.00     0.124 HD
HETATM    9  H6  PAP L   1      -7.774  -3.068 -11.683  1.00  0.00     0.124 HD
ENDBRANCH   6   7
BRANCH   3  10
HETATM   10  O1  PAP L   1     -12.004  -2.777  -7.351  1.00  0.00    -0.361 OA
HETATM   11  H7  PAP L   1     -12.251  -3.648  -6.999  1.00  0.00     0.217 HD
ENDBRANCH   3  10
TORSDOF 2
ENDMDL
MODEL 3
REMARK VINA RESULT:      -3.9      2.779      3.681
REMARK  2 active torsions:
REMARK  status: ('A' for Active; 'I' for Inactive)
REMARK    1  A    between atoms: C3_3  and  O1_10 
REMARK    2  A    between atoms: C6_6  and  N1_7 
ROOT
HETATM    1  C1  PAP L   1      -9.711  -3.362  -7.778  1.00  0.00     0.026 A 
HETATM    2  C2  PAP L   1      -8.590  -3.537  -8.594  1.00  0.00     0.038 A 
HETATM    3  C3  PAP L   1      -8.693  -3.319  -9.961  1.00  0.00     0.065 A 
HETATM    4  C4  PAP L   1      -9.897  -2.912 -10.525  1.00  0.00     0.038 A 
HETATM    5  C5  PAP L   1     -11.015  -2.740  -9.702  1.00  0.00     0.026 A 
HETATM    6  C6  PAP L   1     -10.946  -3.012  -8.332  1.00  0.00     0.005 A 
ENDROOT
BRANCH   6   7
HETATM    7  N1  PAP L   1     -12.034  -2.722  -7.501  1.00  0.00    -0.303 NA
HETATM    8  H5  PAP L   1     -12.440  -1.807  -7.665  1.00  0.00     0.124 HD
HETATM    9  H6  PAP L   1     -11.857  -2.895  -6.517  1.00  0.00     0.124 HD
ENDBRANCH   6   7
BRANCH   3  10
HETATM   10  O1  PAP L   1      -7.577  -3.498 -10.721  1.00  0.00    -0.361 OA
HETATM   11  H7  PAP L   1      -6.807  -3.560 -10.133  1.00  0.00     0.217 HD
ENDBRANCH   3  10
TORSDOF 2
ENDMDL
MODEL 4
REMARK VINA RESULT:      -3.8      2.779      3.261
REMARK  2 active torsions:
REMARK  status: ('A' for Active; 'I' for Inactive)
REMARK    1  A    between atoms: C3_3  and  O1_10 
REMARK    2  A    between atoms: C6_6  and  N1_7 
ROOT
HETATM    1  C1  PAP L   1     -11.076  -2.821  -9.744  1.00  0.00     0.026 A 
HETATM    2  C2  PAP L   1      -9.909  -2.985 -10.495  1.00  0.00     0.038 A 
HETATM    3  C3  PAP L   1      -8.724  -3.329  -9.859  1.00  0.00     0.065 A 
HETATM    4  C4  PAP L   1      -8.691  -3.528  -8.483  1.00  0.00     0.038 A 
HETATM    5  C5  PAP L   1      -9.862  -3.361  -7.738  1.00  0.00     0.026 A 
HETATM    6  C6  PAP L   1     -11.052  -2.957  -8.352  1.00  0.00     0.005 A 
ENDROOT
BRANCH   6   7
HETATM    7  N1  PAP L   1     -12.243  -2.909  -7.619  1.00  0.00    -0.303 NA
HETATM    8  H5  PAP L   1     -12.130  -3.158  -6.642  1.00  0.00     0.124 HD
HETATM    9  H6  PAP L   1     -13.014  -3.403  -8.056  1.00  0.00     0.124 HD
ENDBRANCH   6   7
BRANCH   3  10
HETATM   10  O1  PAP L   1      -7.609  -3.482 -10.626  1.00  0.00    -0.361 OA
HETATM   11  H7  PAP L   1      -7.021  -2.725 -10.474  1.00  0.00     0.217 HD
ENDBRANCH   3  10
TORSDOF 2
ENDMDL
MODEL 5
REMARK VINA RESULT:      -3.6      9.130      9.693
REMARK  2 active torsions:
REMARK  status: ('A' for Active; 'I' for Inactive)
REMARK    1  A    between atoms: C3_3  and  O1_10 
REMARK    2  A    between atoms: C6_6  and  N1_7 
ROOT
HETATM    1  C1  PAP L   1      -4.258   2.437 -10.833  1.00  0.00     0.026 A 
HETATM    2  C2  PAP L   1      -3.052   3.130 -10.693  1.00  0.00     0.038 A 
HETATM    3  C3  PAP L   1      -3.043   4.516 -10.775  1.00  0.00     0.065 A 
HETATM    4  C4  PAP L   1      -4.223   5.222 -10.978  1.00  0.00     0.038 A 
HETATM    5  C5  PAP L   1      -5.425   4.521 -11.118  1.00  0.00     0.026 A 
HETATM    6  C6  PAP L   1      -5.447   3.123 -11.097  1.00  0.00     0.005 A 
ENDROOT
BRANCH   6   7
HETATM    7  N1  PAP L   1      -6.667   2.437 -11.118  1.00  0.00    -0.303 NA
HETATM    8  H5  PAP L   1      -6.654   1.566 -10.597  1.00  0.00     0.124 HD
HETATM    9  H6  PAP L   1      -7.059   2.324 -12.047  1.00  0.00     0.124 HD
ENDBRANCH   6   7
BRANCH   3  10
HETATM   10  O1  PAP L   1      -1.848   5.155 -10.631  1.00  0.00    -0.361 OA
HETATM   11  H7  PAP L   1      -1.638   5.610 -11.462  1.00  0.00     0.217 HD
ENDBRANCH   3  10
TORSDOF 2
ENDMDL
MODEL 6
REMARK VINA RESULT:      -3.6      8.823      9.311
REMARK  2 active torsions:
REMARK  status: ('A' for Active; 'I' for Inactive)
REMARK    1  A    between atoms: C3_3  and  O1_10 
REMARK    2  A    between atoms: C6_6  and  N1_7 
ROOT
HETATM    1  C1  PAP L   1      -3.163   3.159 -10.729  1.00  0.00     0.026 A 
HETATM    2  C2  PAP L   1      -4.342   2.418 -10.836  1.00  0.00     0.038 A 
HETATM    3  C3  PAP L   1      -5.554   3.074 -10.999  1.00  0.00     0.065 A 
HETATM    4  C4  PAP L   1      -5.605   4.461 -11.075  1.00  0.00     0.038 A 
HETATM    5  C5  PAP L   1      -4.420   5.197 -10.966  1.00  0.00     0.026 A 
HETATM    6  C6  PAP L   1      -3.197   4.557 -10.742  1.00  0.00     0.005 A 
ENDROOT
BRANCH   6   7
HETATM    7  N1  PAP L   1      -2.005   5.291 -10.754  1.00  0.00    -0.303 NA
HETATM    8  H5  PAP L   1      -2.144   6.295 -10.702  1.00  0.00     0.124 HD
HETATM    9  H6  PAP L   1      -1.369   5.027 -11.499  1.00  0.00     0.124 HD
ENDBRANCH   6   7
BRANCH   3  10
HETATM   10  O1  PAP L   1      -6.682   2.316 -11.102  1.00  0.00    -0.361 OA
HETATM   11  H7  PAP L   1      -6.555   1.501 -10.590  1.00  0.00     0.217 HD
ENDBRANCH   3  10
TORSDOF 2
ENDMDL
MODEL 7
REMARK VINA RESULT:      -3.5      2.979      3.687
REMARK  2 active torsions:
REMARK  status: ('A' for Active; 'I' for Inactive)
REMARK    1  A    between atoms: C3_3  and  O1_10 
REMARK    2  A    between atoms: C6_6  and  N1_7 
ROOT
HETATM    1  C1  PAP L   1     -10.466  -3.520  -7.734  1.00  0.00     0.026 A 
HETATM    2  C2  PAP L   1      -9.144  -3.259  -8.102  1.00  0.00     0.038 A 
HETATM    3  C3  PAP L   1      -8.844  -2.109  -8.820  1.00  0.00     0.065 A 
HETATM    4  C4  PAP L   1      -9.845  -1.207  -9.162  1.00  0.00     0.038 A 
HETATM    5  C5  PAP L   1     -11.166  -1.475  -8.791  1.00  0.00     0.026 A 
HETATM    6  C6  PAP L   1     -11.496  -2.656  -8.119  1.00  0.00     0.005 A 
ENDROOT
BRANCH   6   7
HETATM    7  N1  PAP L   1     -12.799  -2.858  -7.647  1.00  0.00    -0.303 NA
HETATM    8  H5  PAP L   1     -12.911  -3.714  -7.114  1.00  0.00     0.124 HD
HETATM    9  H6  PAP L   1     -13.514  -2.749  -8.359  1.00  0.00     0.124 HD
ENDBRANCH   6   7
BRANCH   3  10
HETATM   10  O1  PAP L   1      -7.543  -1.890  -9.159  1.00  0.00    -0.361 OA
HETATM   11  H7  PAP L   1      -7.069  -2.736  -9.134  1.00  0.00     0.217 HD
ENDBRANCH   3  10
TORSDOF 2
ENDMDL
MODEL 8
REMARK VINA RESULT:      -3.5      1.454      1.572
REMARK  2 active torsions:
REMARK  status: ('A' for Active; 'I' for Inactive)
REMARK    1  A    between atoms: C3_3  and  O1_10 
REMARK    2  A    between atoms: C6_6  and  N1_7 
ROOT
HETATM    1  C1  PAP L   1      -9.985  -1.127  -9.132  1.00  0.00     0.026 A 
HETATM    2  C2  PAP L   1     -11.329  -1.270  -8.775  1.00  0.00     0.038 A 
HETATM    3  C3  PAP L   1     -11.749  -2.427  -8.133  1.00  0.00     0.065 A 
HETATM    4  C4  PAP L   1     -10.844  -3.437  -7.829  1.00  0.00     0.038 A 
HETATM    5  C5  PAP L   1      -9.502  -3.287  -8.190  1.00  0.00     0.026 A 
HETATM    6  C6  PAP L   1      -9.070  -2.155  -8.890  1.00  0.00     0.005 A 
ENDROOT
BRANCH   6   7
HETATM    7  N1  PAP L   1      -7.707  -1.960  -9.140  1.00  0.00    -0.303 NA
HETATM    8  H5  PAP L   1      -7.282  -2.703  -9.685  1.00  0.00     0.124 HD
HETATM    9  H6  PAP L   1      -7.166  -1.730  -8.313  1.00  0.00     0.124 HD
ENDBRANCH   6   7
BRANCH   3  10
HETATM   10  O1  PAP L   1     -13.066  -2.528  -7.799  1.00  0.00    -0.361 OA
HETATM   11  H7  PAP L   1     -13.521  -1.717  -8.080  1.00  0.00     0.217 HD
ENDBRANCH   3  10
TORSDOF 2
ENDMDL
MODEL 9
REMARK VINA RESULT:      -3.3      1.997      2.589
REMARK  2 active torsions:
REMARK  status: ('A' for Active; 'I' for Inactive)
REMARK    1  A    between atoms: C3_3  and  O1_10 
REMARK    2  A    between atoms: C6_6  and  N1_7 
ROOT
HETATM    1  C1  PAP L   1     -10.517  -3.209  -7.797  1.00  0.00     0.026 A 
HETATM    2  C2  PAP L   1     -11.460  -3.313  -8.823  1.00  0.00     0.038 A 
HETATM    3  C3  PAP L   1     -11.044  -3.264 -10.146  1.00  0.00     0.065 A 
HETATM    4  C4  PAP L   1      -9.696  -3.128 -10.461  1.00  0.00     0.038 A 
HETATM    5  C5  PAP L   1      -8.758  -3.024  -9.429  1.00  0.00     0.026 A 
HETATM    6  C6  PAP L   1      -9.164  -3.013  -8.090  1.00  0.00     0.005 A 
ENDROOT
BRANCH   6   7
HETATM    7  N1  PAP L   1      -8.211  -3.029  -7.065  1.00  0.00    -0.303 NA
HETATM    8  H5  PAP L   1      -7.630  -3.861  -7.061  1.00  0.00     0.124 HD
HETATM    9  H6  PAP L   1      -8.592  -2.820  -6.148  1.00  0.00     0.124 HD
ENDBRANCH   6   7
BRANCH   3  10
HETATM   10  O1  PAP L   1     -11.993  -3.370 -11.118  1.00  0.00    -0.361 OA
HETATM   11  H7  PAP L   1     -12.677  -3.989 -10.817  1.00  0.00     0.217 HD
ENDBRANCH   3  10
TORSDOF 2
ENDMDL
MODEL 10
REMARK VINA RESULT:      -3.1      8.098      8.549
REMARK  2 active torsions:
REMARK  status: ('A' for Active; 'I' for Inactive)
REMARK    1  A    between atoms: C3_3  and  O1_10 
REMARK    2  A    between atoms: C6_6  and  N1_7 
ROOT
HETATM    1  C1  PAP L   1      -5.386   2.494 -10.216  1.00  0.00     0.026 A 
HETATM    2  C2  PAP L   1      -4.677   3.640 -10.584  1.00  0.00     0.038 A 
HETATM    3  C3  PAP L   1      -5.353   4.840 -10.761  1.00  0.00     0.065 A 
HETATM    4  C4  PAP L   1      -6.727   4.915 -10.560  1.00  0.00     0.038 A 
HETATM    5  C5  PAP L   1      -7.430   3.764 -10.193  1.00  0.00     0.026 A 
HETATM    6  C6  PAP L   1      -6.776   2.533 -10.067  1.00  0.00     0.005 A 
ENDROOT
BRANCH   6   7
HETATM    7  N1  PAP L   1      -7.465   1.415  -9.584  1.00  0.00    -0.303 NA
HETATM    8  H5  PAP L   1      -8.446   1.398  -9.842  1.00  0.00     0.124 HD
HETATM    9  H6  PAP L   1      -7.324   1.243  -8.594  1.00  0.00     0.124 HD
ENDBRANCH   6   7
BRANCH   3  10
HETATM   10  O1  PAP L   1      -4.626   5.935 -11.118  1.00  0.00    -0.361 OA
HETATM   11  H7  PAP L   1      -4.839   6.163 -12.037  1.00  0.00     0.217 HD
ENDBRANCH   3  10
TORSDOF 2
ENDMDL
MODEL 11
REMARK VINA RESULT:      -3.0      7.008      7.445
REMARK  2 active torsions:
REMARK  status: ('A' for Active; 'I' for Inactive)
REMARK    1  A    between atoms: C3_3  and  O1_10 
REMARK    2  A    between atoms: C6_6  and  N1_7 
ROOT
HETATM    1  C1  PAP L   1     -11.004   4.029 -10.814  1.00  0.00     0.026 A 
HETATM    2  C2  PAP L   1     -10.764   2.662 -10.976  1.00  0.00     0.038 A 
HETATM    3  C3  PAP L   1      -9.464   2.179 -10.909  1.00  0.00     0.065 A 
HETATM    4  C4  PAP L   1      -8.400   3.040 -10.666  1.00  0.00     0.038 A 
HETATM    5  C5  PAP L   1      -8.648   4.407 -10.506  1.00  0.00     0.026 A 
HETATM    6  C6  PAP L   1      -9.944   4.921 -10.629  1.00  0.00     0.005 A 
ENDROOT
BRANCH   6   7
HETATM    7  N1  PAP L   1     -10.197   6.268 -10.349  1.00  0.00    -0.303 NA
HETATM    8  H5  PAP L   1      -9.799   6.584  -9.471  1.00  0.00     0.124 HD
HETATM    9  H6  PAP L   1     -11.172   6.532 -10.449  1.00  0.00     0.124 HD
ENDBRANCH   6   7
BRANCH   3  10
HETATM   10  O1  PAP L   1      -9.272   0.840 -11.069  1.00  0.00    -0.361 OA
HETATM   11  H7  PAP L   1      -9.346   0.409 -10.203  1.00  0.00     0.217 HD
ENDBRANCH   3  10
TORSDOF 2
ENDMDL
MODEL 12
REMARK VINA RESULT:      -2.9      2.899      3.539
REMARK  2 active torsions:
REMARK  status: ('A' for Active; 'I' for Inactive)
REMARK    1  A    between atoms: C3_3  and  O1_10 
REMARK    2  A    between atoms: C6_6  and  N1_7 
ROOT
HETATM    1  C1  PAP L   1      -9.907  -3.251  -8.491  1.00  0.00     0.026 A 
HETATM    2  C2  PAP L   1      -9.056  -2.233  -8.929  1.00  0.00     0.038 A 
HETATM    3  C3  PAP L   1      -9.570  -0.969  -9.183  1.00  0.00     0.065 A 
HETATM    4  C4  PAP L   1     -10.921  -0.701  -8.990  1.00  0.00     0.038 A 
HETATM    5  C5  PAP L   1     -11.766  -1.725  -8.552  1.00  0.00     0.026 A 
HETATM    6  C6  PAP L   1     -11.278  -3.020  -8.347  1.00  0.00     0.005 A 
ENDROOT
BRANCH   6   7
HETATM    7  N1  PAP L   1     -12.105  -4.005  -7.795  1.00  0.00    -0.303 NA
HETATM    8  H5  PAP L   1     -12.866  -4.287  -8.404  1.00  0.00     0.124 HD
HETATM    9  H6  PAP L   1     -12.421  -3.796  -6.854  1.00  0.00     0.124 HD
ENDBRANCH   6   7
BRANCH   3  10
HETATM   10  O1  PAP L   1      -8.708  -0.003  -9.607  1.00  0.00    -0.361 OA
HETATM   11  H7  PAP L   1      -9.119   0.864  -9.465  1.00  0.00     0.217 HD
ENDBRANCH   3  10
TORSDOF 2
ENDMDL
MODEL 13
REMARK VINA RESULT:      -2.9      2.846      3.349
REMARK  2 active torsions:
REMARK  status: ('A' for Active; 'I' for Inactive)
REMARK    1  A    between atoms: C3_3  and  O1_10 
REMARK    2  A    between atoms: C6_6  and  N1_7 
ROOT
HETATM    1  C1  PAP L   1     -10.097  -0.894  -9.367  1.00  0.00     0.026 A 
HETATM    2  C2  PAP L   1      -9.090  -1.859  -9.274  1.00  0.00     0.038 A 
HETATM    3  C3  PAP L   1      -9.338  -3.049  -8.605  1.00  0.00     0.065 A 
HETATM    4  C4  PAP L   1     -10.585  -3.298  -8.041  1.00  0.00     0.038 A 
HETATM    5  C5  PAP L   1     -11.587  -2.328  -8.137  1.00  0.00     0.026 A 
HETATM    6  C6  PAP L   1     -11.337  -1.098  -8.756  1.00  0.00     0.005 A 
ENDROOT
BRANCH   6   7
HETATM    7  N1  PAP L   1     -12.379  -0.184  -8.952  1.00  0.00    -0.303 NA
HETATM    8  H5  PAP L   1     -12.735  -0.169  -9.902  1.00  0.00     0.124 HD
HETATM    9  H6  PAP L   1     -12.180   0.746  -8.600  1.00  0.00     0.124 HD
ENDBRANCH   6   7
BRANCH   3  10
HETATM   10  O1  PAP L   1      -8.332  -3.965  -8.538  1.00  0.00    -0.361 OA
HETATM   11  H7  PAP L   1      -8.251  -4.270  -7.620  1.00  0.00     0.217 HD
ENDBRANCH   3  10
TORSDOF 2
ENDMDL
MODEL 14
REMARK VINA RESULT:      -2.9      2.233      2.819
REMARK  2 active torsions:
REMARK  status: ('A' for Active; 'I' for Inactive)
REMARK    1  A    between atoms: C3_3  and  O1_10 
REMARK    2  A    between atoms: C6_6  and  N1_7 
ROOT
HETATM    1  C1  PAP L   1      -9.071  -2.522  -8.839  1.00  0.00     0.026 A 
HETATM    2  C2  PAP L   1      -9.737  -1.967  -9.935  1.00  0.00     0.038 A 
HETATM    3  C3  PAP L   1     -11.116  -2.086 -10.034  1.00  0.00     0.065 A 
HETATM    4  C4  PAP L   1     -11.843  -2.740  -9.045  1.00  0.00     0.038 A 
HETATM    5  C5  PAP L   1     -11.170  -3.294  -7.952  1.00  0.00     0.026 A 
HETATM    6  C6  PAP L   1      -9.775  -3.235  -7.864  1.00  0.00     0.005 A 
ENDROOT
BRANCH   6   7
HETATM    7  N1  PAP L   1      -9.122  -3.686  -6.711  1.00  0.00    -0.303 NA
HETATM    8  H5  PAP L   1      -9.010  -2.971  -6.000  1.00  0.00     0.124 HD
HETATM    9  H6  PAP L   1      -8.257  -4.183  -6.897  1.00  0.00     0.124 HD
ENDBRANCH   6   7
BRANCH   3  10
HETATM   10  O1  PAP L   1     -11.729  -1.530 -11.115  1.00  0.00    -0.361 OA
HETATM   11  H7  PAP L   1     -12.603  -1.205 -10.844  1.00  0.00     0.217 HD
ENDBRANCH   3  10
TORSDOF 2
ENDMDL
MODEL 15
REMARK VINA RESULT:      -2.8      1.785      2.151
REMARK  2 active torsions:
REMARK  status: ('A' for Active; 'I' for Inactive)
REMARK    1  A    between atoms: C3_3  and  O1_10 
REMARK    2  A    between atoms: C6_6  and  N1_7 
ROOT
HETATM    1  C1  PAP L   1     -10.808  -1.197  -9.187  1.00  0.00     0.026 A 
HETATM    2  C2  PAP L   1     -10.949  -2.096  -8.127  1.00  0.00     0.038 A 
HETATM    3  C3  PAP L   1     -10.043  -3.138  -7.984  1.00  0.00     0.065 A 
HETATM    4  C4  PAP L   1      -8.986  -3.285  -8.875  1.00  0.00     0.038 A 
HETATM    5  C5  PAP L   1      -8.851  -2.382  -9.934  1.00  0.00     0.026 A 
HETATM    6  C6  PAP L   1      -9.788  -1.361 -10.130  1.00  0.00     0.005 A 
ENDROOT
BRANCH   6   7
HETATM    7  N1  PAP L   1      -9.578  -0.393 -11.118  1.00  0.00    -0.303 NA
HETATM    8  H5  PAP L   1      -8.726   0.143 -10.990  1.00  0.00     0.124 HD
HETATM    9  H6  PAP L   1     -10.384   0.199 -11.290  1.00  0.00     0.124 HD
ENDBRANCH   6   7
BRANCH   3  10
HETATM   10  O1  PAP L   1     -10.213  -3.992  -6.937  1.00  0.00    -0.361 OA
HETATM   11  H7  PAP L   1     -11.136  -3.940  -6.641  1.00  0.00     0.217 HD
ENDBRANCH   3  10
TORSDOF 2
ENDMDL
MODEL 16
REMARK VINA RESULT:      -2.8      6.903      7.351
REMARK  2 active torsions:
REMARK  status: ('A' for Active; 'I' for Inactive)
REMARK    1  A    between atoms: C3_3  and  O1_10 
REMARK    2  A    between atoms: C6_6  and  N1_7 
ROOT
HETATM    1  C1  PAP L   1      -8.577   2.878 -10.689  1.00  0.00     0.026 A 
HETATM    2  C2  PAP L   1      -9.851   2.359 -10.935  1.00  0.00     0.038 A 
HETATM    3  C3  PAP L   1     -10.958   3.194 -10.870  1.00  0.00     0.065 A 
HETATM    4  C4  PAP L   1     -10.810   4.545 -10.578  1.00  0.00     0.038 A 
HETATM    5  C5  PAP L   1      -9.532   5.057 -10.332  1.00  0.00     0.026 A 
HETATM    6  C6  PAP L   1      -8.411   4.220 -10.335  1.00  0.00     0.005 A 
ENDROOT
BRANCH   6   7
HETATM    7  N1  PAP L   1      -7.127   4.762 -10.207  1.00  0.00    -0.303 NA
HETATM    8  H5  PAP L   1      -6.472   4.427 -10.905  1.00  0.00     0.124 HD
HETATM    9  H6  PAP L   1      -6.751   4.707  -9.266  1.00  0.00     0.124 HD
ENDBRANCH   6   7
BRANCH   3  10
HETATM   10  O1  PAP L   1     -12.183   2.651 -11.118  1.00  0.00    -0.361 OA
HETATM   11  H7  PAP L   1     -12.547   3.060 -11.920  1.00  0.00     0.217 HD
ENDBRANCH   3  10
TORSDOF 2
ENDMDL
MODEL 17
REMARK VINA RESULT:      -2.7      6.995      7.577
REMARK  2 active torsions:
REMARK  status: ('A' for Active; 'I' for Inactive)
REMARK    1  A    between atoms: C3_3  and  O1_10 
REMARK    2  A    between atoms: C6_6  and  N1_7 
ROOT
HETATM    1  C1  PAP L   1     -10.089   2.160 -10.968  1.00  0.00     0.026 A 
HETATM    2  C2  PAP L   1      -8.909   2.891 -10.808  1.00  0.00     0.038 A 
HETATM    3  C3  PAP L   1      -8.974   4.251 -10.543  1.00  0.00     0.065 A 
HETATM    4  C4  PAP L   1     -10.202   4.892 -10.418  1.00  0.00     0.038 A 
HETATM    5  C5  PAP L   1     -11.379   4.154 -10.581  1.00  0.00     0.026 A 
HETATM    6  C6  PAP L   1     -11.334   2.794 -10.907  1.00  0.00     0.005 A 
ENDROOT
BRANCH   6   7
HETATM    7  N1  PAP L   1     -12.512   2.041 -10.949  1.00  0.00    -0.303 NA
HETATM    8  H5  PAP L   1     -12.719   1.558 -10.080  1.00  0.00     0.124 HD
HETATM    9  H6  PAP L   1     -12.580   1.429 -11.755  1.00  0.00     0.124 HD
ENDBRANCH   6   7
BRANCH   3  10
HETATM   10  O1  PAP L   1      -7.801   4.928 -10.391  1.00  0.00    -0.361 OA
HETATM   11  H7  PAP L   1      -7.067   4.301 -10.483  1.00  0.00     0.217 HD
ENDBRANCH   3  10
TORSDOF 2
ENDMDL
MODEL 18
REMARK VINA RESULT:      -2.7      2.862      3.398
REMARK  2 active torsions:
REMARK  status: ('A' for Active; 'I' for Inactive)
REMARK    1  A    between atoms: C3_3  and  O1_10 
REMARK    2  A    between atoms: C6_6  and  N1_7 
ROOT
HETATM    1  C1  PAP L   1     -11.467  -1.411  -9.114  1.00  0.00     0.026 A 
HETATM    2  C2  PAP L   1     -10.124  -1.206  -8.786  1.00  0.00     0.038 A 
HETATM    3  C3  PAP L   1      -9.151  -2.040  -9.318  1.00  0.00     0.065 A 
HETATM    4  C4  PAP L   1      -9.497  -3.068 -10.188  1.00  0.00     0.038 A 
HETATM    5  C5  PAP L   1     -10.843  -3.268 -10.511  1.00  0.00     0.026 A 
HETATM    6  C6  PAP L   1     -11.844  -2.476  -9.939  1.00  0.00     0.005 A 
ENDROOT
BRANCH   6   7
HETATM    7  N1  PAP L   1     -13.172  -2.605 -10.359  1.00  0.00    -0.303 NA
HETATM    8  H5  PAP L   1     -13.437  -1.946 -11.083  1.00  0.00     0.124 HD
HETATM    9  H6  PAP L   1     -13.843  -2.633  -9.598  1.00  0.00     0.124 HD
ENDBRANCH   6   7
BRANCH   3  10
HETATM   10  O1  PAP L   1      -7.853  -1.806  -8.976  1.00  0.00    -0.361 OA
HETATM   11  H7  PAP L   1      -7.757  -1.931  -8.018  1.00  0.00     0.217 HD
ENDBRANCH   3  10
TORSDOF 2
ENDMDL
MODEL 19
REMARK VINA RESULT:      -2.6      2.544      2.860
REMARK  2 active torsions:
REMARK  status: ('A' for Active; 'I' for Inactive)
REMARK    1  A    between atoms: C3_3  and  O1_10 
REMARK    2  A    between atoms: C6_6  and  N1_7 
ROOT
HETATM    1  C1  PAP L   1     -11.411   0.262  -9.819  1.00  0.00     0.026 A 
HETATM    2  C2  PAP L   1     -12.206  -0.567  -9.022  1.00  0.00     0.038 A 
HETATM    3  C3  PAP L   1     -11.662  -1.720  -8.473  1.00  0.00     0.065 A 
HETATM    4  C4  PAP L   1     -10.330  -2.051  -8.696  1.00  0.00     0.038 A 
HETATM    5  C5  PAP L   1      -9.542  -1.218  -9.495  1.00  0.00     0.026 A 
HETATM    6  C6  PAP L   1     -10.087  -0.083 -10.104  1.00  0.00     0.005 A 
ENDROOT
BRANCH   6   7
HETATM    7  N1  PAP L   1      -9.262   0.807 -10.802  1.00  0.00    -0.303 NA
HETATM    8  H5  PAP L   1      -9.016   0.490 -11.734  1.00  0.00     0.124 HD
HETATM    9  H6  PAP L   1      -8.453   1.117 -10.274  1.00  0.00     0.124 HD
ENDBRANCH   6   7
BRANCH   3  10
HETATM   10  O1  PAP L   1     -12.469  -2.501  -7.701  1.00  0.00    -0.361 OA
HETATM   11  H7  PAP L   1     -13.374  -2.155  -7.748  1.00  0.00     0.217 HD
ENDBRANCH   3  10
TORSDOF 2
ENDMDL
