MODEL 1
REMARK VINA RESULT:      -5.0      0.000      0.000
REMARK  2 active torsions:
REMARK  status: ('A' for Active; 'I' for Inactive)
REMARK    1  A    between atoms: C3_3  and  O1_8 
REMARK    2  A    between atoms: C6_6  and  N1_7 
ROOT
HETATM    1  C1  UNL     1      -5.853  15.708  -8.764  1.00  0.00     0.026 A 
HETATM    2  C2  UNL     1      -6.430  15.487 -10.016  1.00  0.00     0.038 A 
HETATM    3  C3  UNL     1      -6.309  14.243 -10.619  1.00  0.00     0.065 A 
HETATM    4  C4  UNL     1      -5.633  13.209  -9.980  1.00  0.00     0.038 A 
HETATM    5  C5  UNL     1      -5.057  13.438  -8.727  1.00  0.00     0.026 A 
HETATM    6  C6  UNL     1      -5.118  14.701  -8.130  1.00  0.00     0.005 A 
ENDROOT
BRANCH   6   7
HETATM    7  N1  UNL     1      -4.643  14.888  -6.826  1.00  0.00    -0.303 NA
HETATM    8  H5  UNL     1      -3.667  14.638  -6.708  1.00  0.00     0.124 HD
HETATM    9  H6  UNL     1      -5.236  14.481  -6.112  1.00  0.00     0.124 HD
ENDBRANCH   6   7
BRANCH   3  10
HETATM   10  O1  UNL     1      -6.888  14.066 -11.840  1.00  0.00    -0.361 OA
HETATM   11  H7  UNL     1      -6.309  14.453 -12.516  1.00  0.00     0.217 HD
ENDBRANCH   3  10
TORSDOF 2
ENDMDL
MODEL 2
REMARK VINA RESULT:      -5.0      2.780      3.681
REMARK  2 active torsions:
REMARK  status: ('A' for Active; 'I' for Inactive)
REMARK    1  A    between atoms: C3_3  and  O1_8 
REMARK    2  A    between atoms: C6_6  and  N1_7 
ROOT
HETATM    1  C1  UNL     1      -5.543  13.154  -9.863  1.00  0.00     0.026 A 
HETATM    2  C2  UNL     1      -4.957  13.425  -8.624  1.00  0.00     0.038 A 
HETATM    3  C3  UNL     1      -5.147  14.664  -8.030  1.00  0.00     0.065 A 
HETATM    4  C4  UNL     1      -5.928  15.634  -8.650  1.00  0.00     0.038 A 
HETATM    5  C5  UNL     1      -6.510  15.356  -9.890  1.00  0.00     0.026 A 
HETATM    6  C6  UNL     1      -6.282  14.134 -10.532  1.00  0.00     0.005 A 
ENDROOT
BRANCH   6   7
HETATM    7  N1  UNL     1      -6.963  13.821 -11.713  1.00  0.00    -0.303 NA
HETATM    8  H5  UNL     1      -6.578  14.271 -12.538  1.00  0.00     0.124 HD
HETATM    9  H6  UNL     1      -7.970  13.930 -11.648  1.00  0.00     0.124 HD
ENDBRANCH   6   7
BRANCH   3  10
HETATM   10  O1  UNL     1      -4.562  14.889  -6.821  1.00  0.00    -0.361 OA
HETATM   11  H7  UNL     1      -5.128  15.489  -6.309  1.00  0.00     0.217 HD
ENDBRANCH   3  10
TORSDOF 2
ENDMDL
MODEL 3
REMARK VINA RESULT:      -5.0      0.547      1.754
REMARK  2 active torsions:
REMARK  status: ('A' for Active; 'I' for Inactive)
REMARK    1  A    between atoms: C3_3  and  O1_8 
REMARK    2  A    between atoms: C6_6  and  N1_7 
ROOT
HETATM    1  C1  UNL     1      -4.930  13.574  -8.460  1.00  0.00     0.026 A 
HETATM    2  C2  UNL     1      -5.550  13.224  -9.661  1.00  0.00     0.038 A 
HETATM    3  C3  UNL     1      -6.561  14.025 -10.173  1.00  0.00     0.065 A 
HETATM    4  C4  UNL     1      -6.951  15.182  -9.509  1.00  0.00     0.038 A 
HETATM    5  C5  UNL     1      -6.327  15.526  -8.306  1.00  0.00     0.026 A 
HETATM    6  C6  UNL     1      -5.347  14.701  -7.745  1.00  0.00     0.005 A 
ENDROOT
BRANCH   6   7
HETATM    7  N1  UNL     1      -4.646  15.113  -6.606  1.00  0.00    -0.303 NA
HETATM    8  H5  UNL     1      -4.190  14.354  -6.111  1.00  0.00     0.124 HD
HETATM    9  H6  UNL     1      -5.184  15.710  -5.986  1.00  0.00     0.124 HD
ENDBRANCH   6   7
BRANCH   3  10
HETATM   10  O1  UNL     1      -7.139  13.650 -11.349  1.00  0.00    -0.361 OA
HETATM   11  H7  UNL     1      -8.077  13.461 -11.186  1.00  0.00     0.217 HD
ENDBRANCH   3  10
TORSDOF 2
ENDMDL
MODEL 4
REMARK VINA RESULT:      -4.7      2.305      2.443
REMARK  2 active torsions:
REMARK  status: ('A' for Active; 'I' for Inactive)
REMARK    1  A    between atoms: C3_3  and  O1_8 
REMARK    2  A    between atoms: C6_6  and  N1_7 
ROOT
HETATM    1  C1  UNL     1      -7.100  14.845  -6.536  1.00  0.00     0.026 A 
HETATM    2  C2  UNL     1      -8.301  14.613  -7.209  1.00  0.00     0.038 A 
HETATM    3  C3  UNL     1      -8.279  14.193  -8.532  1.00  0.00     0.065 A 
HETATM    4  C4  UNL     1      -7.071  13.985  -9.188  1.00  0.00     0.038 A 
HETATM    5  C5  UNL     1      -5.872  14.221  -8.508  1.00  0.00     0.026 A 
HETATM    6  C6  UNL     1      -5.875  14.700  -7.194  1.00  0.00     0.005 A 
ENDROOT
BRANCH   6   7
HETATM    7  N1  UNL     1      -4.675  14.819  -6.485  1.00  0.00    -0.303 NA
HETATM    8  H5  UNL     1      -4.027  14.054  -6.647  1.00  0.00     0.124 HD
HETATM    9  H6  UNL     1      -4.799  15.016  -5.497  1.00  0.00     0.124 HD
ENDBRANCH   6   7
BRANCH   3  10
HETATM   10  O1  UNL     1      -9.472  13.974  -9.153  1.00  0.00    -0.361 OA
HETATM   11  H7  UNL     1      -9.357  13.262  -9.802  1.00  0.00     0.217 HD
ENDBRANCH   3  10
TORSDOF 2
ENDMDL
MODEL 5
REMARK VINA RESULT:      -4.6     19.760     20.769
REMARK  2 active torsions:
REMARK  status: ('A' for Active; 'I' for Inactive)
REMARK    1  A    between atoms: C3_3  and  O1_8 
REMARK    2  A    between atoms: C6_6  and  N1_7 
ROOT
HETATM    1  C1  UNL     1       1.453  -2.221  -2.895  1.00  0.00     0.026 A 
HETATM    2  C2  UNL     1       0.558  -3.142  -2.348  1.00  0.00     0.038 A 
HETATM    3  C3  UNL     1       1.037  -4.198  -1.586  1.00  0.00     0.065 A 
HETATM    4  C4  UNL     1       2.400  -4.339  -1.350  1.00  0.00     0.038 A 
HETATM    5  C5  UNL     1       3.291  -3.414  -1.902  1.00  0.00     0.026 A 
HETATM    6  C6  UNL     1       2.832  -2.377  -2.721  1.00  0.00     0.005 A 
ENDROOT
BRANCH   6   7
HETATM    7  N1  UNL     1       3.716  -1.389  -3.170  1.00  0.00    -0.303 NA
HETATM    8  H5  UNL     1       3.254  -0.547  -3.499  1.00  0.00     0.124 HD
HETATM    9  H6  UNL     1       4.412  -1.729  -3.825  1.00  0.00     0.124 HD
ENDBRANCH   6   7
BRANCH   3  10
HETATM   10  O1  UNL     1       0.131  -5.074  -1.067  1.00  0.00    -0.361 OA
HETATM   11  H7  UNL     1      -0.110  -4.778  -0.175  1.00  0.00     0.217 HD
ENDBRANCH   3  10
TORSDOF 2
ENDMDL
MODEL 6
REMARK VINA RESULT:      -4.6     19.657     20.656
REMARK  2 active torsions:
REMARK  status: ('A' for Active; 'I' for Inactive)
REMARK    1  A    between atoms: C3_3  and  O1_8 
REMARK    2  A    between atoms: C6_6  and  N1_7 
ROOT
HETATM    1  C1  UNL     1       0.633  -2.984  -2.537  1.00  0.00     0.026 A 
HETATM    2  C2  UNL     1       1.580  -2.073  -3.008  1.00  0.00     0.038 A 
HETATM    3  C3  UNL     1       2.913  -2.218  -2.648  1.00  0.00     0.065 A 
HETATM    4  C4  UNL     1       3.315  -3.272  -1.836  1.00  0.00     0.038 A 
HETATM    5  C5  UNL     1       2.361  -4.180  -1.367  1.00  0.00     0.026 A 
HETATM    6  C6  UNL     1       1.006  -4.016  -1.670  1.00  0.00     0.005 A 
ENDROOT
BRANCH   6   7
HETATM    7  N1  UNL     1       0.076  -4.994  -1.296  1.00  0.00    -0.303 NA
HETATM    8  H5  UNL     1       0.176  -5.305  -0.335  1.00  0.00     0.124 HD
HETATM    9  H6  UNL     1       0.011  -5.768  -1.948  1.00  0.00     0.124 HD
ENDBRANCH   6   7
BRANCH   3  10
HETATM   10  O1  UNL     1       3.807  -1.310  -3.131  1.00  0.00    -0.361 OA
HETATM   11  H7  UNL     1       3.636  -0.453  -2.710  1.00  0.00     0.217 HD
ENDBRANCH   3  10
TORSDOF 2
ENDMDL
MODEL 7
REMARK VINA RESULT:      -4.5      2.956      3.224
REMARK  2 active torsions:
REMARK  status: ('A' for Active; 'I' for Inactive)
REMARK    1  A    between atoms: C3_3  and  O1_8 
REMARK    2  A    between atoms: C6_6  and  N1_7 
ROOT
HETATM    1  C1  UNL     1      -7.902  15.516  -9.095  1.00  0.00     0.026 A 
HETATM    2  C2  UNL     1      -6.537  15.789  -8.983  1.00  0.00     0.038 A 
HETATM    3  C3  UNL     1      -5.679  14.817  -8.489  1.00  0.00     0.065 A 
HETATM    4  C4  UNL     1      -6.163  13.567  -8.119  1.00  0.00     0.038 A 
HETATM    5  C5  UNL     1      -7.531  13.301  -8.232  1.00  0.00     0.026 A 
HETATM    6  C6  UNL     1      -8.420  14.287  -8.673  1.00  0.00     0.005 A 
ENDROOT
BRANCH   6   7
HETATM    7  N1  UNL     1      -9.765  13.975  -8.896  1.00  0.00    -0.303 NA
HETATM    8  H5  UNL     1     -10.412  14.640  -8.483  1.00  0.00     0.124 HD
HETATM    9  H6  UNL     1     -10.006  13.015  -8.675  1.00  0.00     0.124 HD
ENDBRANCH   6   7
BRANCH   3  10
HETATM   10  O1  UNL     1      -4.354  15.121  -8.398  1.00  0.00    -0.361 OA
HETATM   11  H7  UNL     1      -3.994  15.210  -9.295  1.00  0.00     0.217 HD
ENDBRANCH   3  10
TORSDOF 2
ENDMDL
MODEL 8
REMARK VINA RESULT:      -4.5     19.990     20.264
REMARK  2 active torsions:
REMARK  status: ('A' for Active; 'I' for Inactive)
REMARK    1  A    between atoms: C3_3  and  O1_8 
REMARK    2  A    between atoms: C6_6  and  N1_7 
ROOT
HETATM    1  C1  UNL     1       2.047  -1.223  -0.231  1.00  0.00     0.026 A 
HETATM    2  C2  UNL     1       0.911  -1.662   0.453  1.00  0.00     0.038 A 
HETATM    3  C3  UNL     1       0.163  -2.712  -0.058  1.00  0.00     0.065 A 
HETATM    4  C4  UNL     1       0.543  -3.343  -1.238  1.00  0.00     0.038 A 
HETATM    5  C5  UNL     1       1.680  -2.898  -1.918  1.00  0.00     0.026 A 
HETATM    6  C6  UNL     1       2.414  -1.803  -1.449  1.00  0.00     0.005 A 
ENDROOT
BRANCH   6   7
HETATM    7  N1  UNL     1       3.615  -1.442  -2.070  1.00  0.00    -0.303 NA
HETATM    8  H5  UNL     1       3.553  -0.584  -2.609  1.00  0.00     0.124 HD
HETATM    9  H6  UNL     1       4.050  -2.196  -2.591  1.00  0.00     0.124 HD
ENDBRANCH   6   7
BRANCH   3  10
HETATM   10  O1  UNL     1      -0.937  -3.112   0.640  1.00  0.00    -0.361 OA
HETATM   11  H7  UNL     1      -1.650  -2.472   0.489  1.00  0.00     0.217 HD
ENDBRANCH   3  10
TORSDOF 2
ENDMDL
MODEL 9
REMARK VINA RESULT:      -4.4     20.041     20.282
REMARK  2 active torsions:
REMARK  status: ('A' for Active; 'I' for Inactive)
REMARK    1  A    between atoms: C3_3  and  O1_8 
REMARK    2  A    between atoms: C6_6  and  N1_7 
ROOT
HETATM    1  C1  UNL     1       0.885  -1.811   0.234  1.00  0.00     0.026 A 
HETATM    2  C2  UNL     1       2.093  -1.329  -0.278  1.00  0.00     0.038 A 
HETATM    3  C3  UNL     1       2.614  -1.878  -1.441  1.00  0.00     0.065 A 
HETATM    4  C4  UNL     1       1.938  -2.892  -2.111  1.00  0.00     0.038 A 
HETATM    5  C5  UNL     1       0.731  -3.369  -1.592  1.00  0.00     0.026 A 
HETATM    6  C6  UNL     1       0.219  -2.870  -0.390  1.00  0.00     0.005 A 
ENDROOT
BRANCH   6   7
HETATM    7  N1  UNL     1      -1.046  -3.268   0.057  1.00  0.00    -0.303 NA
HETATM    8  H5  UNL     1      -1.025  -3.788   0.929  1.00  0.00     0.124 HD
HETATM    9  H6  UNL     1      -1.607  -3.727  -0.653  1.00  0.00     0.124 HD
ENDBRANCH   6   7
BRANCH   3  10
HETATM   10  O1  UNL     1       3.793  -1.380  -1.909  1.00  0.00    -0.361 OA
HETATM   11  H7  UNL     1       4.379  -1.210  -1.155  1.00  0.00     0.217 HD
ENDBRANCH   3  10
TORSDOF 2
ENDMDL
