MODEL 1
REMARK VINA RESULT:      -4.9      0.000      0.000
REMARK  2 active torsions:
REMARK  status: ('A' for Active; 'I' for Inactive)
REMARK    1  A    between atoms: C3_3  and  O1_8 
REMARK    2  A    between atoms: C6_6  and  N1_7 
ROOT
HETATM    1  C1  UNL     1       1.287  -4.521   3.508  1.00  0.00     0.026 A 
HETATM    2  C2  UNL     1       0.900  -4.437   2.169  1.00  0.00     0.038 A 
HETATM    3  C3  UNL     1       0.533  -3.209   1.635  1.00  0.00     0.065 A 
HETATM    4  C4  UNL     1       0.564  -2.060   2.417  1.00  0.00     0.038 A 
HETATM    5  C5  UNL     1       0.951  -2.152   3.757  1.00  0.00     0.026 A 
HETATM    6  C6  UNL     1       1.267  -3.389   4.328  1.00  0.00     0.005 A 
ENDROOT
BRANCH   6   7
HETATM    7  N1  UNL     1       1.767  -3.455   5.634  1.00  0.00    -0.303 NA
HETATM    8  H5  UNL     1       1.832  -4.400   5.999  1.00  0.00     0.124 HD
HETATM    9  H6  UNL     1       1.310  -2.822   6.281  1.00  0.00     0.124 HD
ENDBRANCH   6   7
BRANCH   3  10
HETATM   10  O1  UNL     1       0.165  -3.168   0.324  1.00  0.00    -0.361 OA
HETATM   11  H7  UNL     1      -0.668  -2.675   0.252  1.00  0.00     0.217 HD
ENDBRANCH   3  10
TORSDOF 2
ENDMDL
MODEL 2
REMARK VINA RESULT:      -4.7      2.781      3.264
REMARK  2 active torsions:
REMARK  status: ('A' for Active; 'I' for Inactive)
REMARK    1  A    between atoms: C3_3  and  O1_8 
REMARK    2  A    between atoms: C6_6  and  N1_7 
ROOT
HETATM    1  C1  UNL     1       0.906  -4.509   2.352  1.00  0.00     0.026 A 
HETATM    2  C2  UNL     1       1.159  -4.598   3.723  1.00  0.00     0.038 A 
HETATM    3  C3  UNL     1       1.142  -3.450   4.501  1.00  0.00     0.065 A 
HETATM    4  C4  UNL     1       0.860  -2.213   3.932  1.00  0.00     0.038 A 
HETATM    5  C5  UNL     1       0.610  -2.131   2.559  1.00  0.00     0.026 A 
HETATM    6  C6  UNL     1       0.680  -3.268   1.748  1.00  0.00     0.005 A 
ENDROOT
BRANCH   6   7
HETATM    7  N1  UNL     1       0.312  -3.196   0.400  1.00  0.00    -0.303 NA
HETATM    8  H5  UNL     1      -0.692  -3.149   0.254  1.00  0.00     0.124 HD
HETATM    9  H6  UNL     1       0.755  -3.897  -0.184  1.00  0.00     0.124 HD
ENDBRANCH   6   7
BRANCH   3  10
HETATM   10  O1  UNL     1       1.391  -3.579   5.835  1.00  0.00    -0.361 OA
HETATM   11  H7  UNL     1       0.982  -2.832   6.300  1.00  0.00     0.217 HD
ENDBRANCH   3  10
TORSDOF 2
ENDMDL
MODEL 3
REMARK VINA RESULT:      -4.0      8.776      9.463
REMARK  2 active torsions:
REMARK  status: ('A' for Active; 'I' for Inactive)
REMARK    1  A    between atoms: C3_3  and  O1_8 
REMARK    2  A    between atoms: C6_6  and  N1_7 
ROOT
HETATM    1  C1  UNL     1       5.299  -2.741  -3.521  1.00  0.00     0.026 A 
HETATM    2  C2  UNL     1       5.894  -3.949  -3.891  1.00  0.00     0.038 A 
HETATM    3  C3  UNL     1       6.257  -4.160  -5.213  1.00  0.00     0.065 A 
HETATM    4  C4  UNL     1       6.050  -3.173  -6.170  1.00  0.00     0.038 A 
HETATM    5  C5  UNL     1       5.453  -1.967  -5.793  1.00  0.00     0.026 A 
HETATM    6  C6  UNL     1       5.026  -1.758  -4.477  1.00  0.00     0.005 A 
ENDROOT
BRANCH   6   7
HETATM    7  N1  UNL     1       4.539  -0.506  -4.084  1.00  0.00    -0.303 NA
HETATM    8  H5  UNL     1       4.707   0.228  -4.764  1.00  0.00     0.124 HD
HETATM    9  H6  UNL     1       4.816  -0.235  -3.146  1.00  0.00     0.124 HD
ENDBRANCH   6   7
BRANCH   3  10
HETATM   10  O1  UNL     1       6.838  -5.350  -5.533  1.00  0.00    -0.361 OA
HETATM   11  H7  UNL     1       6.201  -5.878  -6.041  1.00  0.00     0.217 HD
ENDBRANCH   3  10
TORSDOF 2
ENDMDL
MODEL 4
REMARK VINA RESULT:      -4.0      2.381      2.881
REMARK  2 active torsions:
REMARK  status: ('A' for Active; 'I' for Inactive)
REMARK    1  A    between atoms: C3_3  and  O1_8 
REMARK    2  A    between atoms: C6_6  and  N1_7 
ROOT
HETATM    1  C1  UNL     1       1.020  -4.768   2.757  1.00  0.00     0.026 A 
HETATM    2  C2  UNL     1       0.314  -3.663   3.238  1.00  0.00     0.038 A 
HETATM    3  C3  UNL     1       0.115  -2.563   2.417  1.00  0.00     0.065 A 
HETATM    4  C4  UNL     1       0.598  -2.556   1.113  1.00  0.00     0.038 A 
HETATM    5  C5  UNL     1       1.306  -3.665   0.638  1.00  0.00     0.026 A 
HETATM    6  C6  UNL     1       1.567  -4.759   1.470  1.00  0.00     0.005 A 
ENDROOT
BRANCH   6   7
HETATM    7  N1  UNL     1       2.170  -5.910   0.951  1.00  0.00    -0.303 NA
HETATM    8  H5  UNL     1       2.272  -5.898  -0.059  1.00  0.00     0.124 HD
HETATM    9  H6  UNL     1       1.760  -6.775   1.287  1.00  0.00     0.124 HD
ENDBRANCH   6   7
BRANCH   3  10
HETATM   10  O1  UNL     1      -0.581  -1.506   2.922  1.00  0.00    -0.361 OA
HETATM   11  H7  UNL     1      -1.523  -1.741   2.950  1.00  0.00     0.217 HD
ENDBRANCH   3  10
TORSDOF 2
ENDMDL
MODEL 5
REMARK VINA RESULT:      -3.9     10.068     11.039
REMARK  2 active torsions:
REMARK  status: ('A' for Active; 'I' for Inactive)
REMARK    1  A    between atoms: C3_3  and  O1_8 
REMARK    2  A    between atoms: C6_6  and  N1_7 
ROOT
HETATM    1  C1  UNL     1       1.866 -10.395  -3.264  1.00  0.00     0.026 A 
HETATM    2  C2  UNL     1       2.295 -11.703  -3.502  1.00  0.00     0.038 A 
HETATM    3  C3  UNL     1       1.994 -12.316  -4.710  1.00  0.00     0.065 A 
HETATM    4  C4  UNL     1       1.284 -11.635  -5.692  1.00  0.00     0.038 A 
HETATM    5  C5  UNL     1       0.856 -10.326  -5.446  1.00  0.00     0.026 A 
HETATM    6  C6  UNL     1       1.099  -9.713  -4.213  1.00  0.00     0.005 A 
ENDROOT
BRANCH   6   7
HETATM    7  N1  UNL     1       0.773  -8.365  -4.020  1.00  0.00    -0.303 NA
HETATM    8  H5  UNL     1       0.224  -8.194  -3.183  1.00  0.00     0.124 HD
HETATM    9  H6  UNL     1       0.377  -7.918  -4.840  1.00  0.00     0.124 HD
ENDBRANCH   6   7
BRANCH   3  10
HETATM   10  O1  UNL     1       2.433 -13.591  -4.905  1.00  0.00    -0.361 OA
HETATM   11  H7  UNL     1       1.790 -14.203  -4.513  1.00  0.00     0.217 HD
ENDBRANCH   3  10
TORSDOF 2
ENDMDL
MODEL 6
REMARK VINA RESULT:      -3.9     16.729     16.895
REMARK  2 active torsions:
REMARK  status: ('A' for Active; 'I' for Inactive)
REMARK    1  A    between atoms: C3_3  and  O1_8 
REMARK    2  A    between atoms: C6_6  and  N1_7 
ROOT
HETATM    1  C1  UNL     1      13.094  -6.365  -7.892  1.00  0.00     0.026 A 
HETATM    2  C2  UNL     1      12.754  -5.337  -8.774  1.00  0.00     0.038 A 
HETATM    3  C3  UNL     1      13.388  -4.106  -8.674  1.00  0.00     0.065 A 
HETATM    4  C4  UNL     1      14.370  -3.893  -7.713  1.00  0.00     0.038 A 
HETATM    5  C5  UNL     1      14.704  -4.926  -6.832  1.00  0.00     0.026 A 
HETATM    6  C6  UNL     1      14.035  -6.154  -6.880  1.00  0.00     0.005 A 
ENDROOT
BRANCH   6   7
HETATM    7  N1  UNL     1      14.457  -7.218  -6.076  1.00  0.00    -0.303 NA
HETATM    8  H5  UNL     1      15.382  -7.087  -5.679  1.00  0.00     0.124 HD
HETATM    9  H6  UNL     1      14.349  -8.129  -6.511  1.00  0.00     0.124 HD
ENDBRANCH   6   7
BRANCH   3  10
HETATM   10  O1  UNL     1      13.030  -3.130  -9.554  1.00  0.00    -0.361 OA
HETATM   11  H7  UNL     1      12.503  -3.530 -10.264  1.00  0.00     0.217 HD
ENDBRANCH   3  10
TORSDOF 2
ENDMDL
MODEL 7
REMARK VINA RESULT:      -3.9      2.125      2.638
REMARK  2 active torsions:
REMARK  status: ('A' for Active; 'I' for Inactive)
REMARK    1  A    between atoms: C3_3  and  O1_8 
REMARK    2  A    between atoms: C6_6  and  N1_7 
ROOT
HETATM    1  C1  UNL     1       0.467  -3.518   3.323  1.00  0.00     0.026 A 
HETATM    2  C2  UNL     1       1.196  -4.635   2.910  1.00  0.00     0.038 A 
HETATM    3  C3  UNL     1       1.593  -4.746   1.585  1.00  0.00     0.065 A 
HETATM    4  C4  UNL     1       1.287  -3.747   0.668  1.00  0.00     0.038 A 
HETATM    5  C5  UNL     1       0.556  -2.632   1.088  1.00  0.00     0.026 A 
HETATM    6  C6  UNL     1       0.096  -2.530   2.405  1.00  0.00     0.005 A 
ENDROOT
BRANCH   6   7
HETATM    7  N1  UNL     1      -0.530  -1.358   2.845  1.00  0.00    -0.303 NA
HETATM    8  H5  UNL     1      -1.057  -0.881   2.120  1.00  0.00     0.124 HD
HETATM    9  H6  UNL     1       0.085  -0.730   3.352  1.00  0.00     0.124 HD
ENDBRANCH   6   7
BRANCH   3  10
HETATM   10  O1  UNL     1       2.305  -5.850   1.222  1.00  0.00    -0.361 OA
HETATM   11  H7  UNL     1       1.708  -6.469   0.771  1.00  0.00     0.217 HD
ENDBRANCH   3  10
TORSDOF 2
ENDMDL
MODEL 8
REMARK VINA RESULT:      -3.9     16.906     17.193
REMARK  2 active torsions:
REMARK  status: ('A' for Active; 'I' for Inactive)
REMARK    1  A    between atoms: C3_3  and  O1_8 
REMARK    2  A    between atoms: C6_6  and  N1_7 
ROOT
HETATM    1  C1  UNL     1      14.384  -3.852  -7.775  1.00  0.00     0.026 A 
HETATM    2  C2  UNL     1      14.702  -4.869  -6.872  1.00  0.00     0.038 A 
HETATM    3  C3  UNL     1      14.040  -6.086  -6.946  1.00  0.00     0.065 A 
HETATM    4  C4  UNL     1      13.074  -6.309  -7.921  1.00  0.00     0.038 A 
HETATM    5  C5  UNL     1      12.761  -5.286  -8.821  1.00  0.00     0.026 A 
HETATM    6  C6  UNL     1      13.375  -4.033  -8.726  1.00  0.00     0.005 A 
ENDROOT
BRANCH   6   7
HETATM    7  N1  UNL     1      13.142  -3.058  -9.702  1.00  0.00    -0.303 NA
HETATM    8  H5  UNL     1      13.673  -3.201 -10.556  1.00  0.00     0.124 HD
HETATM    9  H6  UNL     1      13.215  -2.107  -9.357  1.00  0.00     0.124 HD
ENDBRANCH   6   7
BRANCH   3  10
HETATM   10  O1  UNL     1      14.380  -7.054  -6.048  1.00  0.00    -0.361 OA
HETATM   11  H7  UNL     1      14.700  -6.626  -5.238  1.00  0.00     0.217 HD
ENDBRANCH   3  10
TORSDOF 2
ENDMDL
MODEL 9
REMARK VINA RESULT:      -3.9      8.823      9.524
REMARK  2 active torsions:
REMARK  status: ('A' for Active; 'I' for Inactive)
REMARK    1  A    between atoms: C3_3  and  O1_8 
REMARK    2  A    between atoms: C6_6  and  N1_7 
ROOT
HETATM    1  C1  UNL     1       5.830  -3.778  -3.850  1.00  0.00     0.026 A 
HETATM    2  C2  UNL     1       5.236  -2.541  -3.588  1.00  0.00     0.038 A 
HETATM    3  C3  UNL     1       5.060  -1.631  -4.620  1.00  0.00     0.065 A 
HETATM    4  C4  UNL     1       5.456  -1.944  -5.916  1.00  0.00     0.038 A 
HETATM    5  C5  UNL     1       6.051  -3.184  -6.170  1.00  0.00     0.026 A 
HETATM    6  C6  UNL     1       6.289  -4.091  -5.133  1.00  0.00     0.005 A 
ENDROOT
BRANCH   6   7
HETATM    7  N1  UNL     1       6.775  -5.373  -5.415  1.00  0.00    -0.303 NA
HETATM    8  H5  UNL     1       6.585  -5.681  -6.364  1.00  0.00     0.124 HD
HETATM    9  H6  UNL     1       6.519  -6.070  -4.724  1.00  0.00     0.124 HD
ENDBRANCH   6   7
BRANCH   3  10
HETATM   10  O1  UNL     1       4.475  -0.436  -4.325  1.00  0.00    -0.361 OA
HETATM   11  H7  UNL     1       4.877  -0.086  -3.514  1.00  0.00     0.217 HD
ENDBRANCH   3  10
TORSDOF 2
ENDMDL
MODEL 10
REMARK VINA RESULT:      -3.9      9.959     10.865
REMARK  2 active torsions:
REMARK  status: ('A' for Active; 'I' for Inactive)
REMARK    1  A    between atoms: C3_3  and  O1_8 
REMARK    2  A    between atoms: C6_6  and  N1_7 
ROOT
HETATM    1  C1  UNL     1       1.117 -10.206  -5.252  1.00  0.00     0.026 A 
HETATM    2  C2  UNL     1       0.749 -11.520  -5.550  1.00  0.00     0.038 A 
HETATM    3  C3  UNL     1      -0.137 -12.192  -4.720  1.00  0.00     0.065 A 
HETATM    4  C4  UNL     1      -0.676 -11.562  -3.604  1.00  0.00     0.038 A 
HETATM    5  C5  UNL     1      -0.303 -10.247  -3.311  1.00  0.00     0.026 A 
HETATM    6  C6  UNL     1       0.634  -9.575  -4.102  1.00  0.00     0.005 A 
ENDROOT
BRANCH   6   7
HETATM    7  N1  UNL     1       0.911  -8.223  -3.870  1.00  0.00    -0.303 NA
HETATM    8  H5  UNL     1       0.345  -7.811  -3.135  1.00  0.00     0.124 HD
HETATM    9  H6  UNL     1       0.922  -7.656  -4.712  1.00  0.00     0.124 HD
ENDBRANCH   6   7
BRANCH   3  10
HETATM   10  O1  UNL     1      -0.473 -13.471  -5.047  1.00  0.00    -0.361 OA
HETATM   11  H7  UNL     1       0.236 -13.848  -5.591  1.00  0.00     0.217 HD
ENDBRANCH   3  10
TORSDOF 2
ENDMDL
MODEL 11
REMARK VINA RESULT:      -3.8      9.899     10.889
REMARK  2 active torsions:
REMARK  status: ('A' for Active; 'I' for Inactive)
REMARK    1  A    between atoms: C3_3  and  O1_8 
REMARK    2  A    between atoms: C6_6  and  N1_7 
ROOT
HETATM    1  C1  UNL     1       0.066 -12.023  -4.914  1.00  0.00     0.026 A 
HETATM    2  C2  UNL     1      -0.668 -11.676  -3.778  1.00  0.00     0.038 A 
HETATM    3  C3  UNL     1      -0.445 -10.452  -3.164  1.00  0.00     0.065 A 
HETATM    4  C4  UNL     1       0.490  -9.561  -3.678  1.00  0.00     0.038 A 
HETATM    5  C5  UNL     1       1.222  -9.917  -4.815  1.00  0.00     0.026 A 
HETATM    6  C6  UNL     1       1.054 -11.169  -5.414  1.00  0.00     0.005 A 
ENDROOT
BRANCH   6   7
HETATM    7  N1  UNL     1       1.703 -11.468  -6.617  1.00  0.00    -0.303 NA
HETATM    8  H5  UNL     1       2.198 -10.679  -7.020  1.00  0.00     0.124 HD
HETATM    9  H6  UNL     1       1.114 -11.942  -7.294  1.00  0.00     0.124 HD
ENDBRANCH   6   7
BRANCH   3  10
HETATM   10  O1  UNL     1      -1.184 -10.148  -2.060  1.00  0.00    -0.361 OA
HETATM   11  H7  UNL     1      -0.685  -9.515  -1.518  1.00  0.00     0.217 HD
ENDBRANCH   3  10
TORSDOF 2
ENDMDL
MODEL 12
REMARK VINA RESULT:      -3.8      9.791     10.825
REMARK  2 active torsions:
REMARK  status: ('A' for Active; 'I' for Inactive)
REMARK    1  A    between atoms: C3_3  and  O1_8 
REMARK    2  A    between atoms: C6_6  and  N1_7 
ROOT
HETATM    1  C1  UNL     1       0.382  -9.708  -3.749  1.00  0.00     0.026 A 
HETATM    2  C2  UNL     1       1.085 -10.047  -4.907  1.00  0.00     0.038 A 
HETATM    3  C3  UNL     1       0.837 -11.260  -5.533  1.00  0.00     0.065 A 
HETATM    4  C4  UNL     1      -0.118 -12.135  -5.026  1.00  0.00     0.038 A 
HETATM    5  C5  UNL     1      -0.817 -11.790  -3.866  1.00  0.00     0.026 A 
HETATM    6  C6  UNL     1      -0.539 -10.599  -3.188  1.00  0.00     0.005 A 
ENDROOT
BRANCH   6   7
HETATM    7  N1  UNL     1      -1.324 -10.208  -2.098  1.00  0.00    -0.303 NA
HETATM    8  H5  UNL     1      -1.010  -9.350  -1.655  1.00  0.00     0.124 HD
HETATM    9  H6  UNL     1      -1.493 -10.949  -1.427  1.00  0.00     0.124 HD
ENDBRANCH   6   7
BRANCH   3  10
HETATM   10  O1  UNL     1       1.541 -11.553  -6.662  1.00  0.00    -0.361 OA
HETATM   11  H7  UNL     1       2.429 -11.848  -6.405  1.00  0.00     0.217 HD
ENDBRANCH   3  10
TORSDOF 2
ENDMDL
MODEL 13
REMARK VINA RESULT:      -3.8      9.908     11.012
REMARK  2 active torsions:
REMARK  status: ('A' for Active; 'I' for Inactive)
REMARK    1  A    between atoms: C3_3  and  O1_8 
REMARK    2  A    between atoms: C6_6  and  N1_7 
ROOT
HETATM    1  C1  UNL     1       1.135  -9.948  -4.805  1.00  0.00     0.026 A 
HETATM    2  C2  UNL     1       0.426  -9.614  -3.649  1.00  0.00     0.038 A 
HETATM    3  C3  UNL     1      -0.516 -10.496  -3.141  1.00  0.00     0.065 A 
HETATM    4  C4  UNL     1      -0.751 -11.717  -3.763  1.00  0.00     0.038 A 
HETATM    5  C5  UNL     1      -0.038 -12.045  -4.920  1.00  0.00     0.026 A 
HETATM    6  C6  UNL     1       0.873 -11.144  -5.481  1.00  0.00     0.005 A 
ENDROOT
BRANCH   6   7
HETATM    7  N1  UNL     1       1.666 -11.528  -6.568  1.00  0.00    -0.303 NA
HETATM    8  H5  UNL     1       1.140 -11.677  -7.424  1.00  0.00     0.124 HD
HETATM    9  H6  UNL     1       2.298 -12.296  -6.364  1.00  0.00     0.124 HD
ENDBRANCH   6   7
BRANCH   3  10
HETATM   10  O1  UNL     1      -1.185 -10.134  -2.010  1.00  0.00    -0.361 OA
HETATM   11  H7  UNL     1      -1.815  -9.431  -2.234  1.00  0.00     0.217 HD
ENDBRANCH   3  10
TORSDOF 2
ENDMDL
MODEL 14
REMARK VINA RESULT:      -3.7     16.911     17.359
REMARK  2 active torsions:
REMARK  status: ('A' for Active; 'I' for Inactive)
REMARK    1  A    between atoms: C3_3  and  O1_8 
REMARK    2  A    between atoms: C6_6  and  N1_7 
ROOT
HETATM    1  C1  UNL     1      12.320  -6.613  -8.860  1.00  0.00     0.026 A 
HETATM    2  C2  UNL     1      13.007  -5.666  -8.096  1.00  0.00     0.038 A 
HETATM    3  C3  UNL     1      14.056  -6.070  -7.283  1.00  0.00     0.065 A 
HETATM    4  C4  UNL     1      14.440  -7.406  -7.233  1.00  0.00     0.038 A 
HETATM    5  C5  UNL     1      13.746  -8.347  -7.999  1.00  0.00     0.026 A 
HETATM    6  C6  UNL     1      12.649  -7.969  -8.779  1.00  0.00     0.005 A 
ENDROOT
BRANCH   6   7
HETATM    7  N1  UNL     1      12.038  -8.895  -9.632  1.00  0.00    -0.303 NA
HETATM    8  H5  UNL     1      11.318  -9.451  -9.182  1.00  0.00     0.124 HD
HETATM    9  H6  UNL     1      12.694  -9.465 -10.157  1.00  0.00     0.124 HD
ENDBRANCH   6   7
BRANCH   3  10
HETATM   10  O1  UNL     1      14.704  -5.117  -6.556  1.00  0.00    -0.361 OA
HETATM   11  H7  UNL     1      14.224  -4.278  -6.648  1.00  0.00     0.217 HD
ENDBRANCH   3  10
TORSDOF 2
ENDMDL
MODEL 15
REMARK VINA RESULT:      -3.6     16.931     16.990
REMARK  2 active torsions:
REMARK  status: ('A' for Active; 'I' for Inactive)
REMARK    1  A    between atoms: C3_3  and  O1_8 
REMARK    2  A    between atoms: C6_6  and  N1_7 
ROOT
HETATM    1  C1  UNL     1      14.344  -6.040  -7.061  1.00  0.00     0.026 A 
HETATM    2  C2  UNL     1      13.726  -7.179  -7.582  1.00  0.00     0.038 A 
HETATM    3  C3  UNL     1      12.792  -7.050  -8.600  1.00  0.00     0.065 A 
HETATM    4  C4  UNL     1      12.478  -5.798  -9.118  1.00  0.00     0.038 A 
HETATM    5  C5  UNL     1      13.099  -4.663  -8.591  1.00  0.00     0.026 A 
HETATM    6  C6  UNL     1      13.999  -4.767  -7.525  1.00  0.00     0.005 A 
ENDROOT
BRANCH   6   7
HETATM    7  N1  UNL     1      14.704  -3.640  -7.085  1.00  0.00    -0.303 NA
HETATM    8  H5  UNL     1      14.556  -3.424  -6.105  1.00  0.00     0.124 HD
HETATM    9  H6  UNL     1      14.592  -2.827  -7.682  1.00  0.00     0.124 HD
ENDBRANCH   6   7
BRANCH   3  10
HETATM   10  O1  UNL     1      12.214  -8.185  -9.083  1.00  0.00    -0.361 OA
HETATM   11  H7  UNL     1      12.344  -8.214 -10.044  1.00  0.00     0.217 HD
ENDBRANCH   3  10
TORSDOF 2
ENDMDL
MODEL 16
REMARK VINA RESULT:      -3.5      9.757     10.624
REMARK  2 active torsions:
REMARK  status: ('A' for Active; 'I' for Inactive)
REMARK    1  A    between atoms: C3_3  and  O1_8 
REMARK    2  A    between atoms: C6_6  and  N1_7 
ROOT
HETATM    1  C1  UNL     1      -3.152 -10.330  -1.806  1.00  0.00     0.026 A 
HETATM    2  C2  UNL     1      -3.358 -11.486  -2.562  1.00  0.00     0.038 A 
HETATM    3  C3  UNL     1      -4.546 -11.649  -3.260  1.00  0.00     0.065 A 
HETATM    4  C4  UNL     1      -5.527 -10.664  -3.227  1.00  0.00     0.038 A 
HETATM    5  C5  UNL     1      -5.314  -9.510  -2.467  1.00  0.00     0.026 A 
HETATM    6  C6  UNL     1      -4.148  -9.354  -1.710  1.00  0.00     0.005 A 
ENDROOT
BRANCH   6   7
HETATM    7  N1  UNL     1      -3.892  -8.146  -1.051  1.00  0.00    -0.303 NA
HETATM    8  H5  UNL     1      -3.159  -7.593  -1.483  1.00  0.00     0.124 HD
HETATM    9  H6  UNL     1      -3.762  -8.245  -0.050  1.00  0.00     0.124 HD
ENDBRANCH   6   7
BRANCH   3  10
HETATM   10  O1  UNL     1      -4.708 -12.789  -3.987  1.00  0.00    -0.361 OA
HETATM   11  H7  UNL     1      -3.890 -13.309  -3.935  1.00  0.00     0.217 HD
ENDBRANCH   3  10
TORSDOF 2
ENDMDL
MODEL 17
REMARK VINA RESULT:      -3.5     16.941     17.451
REMARK  2 active torsions:
REMARK  status: ('A' for Active; 'I' for Inactive)
REMARK    1  A    between atoms: C3_3  and  O1_8 
REMARK    2  A    between atoms: C6_6  and  N1_7 
ROOT
HETATM    1  C1  UNL     1      12.904  -6.234  -8.344  1.00  0.00     0.026 A 
HETATM    2  C2  UNL     1      12.937  -5.111  -7.515  1.00  0.00     0.038 A 
HETATM    3  C3  UNL     1      13.326  -3.884  -8.035  1.00  0.00     0.065 A 
HETATM    4  C4  UNL     1      13.667  -3.760  -9.377  1.00  0.00     0.038 A 
HETATM    5  C5  UNL     1      13.632  -4.890 -10.201  1.00  0.00     0.026 A 
HETATM    6  C6  UNL     1      13.300  -6.145  -9.682  1.00  0.00     0.005 A 
ENDROOT
BRANCH   6   7
HETATM    7  N1  UNL     1      13.152  -7.244 -10.536  1.00  0.00    -0.303 NA
HETATM    8  H5  UNL     1      12.551  -7.062 -11.335  1.00  0.00     0.124 HD
HETATM    9  H6  UNL     1      12.909  -8.105 -10.059  1.00  0.00     0.124 HD
ENDBRANCH   6   7
BRANCH   3  10
HETATM   10  O1  UNL     1      13.344  -2.811  -7.195  1.00  0.00    -0.361 OA
HETATM   11  H7  UNL     1      13.173  -3.122  -6.292  1.00  0.00     0.217 HD
ENDBRANCH   3  10
TORSDOF 2
ENDMDL
MODEL 18
REMARK VINA RESULT:      -3.5     11.843     12.852
REMARK  2 active torsions:
REMARK  status: ('A' for Active; 'I' for Inactive)
REMARK    1  A    between atoms: C3_3  and  O1_8 
REMARK    2  A    between atoms: C6_6  and  N1_7 
ROOT
HETATM    1  C1  UNL     1       1.667 -11.854  -6.710  1.00  0.00     0.026 A 
HETATM    2  C2  UNL     1       1.846 -13.239  -6.715  1.00  0.00     0.038 A 
HETATM    3  C3  UNL     1       1.931 -13.926  -5.513  1.00  0.00     0.065 A 
HETATM    4  C4  UNL     1       1.825 -13.250  -4.302  1.00  0.00     0.038 A 
HETATM    5  C5  UNL     1       1.647 -11.863  -4.305  1.00  0.00     0.026 A 
HETATM    6  C6  UNL     1       1.617 -11.146  -5.505  1.00  0.00     0.005 A 
ENDROOT
BRANCH   6   7
HETATM    7  N1  UNL     1       1.321  -9.778  -5.502  1.00  0.00    -0.303 NA
HETATM    8  H5  UNL     1       1.523  -9.319  -4.620  1.00  0.00     0.124 HD
HETATM    9  H6  UNL     1       0.393  -9.559  -5.848  1.00  0.00     0.124 HD
ENDBRANCH   6   7
BRANCH   3  10
HETATM   10  O1  UNL     1       2.103 -15.277  -5.560  1.00  0.00    -0.361 OA
HETATM   11  H7  UNL     1       2.648 -15.546  -4.804  1.00  0.00     0.217 HD
ENDBRANCH   3  10
TORSDOF 2
ENDMDL
MODEL 19
REMARK VINA RESULT:      -3.4     16.984     17.433
REMARK  2 active torsions:
REMARK  status: ('A' for Active; 'I' for Inactive)
REMARK    1  A    between atoms: C3_3  and  O1_8 
REMARK    2  A    between atoms: C6_6  and  N1_7 
ROOT
HETATM    1  C1  UNL     1      13.569  -4.818  -9.787  1.00  0.00     0.026 A 
HETATM    2  C2  UNL     1      13.793  -3.534 -10.288  1.00  0.00     0.038 A 
HETATM    3  C3  UNL     1      13.697  -2.439  -9.441  1.00  0.00     0.065 A 
HETATM    4  C4  UNL     1      13.395  -2.610  -8.094  1.00  0.00     0.038 A 
HETATM    5  C5  UNL     1      13.171  -3.899  -7.601  1.00  0.00     0.026 A 
HETATM    6  C6  UNL     1      13.206  -5.009  -8.451  1.00  0.00     0.005 A 
ENDROOT
BRANCH   6   7
HETATM    7  N1  UNL     1      13.099  -6.302  -7.926  1.00  0.00    -0.303 NA
HETATM    8  H5  UNL     1      13.995  -6.744  -7.744  1.00  0.00     0.124 HD
HETATM    9  H6  UNL     1      12.469  -6.905  -8.446  1.00  0.00     0.124 HD
ENDBRANCH   6   7
BRANCH   3  10
HETATM   10  O1  UNL     1      13.925  -1.203  -9.967  1.00  0.00    -0.361 OA
HETATM   11  H7  UNL     1      14.704  -0.820  -9.532  1.00  0.00     0.217 HD
ENDBRANCH   3  10
TORSDOF 2
ENDMDL
MODEL 20
REMARK VINA RESULT:      -3.3     11.007     12.015
REMARK  2 active torsions:
REMARK  status: ('A' for Active; 'I' for Inactive)
REMARK    1  A    between atoms: C3_3  and  O1_8 
REMARK    2  A    between atoms: C6_6  and  N1_7 
ROOT
HETATM    1  C1  UNL     1       0.491 -13.062  -5.809  1.00  0.00     0.026 A 
HETATM    2  C2  UNL     1       0.973 -11.778  -6.072  1.00  0.00     0.038 A 
HETATM    3  C3  UNL     1       0.722 -10.752  -5.172  1.00  0.00     0.065 A 
HETATM    4  C4  UNL     1       0.009 -10.994  -4.003  1.00  0.00     0.038 A 
HETATM    5  C5  UNL     1      -0.471 -12.282  -3.747  1.00  0.00     0.026 A 
HETATM    6  C6  UNL     1      -0.279 -13.316  -4.670  1.00  0.00     0.005 A 
ENDROOT
BRANCH   6   7
HETATM    7  N1  UNL     1      -0.658 -14.625  -4.351  1.00  0.00    -0.303 NA
HETATM    8  H5  UNL     1      -0.110 -15.335  -4.826  1.00  0.00     0.124 HD
HETATM    9  H6  UNL     1      -1.656 -14.792  -4.426  1.00  0.00     0.124 HD
ENDBRANCH   6   7
BRANCH   3  10
HETATM   10  O1  UNL     1       1.211  -9.514  -5.463  1.00  0.00    -0.361 OA
HETATM   11  H7  UNL     1       0.464  -8.915  -5.620  1.00  0.00     0.217 HD
ENDBRANCH   3  10
TORSDOF 2
ENDMDL
