MODEL 1
REMARK VINA RESULT:      -3.5      0.000      0.000
REMARK  2 active torsions:
REMARK  status: ('A' for Active; 'I' for Inactive)
REMARK    1  A    between atoms: C3_3  and  O1_8 
REMARK    2  A    between atoms: C6_6  and  N1_7 
ROOT
HETATM    1  C1  UNL     1     -13.680 -14.298  -1.591  1.00  0.00     0.026 A 
HETATM    2  C2  UNL     1     -12.622 -15.001  -1.012  1.00  0.00     0.038 A 
HETATM    3  C3  UNL     1     -11.341 -14.864  -1.528  1.00  0.00     0.065 A 
HETATM    4  C4  UNL     1     -11.098 -14.020  -2.606  1.00  0.00     0.038 A 
HETATM    5  C5  UNL     1     -12.163 -13.320  -3.181  1.00  0.00     0.026 A 
HETATM    6  C6  UNL     1     -13.470 -13.490  -2.713  1.00  0.00     0.005 A 
ENDROOT
BRANCH   6   7
HETATM    7  N1  UNL     1     -14.508 -12.698  -3.215  1.00  0.00    -0.303 NA
HETATM    8  H5  UNL     1     -15.036 -13.141  -3.961  1.00  0.00     0.124 HD
HETATM    9  H6  UNL     1     -14.225 -11.753  -3.452  1.00  0.00     0.124 HD
ENDBRANCH   6   7
BRANCH   3  10
HETATM   10  O1  UNL     1     -10.334 -15.565  -0.933  1.00  0.00    -0.361 OA
HETATM   11  H7  UNL     1     -10.726 -16.223  -0.337  1.00  0.00     0.217 HD
ENDBRANCH   3  10
TORSDOF 2
ENDMDL
MODEL 2
REMARK VINA RESULT:      -3.4      0.093      1.706
REMARK  2 active torsions:
REMARK  status: ('A' for Active; 'I' for Inactive)
REMARK    1  A    between atoms: C3_3  and  O1_8 
REMARK    2  A    between atoms: C6_6  and  N1_7 
ROOT
HETATM    1  C1  UNL     1     -12.186 -13.344  -3.192  1.00  0.00     0.026 A 
HETATM    2  C2  UNL     1     -11.138 -14.093  -2.654  1.00  0.00     0.038 A 
HETATM    3  C3  UNL     1     -11.375 -14.931  -1.573  1.00  0.00     0.065 A 
HETATM    4  C4  UNL     1     -12.651 -15.043  -1.032  1.00  0.00     0.038 A 
HETATM    5  C5  UNL     1     -13.695 -14.289  -1.575  1.00  0.00     0.026 A 
HETATM    6  C6  UNL     1     -13.463 -13.396  -2.626  1.00  0.00     0.005 A 
ENDROOT
BRANCH   6   7
HETATM    7  N1  UNL     1     -14.534 -12.736  -3.239  1.00  0.00    -0.303 NA
HETATM    8  H5  UNL     1     -14.250 -11.970  -3.842  1.00  0.00     0.124 HD
HETATM    9  H6  UNL     1     -15.273 -12.469  -2.598  1.00  0.00     0.124 HD
ENDBRANCH   6   7
BRANCH   3  10
HETATM   10  O1  UNL     1     -10.327 -15.648  -1.078  1.00  0.00    -0.361 OA
HETATM   11  H7  UNL     1     -10.019 -16.260  -1.765  1.00  0.00     0.217 HD
ENDBRANCH   3  10
TORSDOF 2
ENDMDL
MODEL 3
REMARK VINA RESULT:      -3.4      2.778      3.262
REMARK  2 active torsions:
REMARK  status: ('A' for Active; 'I' for Inactive)
REMARK    1  A    between atoms: C3_3  and  O1_8 
REMARK    2  A    between atoms: C6_6  and  N1_7 
ROOT
HETATM    1  C1  UNL     1     -12.700 -15.012  -1.089  1.00  0.00     0.026 A 
HETATM    2  C2  UNL     1     -13.715 -14.235  -1.651  1.00  0.00     0.038 A 
HETATM    3  C3  UNL     1     -13.426 -13.386  -2.710  1.00  0.00     0.065 A 
HETATM    4  C4  UNL     1     -12.136 -13.312  -3.226  1.00  0.00     0.038 A 
HETATM    5  C5  UNL     1     -11.125 -14.091  -2.657  1.00  0.00     0.026 A 
HETATM    6  C6  UNL     1     -11.385 -14.909  -1.552  1.00  0.00     0.005 A 
ENDROOT
BRANCH   6   7
HETATM    7  N1  UNL     1     -10.396 -15.773  -1.067  1.00  0.00    -0.303 NA
HETATM    8  H5  UNL     1      -9.598 -15.293  -0.663  1.00  0.00     0.124 HD
HETATM    9  H6  UNL     1     -10.121 -16.494  -1.725  1.00  0.00     0.124 HD
ENDBRANCH   6   7
BRANCH   3  10
HETATM   10  O1  UNL     1     -14.444 -12.647  -3.233  1.00  0.00    -0.361 OA
HETATM   11  H7  UNL     1     -14.230 -11.706  -3.128  1.00  0.00     0.217 HD
ENDBRANCH   3  10
TORSDOF 2
ENDMDL
MODEL 4
REMARK VINA RESULT:      -3.3      2.784      3.684
REMARK  2 active torsions:
REMARK  status: ('A' for Active; 'I' for Inactive)
REMARK    1  A    between atoms: C3_3  and  O1_8 
REMARK    2  A    between atoms: C6_6  and  N1_7 
ROOT
HETATM    1  C1  UNL     1     -10.969 -14.147  -2.444  1.00  0.00     0.026 A 
HETATM    2  C2  UNL     1     -11.973 -13.372  -3.030  1.00  0.00     0.038 A 
HETATM    3  C3  UNL     1     -13.282 -13.493  -2.587  1.00  0.00     0.065 A 
HETATM    4  C4  UNL     1     -13.602 -14.366  -1.554  1.00  0.00     0.038 A 
HETATM    5  C5  UNL     1     -12.593 -15.140  -0.973  1.00  0.00     0.026 A 
HETATM    6  C6  UNL     1     -11.278 -15.075  -1.445  1.00  0.00     0.005 A 
ENDROOT
BRANCH   6   7
HETATM    7  N1  UNL     1     -10.256 -15.763  -0.781  1.00  0.00    -0.303 NA
HETATM    8  H5  UNL     1     -10.497 -16.719  -0.541  1.00  0.00     0.124 HD
HETATM    9  H6  UNL     1      -9.863 -15.255   0.005  1.00  0.00     0.124 HD
ENDBRANCH   6   7
BRANCH   3  10
HETATM   10  O1  UNL     1     -14.231 -12.717  -3.182  1.00  0.00    -0.361 OA
HETATM   11  H7  UNL     1     -15.029 -13.253  -3.318  1.00  0.00     0.217 HD
ENDBRANCH   3  10
TORSDOF 2
ENDMDL
MODEL 5
REMARK VINA RESULT:      -3.2      2.274      2.820
REMARK  2 active torsions:
REMARK  status: ('A' for Active; 'I' for Inactive)
REMARK    1  A    between atoms: C3_3  and  O1_8 
REMARK    2  A    between atoms: C6_6  and  N1_7 
ROOT
HETATM    1  C1  UNL     1     -13.625 -14.499  -1.901  1.00  0.00     0.026 A 
HETATM    2  C2  UNL     1     -13.012 -13.661  -2.836  1.00  0.00     0.038 A 
HETATM    3  C3  UNL     1     -11.644 -13.439  -2.767  1.00  0.00     0.065 A 
HETATM    4  C4  UNL     1     -10.875 -14.055  -1.787  1.00  0.00     0.038 A 
HETATM    5  C5  UNL     1     -11.495 -14.891  -0.853  1.00  0.00     0.026 A 
HETATM    6  C6  UNL     1     -12.881 -15.081  -0.870  1.00  0.00     0.005 A 
ENDROOT
BRANCH   6   7
HETATM    7  N1  UNL     1     -13.475 -16.010  -0.009  1.00  0.00    -0.303 NA
HETATM    8  H5  UNL     1     -12.864 -16.781   0.244  1.00  0.00     0.124 HD
HETATM    9  H6  UNL     1     -14.389 -16.326  -0.314  1.00  0.00     0.124 HD
ENDBRANCH   6   7
BRANCH   3  10
HETATM   10  O1  UNL     1     -11.084 -12.618  -3.699  1.00  0.00    -0.361 OA
HETATM   11  H7  UNL     1     -11.737 -12.451  -4.398  1.00  0.00     0.217 HD
ENDBRANCH   3  10
TORSDOF 2
ENDMDL
MODEL 6
REMARK VINA RESULT:      -3.1      1.824      2.347
REMARK  2 active torsions:
REMARK  status: ('A' for Active; 'I' for Inactive)
REMARK    1  A    between atoms: C3_3  and  O1_8 
REMARK    2  A    between atoms: C6_6  and  N1_7 
ROOT
HETATM    1  C1  UNL     1     -13.146 -13.719  -2.714  1.00  0.00     0.026 A 
HETATM    2  C2  UNL     1     -13.794 -14.503  -1.757  1.00  0.00     0.038 A 
HETATM    3  C3  UNL     1     -13.050 -15.153  -0.783  1.00  0.00     0.065 A 
HETATM    4  C4  UNL     1     -11.666 -15.018  -0.741  1.00  0.00     0.038 A 
HETATM    5  C5  UNL     1     -11.025 -14.232  -1.703  1.00  0.00     0.026 A 
HETATM    6  C6  UNL     1     -11.752 -13.617  -2.728  1.00  0.00     0.005 A 
ENDROOT
BRANCH   6   7
HETATM    7  N1  UNL     1     -11.117 -12.738  -3.613  1.00  0.00    -0.303 NA
HETATM    8  H5  UNL     1     -10.757 -11.900  -3.167  1.00  0.00     0.124 HD
HETATM    9  H6  UNL     1     -11.658 -12.532  -4.445  1.00  0.00     0.124 HD
ENDBRANCH   6   7
BRANCH   3  10
HETATM   10  O1  UNL     1     -13.719 -15.906   0.134  1.00  0.00    -0.361 OA
HETATM   11  H7  UNL     1     -13.937 -16.762  -0.267  1.00  0.00     0.217 HD
ENDBRANCH   3  10
TORSDOF 2
ENDMDL
MODEL 7
REMARK VINA RESULT:      -3.1      2.034      2.288
REMARK  2 active torsions:
REMARK  status: ('A' for Active; 'I' for Inactive)
REMARK    1  A    between atoms: C3_3  and  O1_8 
REMARK    2  A    between atoms: C6_6  and  N1_7 
ROOT
HETATM    1  C1  UNL     1     -13.049 -14.847  -4.133  1.00  0.00     0.026 A 
HETATM    2  C2  UNL     1     -11.920 -15.611  -4.438  1.00  0.00     0.038 A 
HETATM    3  C3  UNL     1     -10.661 -15.154  -4.075  1.00  0.00     0.065 A 
HETATM    4  C4  UNL     1     -10.514 -13.949  -3.396  1.00  0.00     0.038 A 
HETATM    5  C5  UNL     1     -11.648 -13.189  -3.096  1.00  0.00     0.026 A 
HETATM    6  C6  UNL     1     -12.919 -13.604  -3.505  1.00  0.00     0.005 A 
ENDROOT
BRANCH   6   7
HETATM    7  N1  UNL     1     -14.056 -12.898  -3.097  1.00  0.00    -0.303 NA
HETATM    8  H5  UNL     1     -14.923 -13.265  -3.478  1.00  0.00     0.124 HD
HETATM    9  H6  UNL     1     -13.979 -11.893  -3.213  1.00  0.00     0.124 HD
ENDBRANCH   6   7
BRANCH   3  10
HETATM   10  O1  UNL     1      -9.586 -15.930  -4.387  1.00  0.00    -0.361 OA
HETATM   11  H7  UNL     1      -9.744 -16.347  -5.249  1.00  0.00     0.217 HD
ENDBRANCH   3  10
TORSDOF 2
ENDMDL
MODEL 8
REMARK VINA RESULT:      -3.1      3.120      3.772
REMARK  2 active torsions:
REMARK  status: ('A' for Active; 'I' for Inactive)
REMARK    1  A    between atoms: C3_3  and  O1_8 
REMARK    2  A    between atoms: C6_6  and  N1_7 
ROOT
HETATM    1  C1  UNL     1     -10.598 -14.098  -3.164  1.00  0.00     0.026 A 
HETATM    2  C2  UNL     1     -11.713 -13.343  -2.789  1.00  0.00     0.038 A 
HETATM    3  C3  UNL     1     -12.931 -13.558  -3.418  1.00  0.00     0.065 A 
HETATM    4  C4  UNL     1     -13.057 -14.528  -4.406  1.00  0.00     0.038 A 
HETATM    5  C5  UNL     1     -11.937 -15.278  -4.777  1.00  0.00     0.026 A 
HETATM    6  C6  UNL     1     -10.688 -15.036  -4.196  1.00  0.00     0.005 A 
ENDROOT
BRANCH   6   7
HETATM    7  N1  UNL     1      -9.602 -15.870  -4.487  1.00  0.00    -0.303 NA
HETATM    8  H5  UNL     1      -9.135 -15.642  -5.359  1.00  0.00     0.124 HD
HETATM    9  H6  UNL     1      -9.812 -16.860  -4.409  1.00  0.00     0.124 HD
ENDBRANCH   6   7
BRANCH   3  10
HETATM   10  O1  UNL     1     -13.995 -12.804  -3.022  1.00  0.00    -0.361 OA
HETATM   11  H7  UNL     1     -13.890 -11.908  -3.380  1.00  0.00     0.217 HD
ENDBRANCH   3  10
TORSDOF 2
ENDMDL
MODEL 9
REMARK VINA RESULT:      -3.1      3.124      3.641
REMARK  2 active torsions:
REMARK  status: ('A' for Active; 'I' for Inactive)
REMARK    1  A    between atoms: C3_3  and  O1_8 
REMARK    2  A    between atoms: C6_6  and  N1_7 
ROOT
HETATM    1  C1  UNL     1     -11.034 -15.280  -1.034  1.00  0.00     0.026 A 
HETATM    2  C2  UNL     1     -11.226 -14.007  -1.575  1.00  0.00     0.038 A 
HETATM    3  C3  UNL     1     -10.946 -13.780  -2.915  1.00  0.00     0.065 A 
HETATM    4  C4  UNL     1     -10.491 -14.813  -3.728  1.00  0.00     0.038 A 
HETATM    5  C5  UNL     1     -10.300 -16.084  -3.178  1.00  0.00     0.026 A 
HETATM    6  C6  UNL     1     -10.520 -16.317  -1.817  1.00  0.00     0.005 A 
ENDROOT
BRANCH   6   7
HETATM    7  N1  UNL     1     -10.441 -17.617  -1.303  1.00  0.00    -0.303 NA
HETATM    8  H5  UNL     1     -10.283 -17.650  -0.301  1.00  0.00     0.124 HD
HETATM    9  H6  UNL     1      -9.808 -18.222  -1.815  1.00  0.00     0.124 HD
ENDBRANCH   6   7
BRANCH   3  10
HETATM   10  O1  UNL     1     -11.149 -12.526  -3.407  1.00  0.00    -0.361 OA
HETATM   11  H7  UNL     1     -11.390 -12.595  -4.344  1.00  0.00     0.217 HD
ENDBRANCH   3  10
TORSDOF 2
ENDMDL
MODEL 10
REMARK VINA RESULT:      -3.0      2.025      2.370
REMARK  2 active torsions:
REMARK  status: ('A' for Active; 'I' for Inactive)
REMARK    1  A    between atoms: C3_3  and  O1_8 
REMARK    2  A    between atoms: C6_6  and  N1_7 
ROOT
HETATM    1  C1  UNL     1     -11.226 -14.080  -1.426  1.00  0.00     0.026 A 
HETATM    2  C2  UNL     1     -10.994 -15.292  -0.774  1.00  0.00     0.038 A 
HETATM    3  C3  UNL     1     -10.528 -16.383  -1.494  1.00  0.00     0.065 A 
HETATM    4  C4  UNL     1     -10.273 -16.274  -2.857  1.00  0.00     0.038 A 
HETATM    5  C5  UNL     1     -10.509 -15.058  -3.503  1.00  0.00     0.026 A 
HETATM    6  C6  UNL     1     -11.035 -13.965  -2.806  1.00  0.00     0.005 A 
ENDROOT
BRANCH   6   7
HETATM    7  N1  UNL     1     -11.155 -12.720  -3.434  1.00  0.00    -0.303 NA
HETATM    8  H5  UNL     1     -10.289 -12.190  -3.459  1.00  0.00     0.124 HD
HETATM    9  H6  UNL     1     -11.937 -12.166  -3.102  1.00  0.00     0.124 HD
ENDBRANCH   6   7
BRANCH   3  10
HETATM   10  O1  UNL     1     -10.311 -17.547  -0.821  1.00  0.00    -0.361 OA
HETATM   11  H7  UNL     1     -11.107 -17.762  -0.308  1.00  0.00     0.217 HD
ENDBRANCH   3  10
TORSDOF 2
ENDMDL
MODEL 11
REMARK VINA RESULT:      -2.8      2.446      2.895
REMARK  2 active torsions:
REMARK  status: ('A' for Active; 'I' for Inactive)
REMARK    1  A    between atoms: C3_3  and  O1_8 
REMARK    2  A    between atoms: C6_6  and  N1_7 
ROOT
HETATM    1  C1  UNL     1     -10.734 -15.763  -4.131  1.00  0.00     0.026 A 
HETATM    2  C2  UNL     1     -10.535 -15.554  -2.764  1.00  0.00     0.038 A 
HETATM    3  C3  UNL     1     -10.774 -14.301  -2.218  1.00  0.00     0.065 A 
HETATM    4  C4  UNL     1     -11.225 -13.255  -3.015  1.00  0.00     0.038 A 
HETATM    5  C5  UNL     1     -11.421 -13.471  -4.383  1.00  0.00     0.026 A 
HETATM    6  C6  UNL     1     -11.130 -14.710  -4.962  1.00  0.00     0.005 A 
ENDROOT
BRANCH   6   7
HETATM    7  N1  UNL     1     -11.441 -14.951  -6.305  1.00  0.00    -0.303 NA
HETATM    8  H5  UNL     1     -12.162 -14.338  -6.673  1.00  0.00     0.124 HD
HETATM    9  H6  UNL     1     -11.619 -15.927  -6.516  1.00  0.00     0.124 HD
ENDBRANCH   6   7
BRANCH   3  10
HETATM   10  O1  UNL     1     -10.571 -14.139  -0.880  1.00  0.00    -0.361 OA
HETATM   11  H7  UNL     1      -9.617 -14.058  -0.719  1.00  0.00     0.217 HD
ENDBRANCH   3  10
TORSDOF 2
ENDMDL
MODEL 12
REMARK VINA RESULT:      -2.8      2.920      3.462
REMARK  2 active torsions:
REMARK  status: ('A' for Active; 'I' for Inactive)
REMARK    1  A    between atoms: C3_3  and  O1_8 
REMARK    2  A    between atoms: C6_6  and  N1_7 
ROOT
HETATM    1  C1  UNL     1     -10.599 -16.455  -1.445  1.00  0.00     0.026 A 
HETATM    2  C2  UNL     1     -10.220 -16.229  -2.770  1.00  0.00     0.038 A 
HETATM    3  C3  UNL     1     -10.311 -14.951  -3.303  1.00  0.00     0.065 A 
HETATM    4  C4  UNL     1     -10.760 -13.889  -2.524  1.00  0.00     0.038 A 
HETATM    5  C5  UNL     1     -11.138 -14.123  -1.199  1.00  0.00     0.026 A 
HETATM    6  C6  UNL     1     -11.109 -15.414  -0.662  1.00  0.00     0.005 A 
ENDROOT
BRANCH   6   7
HETATM    7  N1  UNL     1     -11.375 -15.619   0.697  1.00  0.00    -0.303 NA
HETATM    8  H5  UNL     1     -11.047 -14.866   1.294  1.00  0.00     0.124 HD
HETATM    9  H6  UNL     1     -11.094 -16.532   1.037  1.00  0.00     0.124 HD
ENDBRANCH   6   7
BRANCH   3  10
HETATM   10  O1  UNL     1      -9.930 -14.771  -4.599  1.00  0.00    -0.361 OA
HETATM   11  H7  UNL     1      -9.581 -13.871  -4.697  1.00  0.00     0.217 HD
ENDBRANCH   3  10
TORSDOF 2
ENDMDL
MODEL 13
REMARK VINA RESULT:      -2.7     13.315     13.668
REMARK  2 active torsions:
REMARK  status: ('A' for Active; 'I' for Inactive)
REMARK    1  A    between atoms: C3_3  and  O1_8 
REMARK    2  A    between atoms: C6_6  and  N1_7 
ROOT
HETATM    1  C1  UNL     1       0.429 -17.788  -2.975  1.00  0.00     0.026 A 
HETATM    2  C2  UNL     1       0.905 -17.091  -4.088  1.00  0.00     0.038 A 
HETATM    3  C3  UNL     1       1.199 -15.739  -3.978  1.00  0.00     0.065 A 
HETATM    4  C4  UNL     1       1.040 -15.076  -2.767  1.00  0.00     0.038 A 
HETATM    5  C5  UNL     1       0.562 -15.780  -1.657  1.00  0.00     0.026 A 
HETATM    6  C6  UNL     1       0.204 -17.128  -1.763  1.00  0.00     0.005 A 
ENDROOT
BRANCH   6   7
HETATM    7  N1  UNL     1      -0.159 -17.852  -0.622  1.00  0.00    -0.303 NA
HETATM    8  H5  UNL     1       0.352 -18.722  -0.511  1.00  0.00     0.124 HD
HETATM    9  H6  UNL     1      -1.160 -17.976  -0.516  1.00  0.00     0.124 HD
ENDBRANCH   6   7
BRANCH   3  10
HETATM   10  O1  UNL     1       1.664 -15.095  -5.086  1.00  0.00    -0.361 OA
HETATM   11  H7  UNL     1       1.500 -14.144  -4.983  1.00  0.00     0.217 HD
ENDBRANCH   3  10
TORSDOF 2
ENDMDL
MODEL 14
REMARK VINA RESULT:      -2.6     10.422     10.524
REMARK  2 active torsions:
REMARK  status: ('A' for Active; 'I' for Inactive)
REMARK    1  A    between atoms: C3_3  and  O1_8 
REMARK    2  A    between atoms: C6_6  and  N1_7 
ROOT
HETATM    1  C1  UNL     1      -4.860 -16.956  -8.668  1.00  0.00     0.026 A 
HETATM    2  C2  UNL     1      -4.156 -17.180  -7.483  1.00  0.00     0.038 A 
HETATM    3  C3  UNL     1      -3.353 -16.176  -6.961  1.00  0.00     0.065 A 
HETATM    4  C4  UNL     1      -3.255 -14.944  -7.598  1.00  0.00     0.038 A 
HETATM    5  C5  UNL     1      -3.962 -14.728  -8.785  1.00  0.00     0.026 A 
HETATM    6  C6  UNL     1      -4.730 -15.747  -9.358  1.00  0.00     0.005 A 
ENDROOT
BRANCH   6   7
HETATM    7  N1  UNL     1      -5.526 -15.484 -10.478  1.00  0.00    -0.303 NA
HETATM    8  H5  UNL     1      -5.910 -16.318 -10.911  1.00  0.00     0.124 HD
HETATM    9  H6  UNL     1      -5.092 -14.863 -11.153  1.00  0.00     0.124 HD
ENDBRANCH   6   7
BRANCH   3  10
HETATM   10  O1  UNL     1      -2.684 -16.432  -5.801  1.00  0.00    -0.361 OA
HETATM   11  H7  UNL     1      -2.774 -15.663  -5.216  1.00  0.00     0.217 HD
ENDBRANCH   3  10
TORSDOF 2
ENDMDL
MODEL 15
REMARK VINA RESULT:      -2.6     11.216     11.868
REMARK  2 active torsions:
REMARK  status: ('A' for Active; 'I' for Inactive)
REMARK    1  A    between atoms: C3_3  and  O1_8 
REMARK    2  A    between atoms: C6_6  and  N1_7 
ROOT
HETATM    1  C1  UNL     1      -2.330 -16.779  -8.427  1.00  0.00     0.026 A 
HETATM    2  C2  UNL     1      -2.665 -15.604  -7.750  1.00  0.00     0.038 A 
HETATM    3  C3  UNL     1      -3.666 -14.784  -8.251  1.00  0.00     0.065 A 
HETATM    4  C4  UNL     1      -4.351 -15.130  -9.411  1.00  0.00     0.038 A 
HETATM    5  C5  UNL     1      -4.009 -16.307 -10.083  1.00  0.00     0.026 A 
HETATM    6  C6  UNL     1      -2.963 -17.116  -9.627  1.00  0.00     0.005 A 
ENDROOT
BRANCH   6   7
HETATM    7  N1  UNL     1      -2.708 -18.350 -10.237  1.00  0.00    -0.303 NA
HETATM    8  H5  UNL     1      -1.878 -18.815  -9.885  1.00  0.00     0.124 HD
HETATM    9  H6  UNL     1      -2.734 -18.319 -11.251  1.00  0.00     0.124 HD
ENDBRANCH   6   7
BRANCH   3  10
HETATM   10  O1  UNL     1      -3.966 -13.648  -7.561  1.00  0.00    -0.361 OA
HETATM   11  H7  UNL     1      -3.839 -13.818  -6.614  1.00  0.00     0.217 HD
ENDBRANCH   3  10
TORSDOF 2
ENDMDL
MODEL 16
REMARK VINA RESULT:      -2.5      2.969      3.600
REMARK  2 active torsions:
REMARK  status: ('A' for Active; 'I' for Inactive)
REMARK    1  A    between atoms: C3_3  and  O1_8 
REMARK    2  A    between atoms: C6_6  and  N1_7 
ROOT
HETATM    1  C1  UNL     1     -12.177 -13.602  -2.974  1.00  0.00     0.026 A 
HETATM    2  C2  UNL     1     -12.602 -13.843  -4.282  1.00  0.00     0.038 A 
HETATM    3  C3  UNL     1     -11.873 -14.700  -5.095  1.00  0.00     0.065 A 
HETATM    4  C4  UNL     1     -10.732 -15.332  -4.614  1.00  0.00     0.038 A 
HETATM    5  C5  UNL     1     -10.312 -15.085  -3.303  1.00  0.00     0.026 A 
HETATM    6  C6  UNL     1     -11.000 -14.180  -2.489  1.00  0.00     0.005 A 
ENDROOT
BRANCH   6   7
HETATM    7  N1  UNL     1     -10.643 -14.030  -1.144  1.00  0.00    -0.303 NA
HETATM    8  H5  UNL     1      -9.837 -14.584  -0.872  1.00  0.00     0.124 HD
HETATM    9  H6  UNL     1     -11.419 -14.134  -0.499  1.00  0.00     0.124 HD
ENDBRANCH   6   7
BRANCH   3  10
HETATM   10  O1  UNL     1     -12.321 -14.912  -6.364  1.00  0.00    -0.361 OA
HETATM   11  H7  UNL     1     -13.173 -15.375  -6.318  1.00  0.00     0.217 HD
ENDBRANCH   3  10
TORSDOF 2
ENDMDL
MODEL 17
REMARK VINA RESULT:      -2.5      2.864      3.185
REMARK  2 active torsions:
REMARK  status: ('A' for Active; 'I' for Inactive)
REMARK    1  A    between atoms: C3_3  and  O1_8 
REMARK    2  A    between atoms: C6_6  and  N1_7 
ROOT
HETATM    1  C1  UNL     1     -13.759 -14.930  -3.822  1.00  0.00     0.026 A 
HETATM    2  C2  UNL     1     -13.010 -13.867  -3.313  1.00  0.00     0.038 A 
HETATM    3  C3  UNL     1     -11.780 -13.559  -3.878  1.00  0.00     0.065 A 
HETATM    4  C4  UNL     1     -11.294 -14.289  -4.957  1.00  0.00     0.038 A 
HETATM    5  C5  UNL     1     -12.048 -15.353  -5.460  1.00  0.00     0.026 A 
HETATM    6  C6  UNL     1     -13.262 -15.716  -4.867  1.00  0.00     0.005 A 
ENDROOT
BRANCH   6   7
HETATM    7  N1  UNL     1     -14.064 -16.703  -5.450  1.00  0.00    -0.303 NA
HETATM    8  H5  UNL     1     -13.881 -16.847  -6.438  1.00  0.00     0.124 HD
HETATM    9  H6  UNL     1     -15.054 -16.598  -5.252  1.00  0.00     0.124 HD
ENDBRANCH   6   7
BRANCH   3  10
HETATM   10  O1  UNL     1     -11.082 -12.512  -3.355  1.00  0.00    -0.361 OA
HETATM   11  H7  UNL     1     -10.662 -12.802  -2.530  1.00  0.00     0.217 HD
ENDBRANCH   3  10
TORSDOF 2
ENDMDL
MODEL 18
REMARK VINA RESULT:      -2.5     12.635     13.621
REMARK  2 active torsions:
REMARK  status: ('A' for Active; 'I' for Inactive)
REMARK    1  A    between atoms: C3_3  and  O1_8 
REMARK    2  A    between atoms: C6_6  and  N1_7 
ROOT
HETATM    1  C1  UNL     1       1.602 -18.043  -2.338  1.00  0.00     0.026 A 
HETATM    2  C2  UNL     1       1.518 -16.667  -2.117  1.00  0.00     0.038 A 
HETATM    3  C3  UNL     1       0.360 -15.984  -2.461  1.00  0.00     0.065 A 
HETATM    4  C4  UNL     1      -0.724 -16.660  -3.009  1.00  0.00     0.038 A 
HETATM    5  C5  UNL     1      -0.632 -18.038  -3.229  1.00  0.00     0.026 A 
HETATM    6  C6  UNL     1       0.547 -18.733  -2.943  1.00  0.00     0.005 A 
ENDROOT
BRANCH   6   7
HETATM    7  N1  UNL     1       0.588 -20.127  -3.055  1.00  0.00    -0.303 NA
HETATM    8  H5  UNL     1       1.040 -20.586  -2.270  1.00  0.00     0.124 HD
HETATM    9  H6  UNL     1       0.936 -20.458  -3.948  1.00  0.00     0.124 HD
ENDBRANCH   6   7
BRANCH   3  10
HETATM   10  O1  UNL     1       0.317 -14.642  -2.227  1.00  0.00    -0.361 OA
HETATM   11  H7  UNL     1      -0.121 -14.211  -2.978  1.00  0.00     0.217 HD
ENDBRANCH   3  10
TORSDOF 2
ENDMDL
MODEL 19
REMARK VINA RESULT:      -2.5     11.661     12.450
REMARK  2 active torsions:
REMARK  status: ('A' for Active; 'I' for Inactive)
REMARK    1  A    between atoms: C3_3  and  O1_8 
REMARK    2  A    between atoms: C6_6  and  N1_7 
ROOT
HETATM    1  C1  UNL     1       0.602 -16.770  -1.595  1.00  0.00     0.026 A 
HETATM    2  C2  UNL     1      -0.267 -17.683  -0.994  1.00  0.00     0.038 A 
HETATM    3  C3  UNL     1      -1.452 -18.025  -1.629  1.00  0.00     0.065 A 
HETATM    4  C4  UNL     1      -1.774 -17.481  -2.868  1.00  0.00     0.038 A 
HETATM    5  C5  UNL     1      -0.900 -16.567  -3.463  1.00  0.00     0.026 A 
HETATM    6  C6  UNL     1       0.270 -16.165  -2.811  1.00  0.00     0.005 A 
ENDROOT
BRANCH   6   7
HETATM    7  N1  UNL     1       1.195 -15.343  -3.466  1.00  0.00    -0.303 NA
HETATM    8  H5  UNL     1       0.767 -14.593  -4.000  1.00  0.00     0.124 HD
HETATM    9  H6  UNL     1       1.888 -15.853  -4.004  1.00  0.00     0.124 HD
ENDBRANCH   6   7
BRANCH   3  10
HETATM   10  O1  UNL     1      -2.272 -18.921  -1.011  1.00  0.00    -0.361 OA
HETATM   11  H7  UNL     1      -1.783 -19.338  -0.284  1.00  0.00     0.217 HD
ENDBRANCH   3  10
TORSDOF 2
ENDMDL
MODEL 20
REMARK VINA RESULT:      -2.5      3.516      4.174
REMARK  2 active torsions:
REMARK  status: ('A' for Active; 'I' for Inactive)
REMARK    1  A    between atoms: C3_3  and  O1_8 
REMARK    2  A    between atoms: C6_6  and  N1_7 
ROOT
HETATM    1  C1  UNL     1     -12.945 -15.176  -4.014  1.00  0.00     0.026 A 
HETATM    2  C2  UNL     1     -13.430 -14.098  -3.272  1.00  0.00     0.038 A 
HETATM    3  C3  UNL     1     -14.542 -13.399  -3.719  1.00  0.00     0.065 A 
HETATM    4  C4  UNL     1     -15.188 -13.773  -4.893  1.00  0.00     0.038 A 
HETATM    5  C5  UNL     1     -14.696 -14.853  -5.632  1.00  0.00     0.026 A 
HETATM    6  C6  UNL     1     -13.542 -15.532  -5.227  1.00  0.00     0.005 A 
ENDROOT
BRANCH   6   7
HETATM    7  N1  UNL     1     -13.127 -16.683  -5.907  1.00  0.00    -0.303 NA
HETATM    8  H5  UNL     1     -12.916 -16.524  -6.887  1.00  0.00     0.124 HD
HETATM    9  H6  UNL     1     -13.734 -17.484  -5.767  1.00  0.00     0.124 HD
ENDBRANCH   6   7
BRANCH   3  10
HETATM   10  O1  UNL     1     -14.987 -12.355  -2.965  1.00  0.00    -0.361 OA
HETATM   11  H7  UNL     1     -15.327 -12.702  -2.125  1.00  0.00     0.217 HD
ENDBRANCH   3  10
TORSDOF 2
ENDMDL
