MODEL 1
REMARK VINA RESULT:      -3.0      0.000      0.000
REMARK  2 active torsions:
REMARK  status: ('A' for Active; 'I' for Inactive)
REMARK    1  A    between atoms: C3_3  and  O1_8 
REMARK    2  A    between atoms: C6_6  and  N1_7 
ROOT
HETATM    1  C1  UNL     1       5.980   8.695  -5.039  1.00  0.00     0.026 A 
HETATM    2  C2  UNL     1       6.872   9.339  -4.178  1.00  0.00     0.038 A 
HETATM    3  C3  UNL     1       6.539  10.573  -3.640  1.00  0.00     0.065 A 
HETATM    4  C4  UNL     1       5.317  11.168  -3.936  1.00  0.00     0.038 A 
HETATM    5  C5  UNL     1       4.430  10.518  -4.799  1.00  0.00     0.026 A 
HETATM    6  C6  UNL     1       4.773   9.302  -5.398  1.00  0.00     0.005 A 
ENDROOT
BRANCH   6   7
HETATM    7  N1  UNL     1       3.833   8.604  -6.165  1.00  0.00    -0.303 NA
HETATM    8  H5  UNL     1       3.213   8.017  -5.615  1.00  0.00     0.124 HD
HETATM    9  H6  UNL     1       4.233   8.109  -6.954  1.00  0.00     0.124 HD
ENDBRANCH   6   7
BRANCH   3  10
HETATM   10  O1  UNL     1       7.434  11.168  -2.802  1.00  0.00    -0.361 OA
HETATM   11  H7  UNL     1       8.330  10.914  -3.076  1.00  0.00     0.217 HD
ENDBRANCH   3  10
TORSDOF 2
ENDMDL
MODEL 2
REMARK VINA RESULT:      -2.9      2.763      3.172
REMARK  2 active torsions:
REMARK  status: ('A' for Active; 'I' for Inactive)
REMARK    1  A    between atoms: C3_3  and  O1_8 
REMARK    2  A    between atoms: C6_6  and  N1_7 
ROOT
HETATM    1  C1  UNL     1       6.969   7.305  -3.641  1.00  0.00     0.026 A 
HETATM    2  C2  UNL     1       6.848   8.558  -3.034  1.00  0.00     0.038 A 
HETATM    3  C3  UNL     1       7.524   9.647  -3.565  1.00  0.00     0.065 A 
HETATM    4  C4  UNL     1       8.309   9.507  -4.704  1.00  0.00     0.038 A 
HETATM    5  C5  UNL     1       8.427   8.250  -5.305  1.00  0.00     0.026 A 
HETATM    6  C6  UNL     1       7.800   7.129  -4.751  1.00  0.00     0.005 A 
ENDROOT
BRANCH   6   7
HETATM    7  N1  UNL     1       7.826   5.902  -5.425  1.00  0.00    -0.303 NA
HETATM    8  H5  UNL     1       7.490   5.124  -4.867  1.00  0.00     0.124 HD
HETATM    9  H6  UNL     1       8.713   5.701  -5.875  1.00  0.00     0.124 HD
ENDBRANCH   6   7
BRANCH   3  10
HETATM   10  O1  UNL     1       7.378  10.852  -2.946  1.00  0.00    -0.361 OA
HETATM   11  H7  UNL     1       8.142  11.408  -3.166  1.00  0.00     0.217 HD
ENDBRANCH   3  10
TORSDOF 2
ENDMDL
MODEL 3
REMARK VINA RESULT:      -2.9      2.519      3.057
REMARK  2 active torsions:
REMARK  status: ('A' for Active; 'I' for Inactive)
REMARK    1  A    between atoms: C3_3  and  O1_8 
REMARK    2  A    between atoms: C6_6  and  N1_7 
ROOT
HETATM    1  C1  UNL     1       6.857   8.966  -5.049  1.00  0.00     0.026 A 
HETATM    2  C2  UNL     1       5.545   9.442  -5.001  1.00  0.00     0.038 A 
HETATM    3  C3  UNL     1       5.238  10.531  -4.198  1.00  0.00     0.065 A 
HETATM    4  C4  UNL     1       6.228  11.163  -3.453  1.00  0.00     0.038 A 
HETATM    5  C5  UNL     1       7.538  10.680  -3.506  1.00  0.00     0.026 A 
HETATM    6  C6  UNL     1       7.856   9.548  -4.263  1.00  0.00     0.005 A 
ENDROOT
BRANCH   6   7
HETATM    7  N1  UNL     1       9.189   9.145  -4.404  1.00  0.00    -0.303 NA
HETATM    8  H5  UNL     1       9.308   8.332  -5.000  1.00  0.00     0.124 HD
HETATM    9  H6  UNL     1       9.685   9.054  -3.524  1.00  0.00     0.124 HD
ENDBRANCH   6   7
BRANCH   3  10
HETATM   10  O1  UNL     1       3.947  10.968  -4.180  1.00  0.00    -0.361 OA
HETATM   11  H7  UNL     1       3.749  11.312  -3.294  1.00  0.00     0.217 HD
ENDBRANCH   3  10
TORSDOF 2
ENDMDL
MODEL 4
REMARK VINA RESULT:      -2.9      1.677      2.130
REMARK  2 active torsions:
REMARK  status: ('A' for Active; 'I' for Inactive)
REMARK    1  A    between atoms: C3_3  and  O1_8 
REMARK    2  A    between atoms: C6_6  and  N1_7 
ROOT
HETATM    1  C1  UNL     1       5.390   9.497  -5.034  1.00  0.00     0.026 A 
HETATM    2  C2  UNL     1       6.671   8.941  -4.995  1.00  0.00     0.038 A 
HETATM    3  C3  UNL     1       7.643   9.508  -4.183  1.00  0.00     0.065 A 
HETATM    4  C4  UNL     1       7.348  10.616  -3.395  1.00  0.00     0.038 A 
HETATM    5  C5  UNL     1       6.065  11.168  -3.440  1.00  0.00     0.026 A 
HETATM    6  C6  UNL     1       5.090  10.646  -4.296  1.00  0.00     0.005 A 
ENDROOT
BRANCH   6   7
HETATM    7  N1  UNL     1       3.777  11.129  -4.246  1.00  0.00    -0.303 NA
HETATM    8  H5  UNL     1       3.195  10.809  -5.014  1.00  0.00     0.124 HD
HETATM    9  H6  UNL     1       3.714  12.132  -4.106  1.00  0.00     0.124 HD
ENDBRANCH   6   7
BRANCH   3  10
HETATM   10  O1  UNL     1       8.879   8.935  -4.170  1.00  0.00    -0.361 OA
HETATM   11  H7  UNL     1       8.810   8.059  -3.758  1.00  0.00     0.217 HD
ENDBRANCH   3  10
TORSDOF 2
ENDMDL
MODEL 5
REMARK VINA RESULT:      -2.8      2.801      3.111
REMARK  2 active torsions:
REMARK  status: ('A' for Active; 'I' for Inactive)
REMARK    1  A    between atoms: C3_3  and  O1_8 
REMARK    2  A    between atoms: C6_6  and  N1_7 
ROOT
HETATM    1  C1  UNL     1       8.422   8.263  -5.318  1.00  0.00     0.026 A 
HETATM    2  C2  UNL     1       8.317   9.498  -4.674  1.00  0.00     0.038 A 
HETATM    3  C3  UNL     1       7.537   9.615  -3.532  1.00  0.00     0.065 A 
HETATM    4  C4  UNL     1       6.873   8.510  -3.013  1.00  0.00     0.038 A 
HETATM    5  C5  UNL     1       6.981   7.277  -3.663  1.00  0.00     0.026 A 
HETATM    6  C6  UNL     1       7.714   7.153  -4.848  1.00  0.00     0.005 A 
ENDROOT
BRANCH   6   7
HETATM    7  N1  UNL     1       7.914   5.893  -5.424  1.00  0.00    -0.303 NA
HETATM    8  H5  UNL     1       7.814   5.886  -6.434  1.00  0.00     0.124 HD
HETATM    9  H6  UNL     1       7.388   5.149  -4.978  1.00  0.00     0.124 HD
ENDBRANCH   6   7
BRANCH   3  10
HETATM   10  O1  UNL     1       7.463  10.836  -2.932  1.00  0.00    -0.361 OA
HETATM   11  H7  UNL     1       7.798  10.757  -2.025  1.00  0.00     0.217 HD
ENDBRANCH   3  10
TORSDOF 2
ENDMDL
MODEL 6
REMARK VINA RESULT:      -2.8      3.545      4.065
REMARK  2 active torsions:
REMARK  status: ('A' for Active; 'I' for Inactive)
REMARK    1  A    between atoms: C3_3  and  O1_8 
REMARK    2  A    between atoms: C6_6  and  N1_7 
ROOT
HETATM    1  C1  UNL     1       8.315   9.405  -4.746  1.00  0.00     0.026 A 
HETATM    2  C2  UNL     1       8.444   8.164  -5.373  1.00  0.00     0.038 A 
HETATM    3  C3  UNL     1       7.779   7.061  -4.858  1.00  0.00     0.065 A 
HETATM    4  C4  UNL     1       6.973   7.182  -3.731  1.00  0.00     0.038 A 
HETATM    5  C5  UNL     1       6.851   8.427  -3.107  1.00  0.00     0.026 A 
HETATM    6  C6  UNL     1       7.559   9.538  -3.577  1.00  0.00     0.005 A 
ENDROOT
BRANCH   6   7
HETATM    7  N1  UNL     1       7.337  10.802  -3.020  1.00  0.00    -0.303 NA
HETATM    8  H5  UNL     1       6.360  11.080  -3.014  1.00  0.00     0.124 HD
HETATM    9  H6  UNL     1       7.942  11.527  -3.392  1.00  0.00     0.124 HD
ENDBRANCH   6   7
BRANCH   3  10
HETATM   10  O1  UNL     1       7.928   5.868  -5.500  1.00  0.00    -0.361 OA
HETATM   11  H7  UNL     1       8.096   6.042  -6.440  1.00  0.00     0.217 HD
ENDBRANCH   3  10
TORSDOF 2
ENDMDL
MODEL 7
REMARK VINA RESULT:      -2.7      3.470      4.097
REMARK  2 active torsions:
REMARK  status: ('A' for Active; 'I' for Inactive)
REMARK    1  A    between atoms: C3_3  and  O1_8 
REMARK    2  A    between atoms: C6_6  and  N1_7 
ROOT
HETATM    1  C1  UNL     1       6.740   8.439  -3.234  1.00  0.00     0.026 A 
HETATM    2  C2  UNL     1       6.910   7.204  -3.863  1.00  0.00     0.038 A 
HETATM    3  C3  UNL     1       7.792   7.090  -4.929  1.00  0.00     0.065 A 
HETATM    4  C4  UNL     1       8.519   8.192  -5.366  1.00  0.00     0.038 A 
HETATM    5  C5  UNL     1       8.342   9.425  -4.732  1.00  0.00     0.026 A 
HETATM    6  C6  UNL     1       7.416   9.573  -3.695  1.00  0.00     0.005 A 
ENDROOT
BRANCH   6   7
HETATM    7  N1  UNL     1       7.332  10.779  -2.990  1.00  0.00    -0.303 NA
HETATM    8  H5  UNL     1       7.845  10.775  -2.114  1.00  0.00     0.124 HD
HETATM    9  H6  UNL     1       6.386  11.127  -2.882  1.00  0.00     0.124 HD
ENDBRANCH   6   7
BRANCH   3  10
HETATM   10  O1  UNL     1       7.932   5.868  -5.514  1.00  0.00    -0.361 OA
HETATM   11  H7  UNL     1       7.943   5.191  -4.819  1.00  0.00     0.217 HD
ENDBRANCH   3  10
TORSDOF 2
ENDMDL
MODEL 8
REMARK VINA RESULT:      -2.7      1.711      2.417
REMARK  2 active torsions:
REMARK  status: ('A' for Active; 'I' for Inactive)
REMARK    1  A    between atoms: C3_3  and  O1_8 
REMARK    2  A    between atoms: C6_6  and  N1_7 
ROOT
HETATM    1  C1  UNL     1       6.141  11.168  -3.406  1.00  0.00     0.026 A 
HETATM    2  C2  UNL     1       7.451  10.687  -3.462  1.00  0.00     0.038 A 
HETATM    3  C3  UNL     1       7.764   9.642  -4.320  1.00  0.00     0.065 A 
HETATM    4  C4  UNL     1       6.789   9.080  -5.137  1.00  0.00     0.038 A 
HETATM    5  C5  UNL     1       5.479   9.566  -5.074  1.00  0.00     0.026 A 
HETATM    6  C6  UNL     1       5.132  10.578  -4.174  1.00  0.00     0.005 A 
ENDROOT
BRANCH   6   7
HETATM    7  N1  UNL     1       3.850  11.138  -4.203  1.00  0.00    -0.303 NA
HETATM    8  H5  UNL     1       3.752  11.965  -3.623  1.00  0.00     0.124 HD
HETATM    9  H6  UNL     1       3.105  10.467  -4.047  1.00  0.00     0.124 HD
ENDBRANCH   6   7
BRANCH   3  10
HETATM   10  O1  UNL     1       9.054   9.203  -4.348  1.00  0.00    -0.361 OA
HETATM   11  H7  UNL     1       9.254   8.886  -5.243  1.00  0.00     0.217 HD
ENDBRANCH   3  10
TORSDOF 2
ENDMDL
MODEL 9
REMARK VINA RESULT:      -2.6      2.805      3.285
REMARK  2 active torsions:
REMARK  status: ('A' for Active; 'I' for Inactive)
REMARK    1  A    between atoms: C3_3  and  O1_8 
REMARK    2  A    between atoms: C6_6  and  N1_7 
ROOT
HETATM    1  C1  UNL     1       7.072   9.126  -3.984  1.00  0.00     0.026 A 
HETATM    2  C2  UNL     1       6.112   8.458  -4.749  1.00  0.00     0.038 A 
HETATM    3  C3  UNL     1       5.007   9.151  -5.222  1.00  0.00     0.065 A 
HETATM    4  C4  UNL     1       4.853  10.507  -4.955  1.00  0.00     0.038 A 
HETATM    5  C5  UNL     1       5.817  11.168  -4.188  1.00  0.00     0.026 A 
HETATM    6  C6  UNL     1       6.907  10.474  -3.653  1.00  0.00     0.005 A 
ENDROOT
BRANCH   6   7
HETATM    7  N1  UNL     1       7.926  11.167  -2.989  1.00  0.00    -0.303 NA
HETATM    8  H5  UNL     1       7.675  11.458  -2.049  1.00  0.00     0.124 HD
HETATM    9  H6  UNL     1       8.330  11.923  -3.532  1.00  0.00     0.124 HD
ENDBRANCH   6   7
BRANCH   3  10
HETATM   10  O1  UNL     1       4.095   8.465  -5.967  1.00  0.00    -0.361 OA
HETATM   11  H7  UNL     1       3.229   8.528  -5.532  1.00  0.00     0.217 HD
ENDBRANCH   3  10
TORSDOF 2
ENDMDL
MODEL 10
REMARK VINA RESULT:      -2.5      4.007      4.533
REMARK  2 active torsions:
REMARK  status: ('A' for Active; 'I' for Inactive)
REMARK    1  A    between atoms: C3_3  and  O1_8 
REMARK    2  A    between atoms: C6_6  and  N1_7 
ROOT
HETATM    1  C1  UNL     1       7.970   8.835  -3.225  1.00  0.00     0.026 A 
HETATM    2  C2  UNL     1       7.129   7.749  -2.971  1.00  0.00     0.038 A 
HETATM    3  C3  UNL     1       7.031   6.723  -3.899  1.00  0.00     0.065 A 
HETATM    4  C4  UNL     1       7.776   6.757  -5.073  1.00  0.00     0.038 A 
HETATM    5  C5  UNL     1       8.615   7.847  -5.321  1.00  0.00     0.026 A 
HETATM    6  C6  UNL     1       8.682   8.919  -4.425  1.00  0.00     0.005 A 
ENDROOT
BRANCH   6   7
HETATM    7  N1  UNL     1       9.611   9.946  -4.624  1.00  0.00    -0.303 NA
HETATM    8  H5  UNL     1       9.710  10.225  -5.595  1.00  0.00     0.124 HD
HETATM    9  H6  UNL     1      10.507   9.782  -4.177  1.00  0.00     0.124 HD
ENDBRANCH   6   7
BRANCH   3  10
HETATM   10  O1  UNL     1       6.202   5.680  -3.614  1.00  0.00    -0.361 OA
HETATM   11  H7  UNL     1       5.553   5.594  -4.331  1.00  0.00     0.217 HD
ENDBRANCH   3  10
TORSDOF 2
ENDMDL
MODEL 11
REMARK VINA RESULT:      -2.5      3.882      4.394
REMARK  2 active torsions:
REMARK  status: ('A' for Active; 'I' for Inactive)
REMARK    1  A    between atoms: C3_3  and  O1_8 
REMARK    2  A    between atoms: C6_6  and  N1_7 
ROOT
HETATM    1  C1  UNL     1       7.702   6.393  -5.085  1.00  0.00     0.026 A 
HETATM    2  C2  UNL     1       7.171   5.562  -4.096  1.00  0.00     0.038 A 
HETATM    3  C3  UNL     1       6.953   6.064  -2.821  1.00  0.00     0.065 A 
HETATM    4  C4  UNL     1       7.243   7.390  -2.523  1.00  0.00     0.038 A 
HETATM    5  C5  UNL     1       7.776   8.216  -3.517  1.00  0.00     0.026 A 
HETATM    6  C6  UNL     1       8.057   7.713  -4.792  1.00  0.00     0.005 A 
ENDROOT
BRANCH   6   7
HETATM    7  N1  UNL     1       8.477   8.574  -5.812  1.00  0.00    -0.303 NA
HETATM    8  H5  UNL     1       8.137   9.525  -5.709  1.00  0.00     0.124 HD
HETATM    9  H6  UNL     1       8.324   8.209  -6.746  1.00  0.00     0.124 HD
ENDBRANCH   6   7
BRANCH   3  10
HETATM   10  O1  UNL     1       6.431   5.222  -1.884  1.00  0.00    -0.361 OA
HETATM   11  H7  UNL     1       7.097   4.550  -1.666  1.00  0.00     0.217 HD
ENDBRANCH   3  10
TORSDOF 2
ENDMDL
MODEL 12
REMARK VINA RESULT:      -2.4      3.312      3.957
REMARK  2 active torsions:
REMARK  status: ('A' for Active; 'I' for Inactive)
REMARK    1  A    between atoms: C3_3  and  O1_8 
REMARK    2  A    between atoms: C6_6  and  N1_7 
ROOT
HETATM    1  C1  UNL     1       9.218   9.008  -4.667  1.00  0.00     0.026 A 
HETATM    2  C2  UNL     1       8.166   8.112  -4.868  1.00  0.00     0.038 A 
HETATM    3  C3  UNL     1       6.885   8.453  -4.456  1.00  0.00     0.065 A 
HETATM    4  C4  UNL     1       6.637   9.684  -3.860  1.00  0.00     0.038 A 
HETATM    5  C5  UNL     1       7.696  10.575  -3.661  1.00  0.00     0.026 A 
HETATM    6  C6  UNL     1       9.003  10.226  -4.015  1.00  0.00     0.005 A 
ENDROOT
BRANCH   6   7
HETATM    7  N1  UNL     1      10.034  11.168  -3.922  1.00  0.00    -0.303 NA
HETATM    8  H5  UNL     1      10.365  11.501  -4.822  1.00  0.00     0.124 HD
HETATM    9  H6  UNL     1      10.794  10.886  -3.312  1.00  0.00     0.124 HD
ENDBRANCH   6   7
BRANCH   3  10
HETATM   10  O1  UNL     1       5.884   7.553  -4.672  1.00  0.00    -0.361 OA
HETATM   11  H7  UNL     1       5.047   8.036  -4.757  1.00  0.00     0.217 HD
ENDBRANCH   3  10
TORSDOF 2
ENDMDL
MODEL 13
REMARK VINA RESULT:      -2.3      3.673      4.374
REMARK  2 active torsions:
REMARK  status: ('A' for Active; 'I' for Inactive)
REMARK    1  A    between atoms: C3_3  and  O1_8 
REMARK    2  A    between atoms: C6_6  and  N1_7 
ROOT
HETATM    1  C1  UNL     1       7.183   7.331  -2.520  1.00  0.00     0.026 A 
HETATM    2  C2  UNL     1       7.706   8.277  -3.404  1.00  0.00     0.038 A 
HETATM    3  C3  UNL     1       7.989   7.914  -4.713  1.00  0.00     0.065 A 
HETATM    4  C4  UNL     1       7.741   6.620  -5.157  1.00  0.00     0.038 A 
HETATM    5  C5  UNL     1       7.219   5.677  -4.266  1.00  0.00     0.026 A 
HETATM    6  C6  UNL     1       6.982   6.009  -2.928  1.00  0.00     0.005 A 
ENDROOT
BRANCH   6   7
HETATM    7  N1  UNL     1       6.349   5.096  -2.077  1.00  0.00    -0.303 NA
HETATM    8  H5  UNL     1       6.657   5.158  -1.111  1.00  0.00     0.124 HD
HETATM    9  H6  UNL     1       6.353   4.142  -2.423  1.00  0.00     0.124 HD
ENDBRANCH   6   7
BRANCH   3  10
HETATM   10  O1  UNL     1       8.496   8.866  -5.545  1.00  0.00    -0.361 OA
HETATM   11  H7  UNL     1       7.760   9.393  -5.896  1.00  0.00     0.217 HD
ENDBRANCH   3  10
TORSDOF 2
ENDMDL
MODEL 14
REMARK VINA RESULT:      -2.2      1.997      2.992
REMARK  2 active torsions:
REMARK  status: ('A' for Active; 'I' for Inactive)
REMARK    1  A    between atoms: C3_3  and  O1_8 
REMARK    2  A    between atoms: C6_6  and  N1_7 
ROOT
HETATM    1  C1  UNL     1       6.653   9.890  -3.894  1.00  0.00     0.026 A 
HETATM    2  C2  UNL     1       7.750  10.738  -3.725  1.00  0.00     0.038 A 
HETATM    3  C3  UNL     1       9.014  10.310  -4.103  1.00  0.00     0.065 A 
HETATM    4  C4  UNL     1       9.198   9.051  -4.664  1.00  0.00     0.038 A 
HETATM    5  C5  UNL     1       8.095   8.207  -4.828  1.00  0.00     0.026 A 
HETATM    6  C6  UNL     1       6.823   8.598  -4.400  1.00  0.00     0.005 A 
ENDROOT
BRANCH   6   7
HETATM    7  N1  UNL     1       5.709   7.796  -4.677  1.00  0.00    -0.303 NA
HETATM    8  H5  UNL     1       5.584   7.600  -5.665  1.00  0.00     0.124 HD
HETATM    9  H6  UNL     1       4.854   8.116  -4.235  1.00  0.00     0.124 HD
ENDBRANCH   6   7
BRANCH   3  10
HETATM   10  O1  UNL     1      10.058  11.168  -3.925  1.00  0.00    -0.361 OA
HETATM   11  H7  UNL     1       9.992  11.878  -4.583  1.00  0.00     0.217 HD
ENDBRANCH   3  10
TORSDOF 2
ENDMDL
MODEL 15
REMARK VINA RESULT:      -0.2      2.373      2.884
REMARK  2 active torsions:
REMARK  status: ('A' for Active; 'I' for Inactive)
REMARK    1  A    between atoms: C3_3  and  O1_8 
REMARK    2  A    between atoms: C6_6  and  N1_7 
ROOT
HETATM    1  C1  UNL     1       7.626   8.601  -4.069  1.00  0.00     0.026 A 
HETATM    2  C2  UNL     1       7.231   9.815  -4.635  1.00  0.00     0.038 A 
HETATM    3  C3  UNL     1       5.932   9.967  -5.101  1.00  0.00     0.065 A 
HETATM    4  C4  UNL     1       5.016   8.927  -4.994  1.00  0.00     0.038 A 
HETATM    5  C5  UNL     1       5.419   7.714  -4.428  1.00  0.00     0.026 A 
HETATM    6  C6  UNL     1       6.739   7.522  -4.007  1.00  0.00     0.005 A 
ENDROOT
BRANCH   6   7
HETATM    7  N1  UNL     1       7.101   6.349  -3.335  1.00  0.00    -0.303 NA
HETATM    8  H5  UNL     1       7.891   5.867  -3.752  1.00  0.00     0.124 HD
HETATM    9  H6  UNL     1       6.323   5.726  -3.149  1.00  0.00     0.124 HD
ENDBRANCH   6   7
BRANCH   3  10
HETATM   10  O1  UNL     1       5.585  11.168  -5.643  1.00  0.00    -0.361 OA
HETATM   11  H7  UNL     1       4.631  11.300  -5.518  1.00  0.00     0.217 HD
ENDBRANCH   3  10
TORSDOF 2
ENDMDL
