MODEL 1
REMARK VINA RESULT:      -4.4      0.000      0.000
REMARK  2 active torsions:
REMARK  status: ('A' for Active; 'I' for Inactive)
REMARK    1  A    between atoms: C3_3  and  O1_8 
REMARK    2  A    between atoms: C6_6  and  N1_7 
ROOT
HETATM    1  C1  UNL     1       9.439   5.641  -2.949  1.00  0.00     0.026 A 
HETATM    2  C2  UNL     1       9.118   6.225  -4.177  1.00  0.00     0.038 A 
HETATM    3  C3  UNL     1      10.070   6.272  -5.186  1.00  0.00     0.065 A 
HETATM    4  C4  UNL     1      11.335   5.730  -4.991  1.00  0.00     0.038 A 
HETATM    5  C5  UNL     1      11.650   5.149  -3.759  1.00  0.00     0.026 A 
HETATM    6  C6  UNL     1      10.724   5.144  -2.711  1.00  0.00     0.005 A 
ENDROOT
BRANCH   6   7
HETATM    7  N1  UNL     1      11.006   4.456  -1.525  1.00  0.00    -0.303 NA
HETATM    8  H5  UNL     1      10.320   4.608  -0.793  1.00  0.00     0.124 HD
HETATM    9  H6  UNL     1      11.957   4.580  -1.195  1.00  0.00     0.124 HD
ENDBRANCH   6   7
BRANCH   3  10
HETATM   10  O1  UNL     1       9.717   6.847  -6.370  1.00  0.00    -0.361 OA
HETATM   11  H7  UNL     1       9.415   7.753  -6.196  1.00  0.00     0.217 HD
ENDBRANCH   3  10
TORSDOF 2
ENDMDL
MODEL 2
REMARK VINA RESULT:      -4.4      0.353      1.716
REMARK  2 active torsions:
REMARK  status: ('A' for Active; 'I' for Inactive)
REMARK    1  A    between atoms: C3_3  and  O1_8 
REMARK    2  A    between atoms: C6_6  and  N1_7 
ROOT
HETATM    1  C1  UNL     1      11.711   5.710  -3.699  1.00  0.00     0.026 A 
HETATM    2  C2  UNL     1      11.353   6.250  -4.936  1.00  0.00     0.038 A 
HETATM    3  C3  UNL     1      10.016   6.483  -5.225  1.00  0.00     0.065 A 
HETATM    4  C4  UNL     1       9.030   6.199  -4.286  1.00  0.00     0.038 A 
HETATM    5  C5  UNL     1       9.395   5.658  -3.050  1.00  0.00     0.026 A 
HETATM    6  C6  UNL     1      10.732   5.361  -2.764  1.00  0.00     0.005 A 
ENDROOT
BRANCH   6   7
HETATM    7  N1  UNL     1      11.100   4.932  -1.484  1.00  0.00    -0.303 NA
HETATM    8  H5  UNL     1      12.087   4.713  -1.395  1.00  0.00     0.124 HD
HETATM    9  H6  UNL     1      10.506   4.199  -1.110  1.00  0.00     0.124 HD
ENDBRANCH   6   7
BRANCH   3  10
HETATM   10  O1  UNL     1       9.708   7.013  -6.441  1.00  0.00    -0.361 OA
HETATM   11  H7  UNL     1       8.914   6.571  -6.780  1.00  0.00     0.217 HD
ENDBRANCH   3  10
TORSDOF 2
ENDMDL
MODEL 3
REMARK VINA RESULT:      -4.4      2.847      3.322
REMARK  2 active torsions:
REMARK  status: ('A' for Active; 'I' for Inactive)
REMARK    1  A    between atoms: C3_3  and  O1_8 
REMARK    2  A    between atoms: C6_6  and  N1_7 
ROOT
HETATM    1  C1  UNL     1       9.199   6.296  -4.359  1.00  0.00     0.026 A 
HETATM    2  C2  UNL     1       9.541   5.741  -3.124  1.00  0.00     0.038 A 
HETATM    3  C3  UNL     1      10.876   5.637  -2.763  1.00  0.00     0.065 A 
HETATM    4  C4  UNL     1      11.877   6.095  -3.612  1.00  0.00     0.038 A 
HETATM    5  C5  UNL     1      11.528   6.649  -4.848  1.00  0.00     0.026 A 
HETATM    6  C6  UNL     1      10.191   6.708  -5.254  1.00  0.00     0.005 A 
ENDROOT
BRANCH   6   7
HETATM    7  N1  UNL     1       9.843   7.371  -6.437  1.00  0.00    -0.303 NA
HETATM    8  H5  UNL     1       9.191   6.853  -7.018  1.00  0.00     0.124 HD
HETATM    9  H6  UNL     1      10.639   7.716  -6.963  1.00  0.00     0.124 HD
ENDBRANCH   6   7
BRANCH   3  10
HETATM   10  O1  UNL     1      11.169   5.092  -1.549  1.00  0.00    -0.361 OA
HETATM   11  H7  UNL     1      10.562   4.352  -1.387  1.00  0.00     0.217 HD
ENDBRANCH   3  10
TORSDOF 2
ENDMDL
MODEL 4
REMARK VINA RESULT:      -4.3      2.880      3.707
REMARK  2 active torsions:
REMARK  status: ('A' for Active; 'I' for Inactive)
REMARK    1  A    between atoms: C3_3  and  O1_8 
REMARK    2  A    between atoms: C6_6  and  N1_7 
ROOT
HETATM    1  C1  UNL     1      11.509   6.897  -4.733  1.00  0.00     0.026 A 
HETATM    2  C2  UNL     1      11.839   6.307  -3.511  1.00  0.00     0.038 A 
HETATM    3  C3  UNL     1      10.848   5.706  -2.748  1.00  0.00     0.065 A 
HETATM    4  C4  UNL     1       9.532   5.671  -3.197  1.00  0.00     0.038 A 
HETATM    5  C5  UNL     1       9.210   6.265  -4.420  1.00  0.00     0.026 A 
HETATM    6  C6  UNL     1      10.183   6.927  -5.175  1.00  0.00     0.005 A 
ENDROOT
BRANCH   6   7
HETATM    7  N1  UNL     1       9.876   7.413  -6.451  1.00  0.00    -0.303 NA
HETATM    8  H5  UNL     1       8.978   7.096  -6.803  1.00  0.00     0.124 HD
HETATM    9  H6  UNL     1      10.621   7.289  -7.128  1.00  0.00     0.124 HD
ENDBRANCH   6   7
BRANCH   3  10
HETATM   10  O1  UNL     1      11.210   5.138  -1.563  1.00  0.00    -0.361 OA
HETATM   11  H7  UNL     1      12.167   5.248  -1.447  1.00  0.00     0.217 HD
ENDBRANCH   3  10
TORSDOF 2
ENDMDL
MODEL 5
REMARK VINA RESULT:      -4.2      3.014      3.956
REMARK  2 active torsions:
REMARK  status: ('A' for Active; 'I' for Inactive)
REMARK    1  A    between atoms: C3_3  and  O1_8 
REMARK    2  A    between atoms: C6_6  and  N1_7 
ROOT
HETATM    1  C1  UNL     1       9.853   5.756  -3.997  1.00  0.00     0.026 A 
HETATM    2  C2  UNL     1       9.234   5.237  -2.858  1.00  0.00     0.038 A 
HETATM    3  C3  UNL     1       7.873   5.432  -2.665  1.00  0.00     0.065 A 
HETATM    4  C4  UNL     1       7.118   6.125  -3.605  1.00  0.00     0.038 A 
HETATM    5  C5  UNL     1       7.745   6.642  -4.742  1.00  0.00     0.026 A 
HETATM    6  C6  UNL     1       9.125   6.507  -4.924  1.00  0.00     0.005 A 
ENDROOT
BRANCH   6   7
HETATM    7  N1  UNL     1       9.722   6.923  -6.120  1.00  0.00    -0.303 NA
HETATM    8  H5  UNL     1      10.475   6.318  -6.432  1.00  0.00     0.124 HD
HETATM    9  H6  UNL     1       9.986   7.903  -6.128  1.00  0.00     0.124 HD
ENDBRANCH   6   7
BRANCH   3  10
HETATM   10  O1  UNL     1       7.306   4.908  -1.543  1.00  0.00    -0.361 OA
HETATM   11  H7  UNL     1       7.950   4.957  -0.818  1.00  0.00     0.217 HD
ENDBRANCH   3  10
TORSDOF 2
ENDMDL
MODEL 6
REMARK VINA RESULT:      -4.1      3.067      3.569
REMARK  2 active torsions:
REMARK  status: ('A' for Active; 'I' for Inactive)
REMARK    1  A    between atoms: C3_3  and  O1_8 
REMARK    2  A    between atoms: C6_6  and  N1_7 
ROOT
HETATM    1  C1  UNL     1      10.821   5.725  -3.912  1.00  0.00     0.026 A 
HETATM    2  C2  UNL     1      11.803   6.055  -2.976  1.00  0.00     0.038 A 
HETATM    3  C3  UNL     1      12.609   7.164  -3.188  1.00  0.00     0.065 A 
HETATM    4  C4  UNL     1      12.437   7.960  -4.315  1.00  0.00     0.038 A 
HETATM    5  C5  UNL     1      11.452   7.622  -5.248  1.00  0.00     0.026 A 
HETATM    6  C6  UNL     1      10.670   6.475  -5.082  1.00  0.00     0.005 A 
ENDROOT
BRANCH   6   7
HETATM    7  N1  UNL     1       9.610   6.212  -5.957  1.00  0.00    -0.303 NA
HETATM    8  H5  UNL     1       9.088   5.373  -5.726  1.00  0.00     0.124 HD
HETATM    9  H6  UNL     1       9.869   6.248  -6.938  1.00  0.00     0.124 HD
ENDBRANCH   6   7
BRANCH   3  10
HETATM   10  O1  UNL     1      13.554   7.455  -2.250  1.00  0.00    -0.361 OA
HETATM   11  H7  UNL     1      14.418   7.155  -2.577  1.00  0.00     0.217 HD
ENDBRANCH   3  10
TORSDOF 2
ENDMDL
MODEL 7
REMARK VINA RESULT:      -4.0      2.066      2.623
REMARK  2 active torsions:
REMARK  status: ('A' for Active; 'I' for Inactive)
REMARK    1  A    between atoms: C3_3  and  O1_8 
REMARK    2  A    between atoms: C6_6  and  N1_7 
ROOT
HETATM    1  C1  UNL     1      12.407   5.808  -3.926  1.00  0.00     0.026 A 
HETATM    2  C2  UNL     1      11.386   5.614  -4.859  1.00  0.00     0.038 A 
HETATM    3  C3  UNL     1      10.617   6.693  -5.272  1.00  0.00     0.065 A 
HETATM    4  C4  UNL     1      10.865   7.969  -4.777  1.00  0.00     0.038 A 
HETATM    5  C5  UNL     1      11.887   8.155  -3.842  1.00  0.00     0.026 A 
HETATM    6  C6  UNL     1      12.634   7.071  -3.370  1.00  0.00     0.005 A 
ENDROOT
BRANCH   6   7
HETATM    7  N1  UNL     1      13.730   7.284  -2.527  1.00  0.00    -0.303 NA
HETATM    8  H5  UNL     1      13.511   7.838  -1.705  1.00  0.00     0.124 HD
HETATM    9  H6  UNL     1      14.559   7.617  -3.008  1.00  0.00     0.124 HD
ENDBRANCH   6   7
BRANCH   3  10
HETATM   10  O1  UNL     1       9.633   6.463  -6.186  1.00  0.00    -0.361 OA
HETATM   11  H7  UNL     1       8.776   6.655  -5.773  1.00  0.00     0.217 HD
ENDBRANCH   3  10
TORSDOF 2
ENDMDL
MODEL 8
REMARK VINA RESULT:      -4.0      2.830      3.665
REMARK  2 active torsions:
REMARK  status: ('A' for Active; 'I' for Inactive)
REMARK    1  A    between atoms: C3_3  and  O1_8 
REMARK    2  A    between atoms: C6_6  and  N1_7 
ROOT
HETATM    1  C1  UNL     1       9.352   6.329  -5.106  1.00  0.00     0.026 A 
HETATM    2  C2  UNL     1      10.018   7.556  -5.078  1.00  0.00     0.038 A 
HETATM    3  C3  UNL     1       9.343   8.696  -4.667  1.00  0.00     0.065 A 
HETATM    4  C4  UNL     1       8.014   8.626  -4.265  1.00  0.00     0.038 A 
HETATM    5  C5  UNL     1       7.353   7.394  -4.296  1.00  0.00     0.026 A 
HETATM    6  C6  UNL     1       7.999   6.245  -4.763  1.00  0.00     0.005 A 
ENDROOT
BRANCH   6   7
HETATM    7  N1  UNL     1       7.368   4.998  -4.679  1.00  0.00    -0.303 NA
HETATM    8  H5  UNL     1       6.480   4.957  -5.167  1.00  0.00     0.124 HD
HETATM    9  H6  UNL     1       7.307   4.633  -3.734  1.00  0.00     0.124 HD
ENDBRANCH   6   7
BRANCH   3  10
HETATM   10  O1  UNL     1      10.029   9.874  -4.651  1.00  0.00    -0.361 OA
HETATM   11  H7  UNL     1      10.935   9.708  -4.956  1.00  0.00     0.217 HD
ENDBRANCH   3  10
TORSDOF 2
ENDMDL
MODEL 9
REMARK VINA RESULT:      -3.9      3.312      4.078
REMARK  2 active torsions:
REMARK  status: ('A' for Active; 'I' for Inactive)
REMARK    1  A    between atoms: C3_3  and  O1_8 
REMARK    2  A    between atoms: C6_6  and  N1_7 
ROOT
HETATM    1  C1  UNL     1      13.006   7.592  -4.569  1.00  0.00     0.026 A 
HETATM    2  C2  UNL     1      12.801   6.862  -3.396  1.00  0.00     0.038 A 
HETATM    3  C3  UNL     1      11.557   6.303  -3.142  1.00  0.00     0.065 A 
HETATM    4  C4  UNL     1      10.516   6.448  -4.053  1.00  0.00     0.038 A 
HETATM    5  C5  UNL     1      10.728   7.181  -5.224  1.00  0.00     0.026 A 
HETATM    6  C6  UNL     1      11.957   7.802  -5.470  1.00  0.00     0.005 A 
ENDROOT
BRANCH   6   7
HETATM    7  N1  UNL     1      12.196   8.431  -6.697  1.00  0.00    -0.303 NA
HETATM    8  H5  UNL     1      13.129   8.267  -7.064  1.00  0.00     0.124 HD
HETATM    9  H6  UNL     1      11.943   9.413  -6.711  1.00  0.00     0.124 HD
ENDBRANCH   6   7
BRANCH   3  10
HETATM   10  O1  UNL     1      11.398   5.595  -1.988  1.00  0.00    -0.361 OA
HETATM   11  H7  UNL     1      11.705   6.141  -1.246  1.00  0.00     0.217 HD
ENDBRANCH   3  10
TORSDOF 2
ENDMDL
MODEL 10
REMARK VINA RESULT:      -3.9      1.976      2.914
REMARK  2 active torsions:
REMARK  status: ('A' for Active; 'I' for Inactive)
REMARK    1  A    between atoms: C3_3  and  O1_8 
REMARK    2  A    between atoms: C6_6  and  N1_7 
ROOT
HETATM    1  C1  UNL     1       9.088   5.707  -3.555  1.00  0.00     0.026 A 
HETATM    2  C2  UNL     1       9.715   6.251  -4.679  1.00  0.00     0.038 A 
HETATM    3  C3  UNL     1       9.185   7.381  -5.283  1.00  0.00     0.065 A 
HETATM    4  C4  UNL     1       8.043   7.988  -4.771  1.00  0.00     0.038 A 
HETATM    5  C5  UNL     1       7.420   7.438  -3.647  1.00  0.00     0.026 A 
HETATM    6  C6  UNL     1       7.906   6.265  -3.059  1.00  0.00     0.005 A 
ENDROOT
BRANCH   6   7
HETATM    7  N1  UNL     1       7.348   5.791  -1.867  1.00  0.00    -0.303 NA
HETATM    8  H5  UNL     1       7.179   4.790  -1.866  1.00  0.00     0.124 HD
HETATM    9  H6  UNL     1       6.541   6.319  -1.552  1.00  0.00     0.124 HD
ENDBRANCH   6   7
BRANCH   3  10
HETATM   10  O1  UNL     1       9.827   7.883  -6.375  1.00  0.00    -0.361 OA
HETATM   11  H7  UNL     1       9.641   8.833  -6.435  1.00  0.00     0.217 HD
ENDBRANCH   3  10
TORSDOF 2
ENDMDL
MODEL 11
REMARK VINA RESULT:      -3.9      1.572      1.851
REMARK  2 active torsions:
REMARK  status: ('A' for Active; 'I' for Inactive)
REMARK    1  A    between atoms: C3_3  and  O1_8 
REMARK    2  A    between atoms: C6_6  and  N1_7 
ROOT
HETATM    1  C1  UNL     1      10.346   5.831  -2.906  1.00  0.00     0.026 A 
HETATM    2  C2  UNL     1       9.144   5.641  -3.592  1.00  0.00     0.038 A 
HETATM    3  C3  UNL     1       9.014   6.105  -4.893  1.00  0.00     0.065 A 
HETATM    4  C4  UNL     1      10.075   6.743  -5.527  1.00  0.00     0.038 A 
HETATM    5  C5  UNL     1      11.274   6.932  -4.833  1.00  0.00     0.026 A 
HETATM    6  C6  UNL     1      11.404   6.523  -3.502  1.00  0.00     0.005 A 
ENDROOT
BRANCH   6   7
HETATM    7  N1  UNL     1      12.643   6.608  -2.857  1.00  0.00    -0.303 NA
HETATM    8  H5  UNL     1      12.618   6.318  -1.884  1.00  0.00     0.124 HD
HETATM    9  H6  UNL     1      13.111   7.500  -2.981  1.00  0.00     0.124 HD
ENDBRANCH   6   7
BRANCH   3  10
HETATM   10  O1  UNL     1       7.827   5.897  -5.529  1.00  0.00    -0.361 OA
HETATM   11  H7  UNL     1       7.109   5.992  -4.884  1.00  0.00     0.217 HD
ENDBRANCH   3  10
TORSDOF 2
ENDMDL
MODEL 12
REMARK VINA RESULT:      -3.9      1.464      1.770
REMARK  2 active torsions:
REMARK  status: ('A' for Active; 'I' for Inactive)
REMARK    1  A    between atoms: C3_3  and  O1_8 
REMARK    2  A    between atoms: C6_6  and  N1_7 
ROOT
HETATM    1  C1  UNL     1       8.210   6.425  -2.994  1.00  0.00     0.026 A 
HETATM    2  C2  UNL     1       7.887   7.419  -3.920  1.00  0.00     0.038 A 
HETATM    3  C3  UNL     1       8.737   7.666  -4.988  1.00  0.00     0.065 A 
HETATM    4  C4  UNL     1       9.901   6.922  -5.154  1.00  0.00     0.038 A 
HETATM    5  C5  UNL     1      10.218   5.930  -4.222  1.00  0.00     0.026 A 
HETATM    6  C6  UNL     1       9.404   5.706  -3.107  1.00  0.00     0.005 A 
ENDROOT
BRANCH   6   7
HETATM    7  N1  UNL     1       9.667   4.634  -2.246  1.00  0.00    -0.303 NA
HETATM    8  H5  UNL     1      10.563   4.187  -2.413  1.00  0.00     0.124 HD
HETATM    9  H6  UNL     1       8.907   3.965  -2.181  1.00  0.00     0.124 HD
ENDBRANCH   6   7
BRANCH   3  10
HETATM   10  O1  UNL     1       8.385   8.642  -5.872  1.00  0.00    -0.361 OA
HETATM   11  H7  UNL     1       8.735   8.408  -6.747  1.00  0.00     0.217 HD
ENDBRANCH   3  10
TORSDOF 2
ENDMDL
MODEL 13
REMARK VINA RESULT:      -3.8      2.795      3.244
REMARK  2 active torsions:
REMARK  status: ('A' for Active; 'I' for Inactive)
REMARK    1  A    between atoms: C3_3  and  O1_8 
REMARK    2  A    between atoms: C6_6  and  N1_7 
ROOT
HETATM    1  C1  UNL     1       9.891   6.384  -4.012  1.00  0.00     0.026 A 
HETATM    2  C2  UNL     1       9.697   5.509  -2.941  1.00  0.00     0.038 A 
HETATM    3  C3  UNL     1      10.671   4.569  -2.636  1.00  0.00     0.065 A 
HETATM    4  C4  UNL     1      11.845   4.500  -3.376  1.00  0.00     0.038 A 
HETATM    5  C5  UNL     1      12.032   5.378  -4.448  1.00  0.00     0.026 A 
HETATM    6  C6  UNL     1      11.038   6.293  -4.808  1.00  0.00     0.005 A 
ENDROOT
BRANCH   6   7
HETATM    7  N1  UNL     1      11.283   7.245  -5.804  1.00  0.00    -0.303 NA
HETATM    8  H5  UNL     1      11.645   6.850  -6.666  1.00  0.00     0.124 HD
HETATM    9  H6  UNL     1      11.825   8.041  -5.486  1.00  0.00     0.124 HD
ENDBRANCH   6   7
BRANCH   3  10
HETATM   10  O1  UNL     1      10.445   3.735  -1.581  1.00  0.00    -0.361 OA
HETATM   11  H7  UNL     1      10.577   4.234  -0.759  1.00  0.00     0.217 HD
ENDBRANCH   3  10
TORSDOF 2
ENDMDL
MODEL 14
REMARK VINA RESULT:      -3.8      3.039      3.787
REMARK  2 active torsions:
REMARK  status: ('A' for Active; 'I' for Inactive)
REMARK    1  A    between atoms: C3_3  and  O1_8 
REMARK    2  A    between atoms: C6_6  and  N1_7 
ROOT
HETATM    1  C1  UNL     1      10.727   7.469  -5.258  1.00  0.00     0.026 A 
HETATM    2  C2  UNL     1       9.845   6.400  -5.429  1.00  0.00     0.038 A 
HETATM    3  C3  UNL     1       8.499   6.564  -5.133  1.00  0.00     0.065 A 
HETATM    4  C4  UNL     1       8.018   7.789  -4.684  1.00  0.00     0.038 A 
HETATM    5  C5  UNL     1       8.908   8.855  -4.514  1.00  0.00     0.026 A 
HETATM    6  C6  UNL     1      10.276   8.691  -4.751  1.00  0.00     0.005 A 
ENDROOT
BRANCH   6   7
HETATM    7  N1  UNL     1      11.138   9.792  -4.693  1.00  0.00    -0.303 NA
HETATM    8  H5  UNL     1      12.092   9.551  -4.445  1.00  0.00     0.124 HD
HETATM    9  H6  UNL     1      10.780  10.565  -4.143  1.00  0.00     0.124 HD
ENDBRANCH   6   7
BRANCH   3  10
HETATM   10  O1  UNL     1       7.670   5.498  -5.315  1.00  0.00    -0.361 OA
HETATM   11  H7  UNL     1       8.130   4.695  -5.023  1.00  0.00     0.217 HD
ENDBRANCH   3  10
TORSDOF 2
ENDMDL
MODEL 15
REMARK VINA RESULT:      -3.8      3.229      3.879
REMARK  2 active torsions:
REMARK  status: ('A' for Active; 'I' for Inactive)
REMARK    1  A    between atoms: C3_3  and  O1_8 
REMARK    2  A    between atoms: C6_6  and  N1_7 
ROOT
HETATM    1  C1  UNL     1       7.329   7.509  -3.476  1.00  0.00     0.026 A 
HETATM    2  C2  UNL     1       7.777   6.432  -2.708  1.00  0.00     0.038 A 
HETATM    3  C3  UNL     1       8.941   5.768  -3.067  1.00  0.00     0.065 A 
HETATM    4  C4  UNL     1       9.675   6.175  -4.176  1.00  0.00     0.038 A 
HETATM    5  C5  UNL     1       9.220   7.254  -4.941  1.00  0.00     0.026 A 
HETATM    6  C6  UNL     1       8.019   7.898  -4.628  1.00  0.00     0.005 A 
ENDROOT
BRANCH   6   7
HETATM    7  N1  UNL     1       7.634   9.048  -5.326  1.00  0.00    -0.303 NA
HETATM    8  H5  UNL     1       8.085   9.896  -4.996  1.00  0.00     0.124 HD
HETATM    9  H6  UNL     1       6.629   9.157  -5.417  1.00  0.00     0.124 HD
ENDBRANCH   6   7
BRANCH   3  10
HETATM   10  O1  UNL     1       9.346   4.724  -2.291  1.00  0.00    -0.361 OA
HETATM   11  H7  UNL     1       9.880   5.071  -1.558  1.00  0.00     0.217 HD
ENDBRANCH   3  10
TORSDOF 2
ENDMDL
MODEL 16
REMARK VINA RESULT:      -3.8      4.500      5.193
REMARK  2 active torsions:
REMARK  status: ('A' for Active; 'I' for Inactive)
REMARK    1  A    between atoms: C3_3  and  O1_8 
REMARK    2  A    between atoms: C6_6  and  N1_7 
ROOT
HETATM    1  C1  UNL     1      12.852   7.148  -5.164  1.00  0.00     0.026 A 
HETATM    2  C2  UNL     1      13.284   6.919  -3.856  1.00  0.00     0.038 A 
HETATM    3  C3  UNL     1      13.725   7.982  -3.081  1.00  0.00     0.065 A 
HETATM    4  C4  UNL     1      13.725   9.277  -3.590  1.00  0.00     0.038 A 
HETATM    5  C5  UNL     1      13.293   9.498  -4.901  1.00  0.00     0.026 A 
HETATM    6  C6  UNL     1      12.900   8.432  -5.716  1.00  0.00     0.005 A 
ENDROOT
BRANCH   6   7
HETATM    7  N1  UNL     1      12.358   8.676  -6.983  1.00  0.00    -0.303 NA
HETATM    8  H5  UNL     1      12.510   7.921  -7.644  1.00  0.00     0.124 HD
HETATM    9  H6  UNL     1      12.604   9.582  -7.367  1.00  0.00     0.124 HD
ENDBRANCH   6   7
BRANCH   3  10
HETATM   10  O1  UNL     1      14.136   7.718  -1.809  1.00  0.00    -0.361 OA
HETATM   11  H7  UNL     1      14.935   8.237  -1.628  1.00  0.00     0.217 HD
ENDBRANCH   3  10
TORSDOF 2
ENDMDL
MODEL 17
REMARK VINA RESULT:      -3.8      2.791      3.622
REMARK  2 active torsions:
REMARK  status: ('A' for Active; 'I' for Inactive)
REMARK    1  A    between atoms: C3_3  and  O1_8 
REMARK    2  A    between atoms: C6_6  and  N1_7 
ROOT
HETATM    1  C1  UNL     1      12.138   5.268  -4.333  1.00  0.00     0.026 A 
HETATM    2  C2  UNL     1      11.774   4.394  -3.306  1.00  0.00     0.038 A 
HETATM    3  C3  UNL     1      10.581   4.592  -2.626  1.00  0.00     0.065 A 
HETATM    4  C4  UNL     1       9.736   5.641  -2.969  1.00  0.00     0.038 A 
HETATM    5  C5  UNL     1      10.107   6.512  -3.998  1.00  0.00     0.026 A 
HETATM    6  C6  UNL     1      11.333   6.365  -4.655  1.00  0.00     0.005 A 
ENDROOT
BRANCH   6   7
HETATM    7  N1  UNL     1      11.641   7.166  -5.760  1.00  0.00    -0.303 NA
HETATM    8  H5  UNL     1      11.643   8.161  -5.555  1.00  0.00     0.124 HD
HETATM    9  H6  UNL     1      11.104   6.944  -6.591  1.00  0.00     0.124 HD
ENDBRANCH   6   7
BRANCH   3  10
HETATM   10  O1  UNL     1      10.260   3.717  -1.632  1.00  0.00    -0.361 OA
HETATM   11  H7  UNL     1       9.315   3.810  -1.430  1.00  0.00     0.217 HD
ENDBRANCH   3  10
TORSDOF 2
ENDMDL
MODEL 18
REMARK VINA RESULT:      -3.7      3.354      3.739
REMARK  2 active torsions:
REMARK  status: ('A' for Active; 'I' for Inactive)
REMARK    1  A    between atoms: C3_3  and  O1_8 
REMARK    2  A    between atoms: C6_6  and  N1_7 
ROOT
HETATM    1  C1  UNL     1      12.825   7.204  -3.053  1.00  0.00     0.026 A 
HETATM    2  C2  UNL     1      11.953   7.348  -4.134  1.00  0.00     0.038 A 
HETATM    3  C3  UNL     1      12.393   7.968  -5.295  1.00  0.00     0.065 A 
HETATM    4  C4  UNL     1      13.699   8.433  -5.397  1.00  0.00     0.038 A 
HETATM    5  C5  UNL     1      14.566   8.286  -4.310  1.00  0.00     0.026 A 
HETATM    6  C6  UNL     1      14.124   7.717  -3.112  1.00  0.00     0.005 A 
ENDROOT
BRANCH   6   7
HETATM    7  N1  UNL     1      15.030   7.467  -2.074  1.00  0.00    -0.303 NA
HETATM    8  H5  UNL     1      14.877   6.580  -1.605  1.00  0.00     0.124 HD
HETATM    9  H6  UNL     1      15.128   8.237  -1.421  1.00  0.00     0.124 HD
ENDBRANCH   6   7
BRANCH   3  10
HETATM   10  O1  UNL     1      11.513   8.087  -6.328  1.00  0.00    -0.361 OA
HETATM   11  H7  UNL     1      11.063   8.944  -6.255  1.00  0.00     0.217 HD
ENDBRANCH   3  10
TORSDOF 2
ENDMDL
MODEL 19
REMARK VINA RESULT:      -3.7      2.545      3.073
REMARK  2 active torsions:
REMARK  status: ('A' for Active; 'I' for Inactive)
REMARK    1  A    between atoms: C3_3  and  O1_8 
REMARK    2  A    between atoms: C6_6  and  N1_7 
ROOT
HETATM    1  C1  UNL     1       8.660   5.721  -3.215  1.00  0.00     0.026 A 
HETATM    2  C2  UNL     1       9.949   5.258  -2.941  1.00  0.00     0.038 A 
HETATM    3  C3  UNL     1      10.956   5.430  -3.880  1.00  0.00     0.065 A 
HETATM    4  C4  UNL     1      10.697   6.074  -5.085  1.00  0.00     0.038 A 
HETATM    5  C5  UNL     1       9.404   6.533  -5.353  1.00  0.00     0.026 A 
HETATM    6  C6  UNL     1       8.363   6.317  -4.444  1.00  0.00     0.005 A 
ENDROOT
BRANCH   6   7
HETATM    7  N1  UNL     1       7.103   6.884  -4.667  1.00  0.00    -0.303 NA
HETATM    8  H5  UNL     1       6.334   6.238  -4.520  1.00  0.00     0.124 HD
HETATM    9  H6  UNL     1       7.027   7.381  -5.548  1.00  0.00     0.124 HD
ENDBRANCH   6   7
BRANCH   3  10
HETATM   10  O1  UNL     1      12.200   4.967  -3.574  1.00  0.00    -0.361 OA
HETATM   11  H7  UNL     1      12.589   5.546  -2.899  1.00  0.00     0.217 HD
ENDBRANCH   3  10
TORSDOF 2
ENDMDL
MODEL 20
REMARK VINA RESULT:      -3.7      2.530      3.295
REMARK  2 active torsions:
REMARK  status: ('A' for Active; 'I' for Inactive)
REMARK    1  A    between atoms: C3_3  and  O1_8 
REMARK    2  A    between atoms: C6_6  and  N1_7 
ROOT
HETATM    1  C1  UNL     1       9.295   6.643  -5.347  1.00  0.00     0.026 A 
HETATM    2  C2  UNL     1      10.580   6.135  -5.143  1.00  0.00     0.038 A 
HETATM    3  C3  UNL     1      10.883   5.488  -3.954  1.00  0.00     0.065 A 
HETATM    4  C4  UNL     1       9.915   5.324  -2.970  1.00  0.00     0.038 A 
HETATM    5  C5  UNL     1       8.631   5.836  -3.181  1.00  0.00     0.026 A 
HETATM    6  C6  UNL     1       8.323   6.543  -4.347  1.00  0.00     0.005 A 
ENDROOT
BRANCH   6   7
HETATM    7  N1  UNL     1       7.006   6.946  -4.600  1.00  0.00    -0.303 NA
HETATM    8  H5  UNL     1       6.308   6.280  -4.284  1.00  0.00     0.124 HD
HETATM    9  H6  UNL     1       6.846   7.249  -5.555  1.00  0.00     0.124 HD
ENDBRANCH   6   7
BRANCH   3  10
HETATM   10  O1  UNL     1      12.147   5.005  -3.795  1.00  0.00    -0.361 OA
HETATM   11  H7  UNL     1      12.116   4.035  -3.835  1.00  0.00     0.217 HD
ENDBRANCH   3  10
TORSDOF 2
ENDMDL
