MODEL 1
REMARK VINA RESULT:      -3.2      0.000      0.000
REMARK  2 active torsions:
REMARK  status: ('A' for Active; 'I' for Inactive)
REMARK    1  A    between atoms: C3_3  and  O1_8 
REMARK    2  A    between atoms: C6_6  and  N1_7 
ROOT
HETATM    1  C1  UNL     1      17.522   4.778  -4.459  1.00  0.00     0.026 A 
HETATM    2  C2  UNL     1      16.606   3.949  -5.111  1.00  0.00     0.038 A 
HETATM    3  C3  UNL     1      16.630   2.581  -4.880  1.00  0.00     0.065 A 
HETATM    4  C4  UNL     1      17.547   2.029  -3.992  1.00  0.00     0.038 A 
HETATM    5  C5  UNL     1      18.461   2.865  -3.343  1.00  0.00     0.026 A 
HETATM    6  C6  UNL     1      18.491   4.238  -3.608  1.00  0.00     0.005 A 
ENDROOT
BRANCH   6   7
HETATM    7  N1  UNL     1      19.327   5.081  -2.867  1.00  0.00    -0.303 NA
HETATM    8  H5  UNL     1      20.121   5.433  -3.393  1.00  0.00     0.124 HD
HETATM    9  H6  UNL     1      19.600   4.701  -1.967  1.00  0.00     0.124 HD
ENDBRANCH   6   7
BRANCH   3  10
HETATM   10  O1  UNL     1      15.719   1.807  -5.533  1.00  0.00    -0.361 OA
HETATM   11  H7  UNL     1      14.836   2.010  -5.188  1.00  0.00     0.217 HD
ENDBRANCH   3  10
TORSDOF 2
ENDMDL
MODEL 2
REMARK VINA RESULT:      -3.2      1.582      2.239
REMARK  2 active torsions:
REMARK  status: ('A' for Active; 'I' for Inactive)
REMARK    1  A    between atoms: C3_3  and  O1_8 
REMARK    2  A    between atoms: C6_6  and  N1_7 
ROOT
HETATM    1  C1  UNL     1      19.142   3.820  -3.801  1.00  0.00     0.026 A 
HETATM    2  C2  UNL     1      19.206   2.780  -4.731  1.00  0.00     0.038 A 
HETATM    3  C3  UNL     1      18.261   2.704  -5.745  1.00  0.00     0.065 A 
HETATM    4  C4  UNL     1      17.261   3.664  -5.853  1.00  0.00     0.038 A 
HETATM    5  C5  UNL     1      17.202   4.702  -4.918  1.00  0.00     0.026 A 
HETATM    6  C6  UNL     1      18.110   4.762  -3.855  1.00  0.00     0.005 A 
ENDROOT
BRANCH   6   7
HETATM    7  N1  UNL     1      18.117   5.867  -2.996  1.00  0.00    -0.303 NA
HETATM    8  H5  UNL     1      18.290   6.749  -3.468  1.00  0.00     0.124 HD
HETATM    9  H6  UNL     1      18.702   5.745  -2.177  1.00  0.00     0.124 HD
ENDBRANCH   6   7
BRANCH   3  10
HETATM   10  O1  UNL     1      18.360   1.676  -6.633  1.00  0.00    -0.361 OA
HETATM   11  H7  UNL     1      18.628   0.876  -6.154  1.00  0.00     0.217 HD
ENDBRANCH   3  10
TORSDOF 2
ENDMDL
MODEL 3
REMARK VINA RESULT:      -3.1     11.097     11.581
REMARK  2 active torsions:
REMARK  status: ('A' for Active; 'I' for Inactive)
REMARK    1  A    between atoms: C3_3  and  O1_8 
REMARK    2  A    between atoms: C6_6  and  N1_7 
ROOT
HETATM    1  C1  UNL     1      27.456   6.866 -10.492  1.00  0.00     0.026 A 
HETATM    2  C2  UNL     1      27.257   5.489 -10.371  1.00  0.00     0.038 A 
HETATM    3  C3  UNL     1      27.244   4.904  -9.112  1.00  0.00     0.065 A 
HETATM    4  C4  UNL     1      27.413   5.679  -7.970  1.00  0.00     0.038 A 
HETATM    5  C5  UNL     1      27.613   7.056  -8.099  1.00  0.00     0.026 A 
HETATM    6  C6  UNL     1      27.687   7.655  -9.361  1.00  0.00     0.005 A 
ENDROOT
BRANCH   6   7
HETATM    7  N1  UNL     1      27.769   9.047  -9.477  1.00  0.00    -0.303 NA
HETATM    8  H5  UNL     1      28.287   9.490  -8.724  1.00  0.00     0.124 HD
HETATM    9  H6  UNL     1      26.876   9.498  -9.647  1.00  0.00     0.124 HD
ENDBRANCH   6   7
BRANCH   3  10
HETATM   10  O1  UNL     1      27.044   3.559  -9.036  1.00  0.00    -0.361 OA
HETATM   11  H7  UNL     1      27.225   3.270  -8.127  1.00  0.00     0.217 HD
ENDBRANCH   3  10
TORSDOF 2
ENDMDL
MODEL 4
REMARK VINA RESULT:      -3.1     12.594     13.158
REMARK  2 active torsions:
REMARK  status: ('A' for Active; 'I' for Inactive)
REMARK    1  A    between atoms: C3_3  and  O1_8 
REMARK    2  A    between atoms: C6_6  and  N1_7 
ROOT
HETATM    1  C1  UNL     1      29.512   7.591  -9.244  1.00  0.00     0.026 A 
HETATM    2  C2  UNL     1      30.043   6.334  -9.543  1.00  0.00     0.038 A 
HETATM    3  C3  UNL     1      29.255   5.390 -10.186  1.00  0.00     0.065 A 
HETATM    4  C4  UNL     1      27.947   5.690 -10.551  1.00  0.00     0.038 A 
HETATM    5  C5  UNL     1      27.422   6.950 -10.247  1.00  0.00     0.026 A 
HETATM    6  C6  UNL     1      28.181   7.893  -9.548  1.00  0.00     0.005 A 
ENDROOT
BRANCH   6   7
HETATM    7  N1  UNL     1      27.691   9.190  -9.354  1.00  0.00    -0.303 NA
HETATM    8  H5  UNL     1      26.702   9.222  -9.127  1.00  0.00     0.124 HD
HETATM    9  H6  UNL     1      27.938   9.837 -10.095  1.00  0.00     0.124 HD
ENDBRANCH   6   7
BRANCH   3  10
HETATM   10  O1  UNL     1      29.809   4.177 -10.462  1.00  0.00    -0.361 OA
HETATM   11  H7  UNL     1      30.113   4.177 -11.384  1.00  0.00     0.217 HD
ENDBRANCH   3  10
TORSDOF 2
ENDMDL
MODEL 5
REMARK VINA RESULT:      -3.1     11.292     11.858
REMARK  2 active torsions:
REMARK  status: ('A' for Active; 'I' for Inactive)
REMARK    1  A    between atoms: C3_3  and  O1_8 
REMARK    2  A    between atoms: C6_6  and  N1_7 
ROOT
HETATM    1  C1  UNL     1      27.359   6.509  -7.855  1.00  0.00     0.026 A 
HETATM    2  C2  UNL     1      27.913   7.378  -8.797  1.00  0.00     0.038 A 
HETATM    3  C3  UNL     1      28.168   6.926 -10.084  1.00  0.00     0.065 A 
HETATM    4  C4  UNL     1      27.861   5.620 -10.449  1.00  0.00     0.038 A 
HETATM    5  C5  UNL     1      27.308   4.755  -9.500  1.00  0.00     0.026 A 
HETATM    6  C6  UNL     1      27.099   5.175  -8.182  1.00  0.00     0.005 A 
ENDROOT
BRANCH   6   7
HETATM    7  N1  UNL     1      26.436   4.341  -7.274  1.00  0.00    -0.303 NA
HETATM    8  H5  UNL     1      27.012   3.584  -6.920  1.00  0.00     0.124 HD
HETATM    9  H6  UNL     1      25.531   4.018  -7.599  1.00  0.00     0.124 HD
ENDBRANCH   6   7
BRANCH   3  10
HETATM   10  O1  UNL     1      28.706   7.805 -10.974  1.00  0.00    -0.361 OA
HETATM   11  H7  UNL     1      27.987   8.205 -11.489  1.00  0.00     0.217 HD
ENDBRANCH   3  10
TORSDOF 2
ENDMDL
MODEL 6
REMARK VINA RESULT:      -3.1     11.319     11.896
REMARK  2 active torsions:
REMARK  status: ('A' for Active; 'I' for Inactive)
REMARK    1  A    between atoms: C3_3  and  O1_8 
REMARK    2  A    between atoms: C6_6  and  N1_7 
ROOT
HETATM    1  C1  UNL     1      27.430   5.751  -7.962  1.00  0.00     0.026 A 
HETATM    2  C2  UNL     1      27.590   7.126  -8.152  1.00  0.00     0.038 A 
HETATM    3  C3  UNL     1      27.587   7.646  -9.439  1.00  0.00     0.065 A 
HETATM    4  C4  UNL     1      27.412   6.814 -10.539  1.00  0.00     0.038 A 
HETATM    5  C5  UNL     1      27.254   5.439 -10.340  1.00  0.00     0.026 A 
HETATM    6  C6  UNL     1      27.312   4.889  -9.056  1.00  0.00     0.005 A 
ENDROOT
BRANCH   6   7
HETATM    7  N1  UNL     1      27.035   3.532  -8.858  1.00  0.00    -0.303 NA
HETATM    8  H5  UNL     1      27.794   2.916  -9.134  1.00  0.00     0.124 HD
HETATM    9  H6  UNL     1      26.141   3.236  -9.235  1.00  0.00     0.124 HD
ENDBRANCH   6   7
BRANCH   3  10
HETATM   10  O1  UNL     1      27.743   8.992  -9.583  1.00  0.00    -0.361 OA
HETATM   11  H7  UNL     1      28.523   9.156 -10.136  1.00  0.00     0.217 HD
ENDBRANCH   3  10
TORSDOF 2
ENDMDL
MODEL 7
REMARK VINA RESULT:      -3.1     11.255     11.857
REMARK  2 active torsions:
REMARK  status: ('A' for Active; 'I' for Inactive)
REMARK    1  A    between atoms: C3_3  and  O1_8 
REMARK    2  A    between atoms: C6_6  and  N1_7 
ROOT
HETATM    1  C1  UNL     1      27.268   4.797  -9.415  1.00  0.00     0.026 A 
HETATM    2  C2  UNL     1      27.814   5.648 -10.379  1.00  0.00     0.038 A 
HETATM    3  C3  UNL     1      28.137   6.954 -10.039  1.00  0.00     0.065 A 
HETATM    4  C4  UNL     1      27.938   7.419  -8.744  1.00  0.00     0.038 A 
HETATM    5  C5  UNL     1      27.390   6.562  -7.785  1.00  0.00     0.026 A 
HETATM    6  C6  UNL     1      27.003   5.261  -8.123  1.00  0.00     0.005 A 
ENDROOT
BRANCH   6   7
HETATM    7  N1  UNL     1      26.567   4.375  -7.131  1.00  0.00    -0.303 NA
HETATM    8  H5  UNL     1      26.744   3.399  -7.349  1.00  0.00     0.124 HD
HETATM    9  H6  UNL     1      25.613   4.536  -6.827  1.00  0.00     0.124 HD
ENDBRANCH   6   7
BRANCH   3  10
HETATM   10  O1  UNL     1      28.670   7.752 -11.007  1.00  0.00    -0.361 OA
HETATM   11  H7  UNL     1      28.261   8.630 -10.945  1.00  0.00     0.217 HD
ENDBRANCH   3  10
TORSDOF 2
ENDMDL
MODEL 8
REMARK VINA RESULT:      -3.1     12.670     13.263
REMARK  2 active torsions:
REMARK  status: ('A' for Active; 'I' for Inactive)
REMARK    1  A    between atoms: C3_3  and  O1_8 
REMARK    2  A    between atoms: C6_6  and  N1_7 
ROOT
HETATM    1  C1  UNL     1      30.012   6.396  -9.539  1.00  0.00     0.026 A 
HETATM    2  C2  UNL     1      29.438   7.650  -9.315  1.00  0.00     0.038 A 
HETATM    3  C3  UNL     1      28.119   7.878  -9.681  1.00  0.00     0.065 A 
HETATM    4  C4  UNL     1      27.358   6.865 -10.254  1.00  0.00     0.038 A 
HETATM    5  C5  UNL     1      27.939   5.613 -10.476  1.00  0.00     0.026 A 
HETATM    6  C6  UNL     1      29.284   5.382 -10.168  1.00  0.00     0.005 A 
ENDROOT
BRANCH   6   7
HETATM    7  N1  UNL     1      29.822   4.095 -10.283  1.00  0.00    -0.303 NA
HETATM    8  H5  UNL     1      29.162   3.356 -10.062  1.00  0.00     0.124 HD
HETATM    9  H6  UNL     1      30.709   3.977  -9.806  1.00  0.00     0.124 HD
ENDBRANCH   6   7
BRANCH   3  10
HETATM   10  O1  UNL     1      27.595   9.113  -9.444  1.00  0.00    -0.361 OA
HETATM   11  H7  UNL     1      27.785   9.682 -10.207  1.00  0.00     0.217 HD
ENDBRANCH   3  10
TORSDOF 2
ENDMDL
MODEL 9
REMARK VINA RESULT:      -3.1      2.843      3.564
REMARK  2 active torsions:
REMARK  status: ('A' for Active; 'I' for Inactive)
REMARK    1  A    between atoms: C3_3  and  O1_8 
REMARK    2  A    between atoms: C6_6  and  N1_7 
ROOT
HETATM    1  C1  UNL     1      19.154   2.798  -4.634  1.00  0.00     0.026 A 
HETATM    2  C2  UNL     1      19.099   3.863  -3.731  1.00  0.00     0.038 A 
HETATM    3  C3  UNL     1      18.116   4.832  -3.871  1.00  0.00     0.065 A 
HETATM    4  C4  UNL     1      17.175   4.745  -4.891  1.00  0.00     0.038 A 
HETATM    5  C5  UNL     1      17.237   3.677  -5.791  1.00  0.00     0.026 A 
HETATM    6  C6  UNL     1      18.255   2.723  -5.702  1.00  0.00     0.005 A 
ENDROOT
BRANCH   6   7
HETATM    7  N1  UNL     1      18.239   1.596  -6.532  1.00  0.00    -0.303 NA
HETATM    8  H5  UNL     1      17.840   0.772  -6.093  1.00  0.00     0.124 HD
HETATM    9  H6  UNL     1      19.129   1.403  -6.980  1.00  0.00     0.124 HD
ENDBRANCH   6   7
BRANCH   3  10
HETATM   10  O1  UNL     1      18.094   5.853  -2.969  1.00  0.00    -0.361 OA
HETATM   11  H7  UNL     1      18.753   5.673  -2.280  1.00  0.00     0.217 HD
ENDBRANCH   3  10
TORSDOF 2
ENDMDL
MODEL 10
REMARK VINA RESULT:      -2.7     10.259     11.262
REMARK  2 active torsions:
REMARK  status: ('A' for Active; 'I' for Inactive)
REMARK    1  A    between atoms: C3_3  and  O1_8 
REMARK    2  A    between atoms: C6_6  and  N1_7 
ROOT
HETATM    1  C1  UNL     1      15.269  11.944  -8.357  1.00  0.00     0.026 A 
HETATM    2  C2  UNL     1      14.084  12.436  -8.908  1.00  0.00     0.038 A 
HETATM    3  C3  UNL     1      14.128  13.500  -9.796  1.00  0.00     0.065 A 
HETATM    4  C4  UNL     1      15.343  14.072 -10.157  1.00  0.00     0.038 A 
HETATM    5  C5  UNL     1      16.526  13.575  -9.601  1.00  0.00     0.026 A 
HETATM    6  C6  UNL     1      16.497  12.542  -8.659  1.00  0.00     0.005 A 
ENDROOT
BRANCH   6   7
HETATM    7  N1  UNL     1      17.690  11.973  -8.199  1.00  0.00    -0.303 NA
HETATM    8  H5  UNL     1      17.652  10.962  -8.108  1.00  0.00     0.124 HD
HETATM    9  H6  UNL     1      18.066  12.421  -7.371  1.00  0.00     0.124 HD
ENDBRANCH   6   7
BRANCH   3  10
HETATM   10  O1  UNL     1      12.950  13.950 -10.314  1.00  0.00    -0.361 OA
HETATM   11  H7  UNL     1      12.345  14.147  -9.581  1.00  0.00     0.217 HD
ENDBRANCH   3  10
TORSDOF 2
ENDMDL
MODEL 11
REMARK VINA RESULT:      -2.7      8.358      8.526
REMARK  2 active torsions:
REMARK  status: ('A' for Active; 'I' for Inactive)
REMARK    1  A    between atoms: C3_3  and  O1_8 
REMARK    2  A    between atoms: C6_6  and  N1_7 
ROOT
HETATM    1  C1  UNL     1      22.983   2.242 -10.568  1.00  0.00     0.026 A 
HETATM    2  C2  UNL     1      22.947   2.385 -11.957  1.00  0.00     0.038 A 
HETATM    3  C3  UNL     1      21.746   2.678 -12.586  1.00  0.00     0.065 A 
HETATM    4  C4  UNL     1      20.581   2.848 -11.846  1.00  0.00     0.038 A 
HETATM    5  C5  UNL     1      20.625   2.703 -10.456  1.00  0.00     0.026 A 
HETATM    6  C6  UNL     1      21.814   2.349  -9.809  1.00  0.00     0.005 A 
ENDROOT
BRANCH   6   7
HETATM    7  N1  UNL     1      21.875   2.323  -8.411  1.00  0.00    -0.303 NA
HETATM    8  H5  UNL     1      21.055   1.911  -7.975  1.00  0.00     0.124 HD
HETATM    9  H6  UNL     1      22.128   3.213  -7.995  1.00  0.00     0.124 HD
ENDBRANCH   6   7
BRANCH   3  10
HETATM   10  O1  UNL     1      21.752   2.812 -13.942  1.00  0.00    -0.361 OA
HETATM   11  H7  UNL     1      20.907   2.485 -14.290  1.00  0.00     0.217 HD
ENDBRANCH   3  10
TORSDOF 2
ENDMDL
MODEL 12
REMARK VINA RESULT:      -2.6      7.728      7.795
REMARK  2 active torsions:
REMARK  status: ('A' for Active; 'I' for Inactive)
REMARK    1  A    between atoms: C3_3  and  O1_8 
REMARK    2  A    between atoms: C6_6  and  N1_7 
ROOT
HETATM    1  C1  UNL     1      21.731   2.216  -8.813  1.00  0.00     0.026 A 
HETATM    2  C2  UNL     1      20.840   2.568  -9.830  1.00  0.00     0.038 A 
HETATM    3  C3  UNL     1      21.315   2.785 -11.115  1.00  0.00     0.065 A 
HETATM    4  C4  UNL     1      22.667   2.640 -11.404  1.00  0.00     0.038 A 
HETATM    5  C5  UNL     1      23.553   2.289 -10.381  1.00  0.00     0.026 A 
HETATM    6  C6  UNL     1      23.102   2.123  -9.067  1.00  0.00     0.005 A 
ENDROOT
BRANCH   6   7
HETATM    7  N1  UNL     1      23.974   1.657  -8.077  1.00  0.00    -0.303 NA
HETATM    8  H5  UNL     1      24.327   0.722  -8.252  1.00  0.00     0.124 HD
HETATM    9  H6  UNL     1      23.617   1.764  -7.133  1.00  0.00     0.124 HD
ENDBRANCH   6   7
BRANCH   3  10
HETATM   10  O1  UNL     1      20.414   3.124 -12.080  1.00  0.00    -0.361 OA
HETATM   11  H7  UNL     1      20.712   3.942 -12.509  1.00  0.00     0.217 HD
ENDBRANCH   3  10
TORSDOF 2
ENDMDL
MODEL 13
REMARK VINA RESULT:      -2.5     13.029     13.758
REMARK  2 active torsions:
REMARK  status: ('A' for Active; 'I' for Inactive)
REMARK    1  A    between atoms: C3_3  and  O1_8 
REMARK    2  A    between atoms: C6_6  and  N1_7 
ROOT
HETATM    1  C1  UNL     1      29.289  10.344  -9.562  1.00  0.00     0.026 A 
HETATM    2  C2  UNL     1      28.742  11.457  -8.920  1.00  0.00     0.038 A 
HETATM    3  C3  UNL     1      27.764  11.280  -7.952  1.00  0.00     0.065 A 
HETATM    4  C4  UNL     1      27.335  10.005  -7.603  1.00  0.00     0.038 A 
HETATM    5  C5  UNL     1      27.886   8.895  -8.251  1.00  0.00     0.026 A 
HETATM    6  C6  UNL     1      28.830   9.056  -9.270  1.00  0.00     0.005 A 
ENDROOT
BRANCH   6   7
HETATM    7  N1  UNL     1      29.462   7.938  -9.828  1.00  0.00    -0.303 NA
HETATM    8  H5  UNL     1      28.910   7.088  -9.773  1.00  0.00     0.124 HD
HETATM    9  H6  UNL     1      30.414   7.802  -9.505  1.00  0.00     0.124 HD
ENDBRANCH   6   7
BRANCH   3  10
HETATM   10  O1  UNL     1      27.257  12.391  -7.347  1.00  0.00    -0.361 OA
HETATM   11  H7  UNL     1      26.647  12.828  -7.962  1.00  0.00     0.217 HD
ENDBRANCH   3  10
TORSDOF 2
ENDMDL
MODEL 14
REMARK VINA RESULT:      -2.5     10.372     11.188
REMARK  2 active torsions:
REMARK  status: ('A' for Active; 'I' for Inactive)
REMARK    1  A    between atoms: C3_3  and  O1_8 
REMARK    2  A    between atoms: C6_6  and  N1_7 
ROOT
HETATM    1  C1  UNL     1      17.459  13.602  -8.104  1.00  0.00     0.026 A 
HETATM    2  C2  UNL     1      16.557  14.667  -8.042  1.00  0.00     0.038 A 
HETATM    3  C3  UNL     1      15.210  14.443  -8.289  1.00  0.00     0.065 A 
HETATM    4  C4  UNL     1      14.747  13.164  -8.580  1.00  0.00     0.038 A 
HETATM    5  C5  UNL     1      15.655  12.104  -8.641  1.00  0.00     0.026 A 
HETATM    6  C6  UNL     1      17.024  12.320  -8.454  1.00  0.00     0.005 A 
ENDROOT
BRANCH   6   7
HETATM    7  N1  UNL     1      17.908  11.236  -8.399  1.00  0.00    -0.303 NA
HETATM    8  H5  UNL     1      18.014  10.843  -7.469  1.00  0.00     0.124 HD
HETATM    9  H6  UNL     1      18.800  11.411  -8.848  1.00  0.00     0.124 HD
ENDBRANCH   6   7
BRANCH   3  10
HETATM   10  O1  UNL     1      14.362  15.507  -8.216  1.00  0.00    -0.361 OA
HETATM   11  H7  UNL     1      13.790  15.501  -9.000  1.00  0.00     0.217 HD
ENDBRANCH   3  10
TORSDOF 2
ENDMDL
MODEL 15
REMARK VINA RESULT:      -2.5     10.939     11.866
REMARK  2 active torsions:
REMARK  status: ('A' for Active; 'I' for Inactive)
REMARK    1  A    between atoms: C3_3  and  O1_8 
REMARK    2  A    between atoms: C6_6  and  N1_7 
ROOT
HETATM    1  C1  UNL     1      18.090  14.445  -7.967  1.00  0.00     0.026 A 
HETATM    2  C2  UNL     1      17.817  15.253  -9.073  1.00  0.00     0.038 A 
HETATM    3  C3  UNL     1      16.867  14.851 -10.001  1.00  0.00     0.065 A 
HETATM    4  C4  UNL     1      16.172  13.658  -9.832  1.00  0.00     0.038 A 
HETATM    5  C5  UNL     1      16.451  12.854  -8.723  1.00  0.00     0.026 A 
HETATM    6  C6  UNL     1      17.446  13.213  -7.809  1.00  0.00     0.005 A 
ENDROOT
BRANCH   6   7
HETATM    7  N1  UNL     1      17.635  12.464  -6.642  1.00  0.00    -0.303 NA
HETATM    8  H5  UNL     1      17.665  13.026  -5.797  1.00  0.00     0.124 HD
HETATM    9  H6  UNL     1      18.406  11.807  -6.696  1.00  0.00     0.124 HD
ENDBRANCH   6   7
BRANCH   3  10
HETATM   10  O1  UNL     1      16.627  15.668 -11.065  1.00  0.00    -0.361 OA
HETATM   11  H7  UNL     1      15.670  15.697 -11.224  1.00  0.00     0.217 HD
ENDBRANCH   3  10
TORSDOF 2
ENDMDL
MODEL 16
REMARK VINA RESULT:      -2.4     11.083     11.832
REMARK  2 active torsions:
REMARK  status: ('A' for Active; 'I' for Inactive)
REMARK    1  A    between atoms: C3_3  and  O1_8 
REMARK    2  A    between atoms: C6_6  and  N1_7 
ROOT
HETATM    1  C1  UNL     1      27.507   6.671  -7.799  1.00  0.00     0.026 A 
HETATM    2  C2  UNL     1      27.800   7.550  -8.844  1.00  0.00     0.038 A 
HETATM    3  C3  UNL     1      27.790   8.919  -8.615  1.00  0.00     0.065 A 
HETATM    4  C4  UNL     1      27.508   9.423  -7.350  1.00  0.00     0.038 A 
HETATM    5  C5  UNL     1      27.214   8.537  -6.309  1.00  0.00     0.026 A 
HETATM    6  C6  UNL     1      27.162   7.157  -6.534  1.00  0.00     0.005 A 
ENDROOT
BRANCH   6   7
HETATM    7  N1  UNL     1      26.985   6.274  -5.463  1.00  0.00    -0.303 NA
HETATM    8  H5  UNL     1      27.305   6.644  -4.573  1.00  0.00     0.124 HD
HETATM    9  H6  UNL     1      27.335   5.339  -5.640  1.00  0.00     0.124 HD
ENDBRANCH   6   7
BRANCH   3  10
HETATM   10  O1  UNL     1      28.084   9.743  -9.659  1.00  0.00    -0.361 OA
HETATM   11  H7  UNL     1      28.335  10.612  -9.307  1.00  0.00     0.217 HD
ENDBRANCH   3  10
TORSDOF 2
ENDMDL
MODEL 17
REMARK VINA RESULT:      -2.4      2.460      2.728
REMARK  2 active torsions:
REMARK  status: ('A' for Active; 'I' for Inactive)
REMARK    1  A    between atoms: C3_3  and  O1_8 
REMARK    2  A    between atoms: C6_6  and  N1_7 
ROOT
HETATM    1  C1  UNL     1      19.470   2.105  -6.347  1.00  0.00     0.026 A 
HETATM    2  C2  UNL     1      18.123   2.473  -6.389  1.00  0.00     0.038 A 
HETATM    3  C3  UNL     1      17.574   3.193  -5.338  1.00  0.00     0.065 A 
HETATM    4  C4  UNL     1      18.355   3.566  -4.250  1.00  0.00     0.038 A 
HETATM    5  C5  UNL     1      19.702   3.193  -4.214  1.00  0.00     0.026 A 
HETATM    6  C6  UNL     1      20.259   2.417  -5.235  1.00  0.00     0.005 A 
ENDROOT
BRANCH   6   7
HETATM    7  N1  UNL     1      21.633   2.151  -5.249  1.00  0.00    -0.303 NA
HETATM    8  H5  UNL     1      22.155   2.665  -4.546  1.00  0.00     0.124 HD
HETATM    9  H6  UNL     1      22.055   2.218  -6.169  1.00  0.00     0.124 HD
ENDBRANCH   6   7
BRANCH   3  10
HETATM   10  O1  UNL     1      16.257   3.535  -5.418  1.00  0.00    -0.361 OA
HETATM   11  H7  UNL     1      15.721   2.766  -5.168  1.00  0.00     0.217 HD
ENDBRANCH   3  10
TORSDOF 2
ENDMDL
MODEL 18
REMARK VINA RESULT:      -2.4     11.099     11.727
REMARK  2 active torsions:
REMARK  status: ('A' for Active; 'I' for Inactive)
REMARK    1  A    between atoms: C3_3  and  O1_8 
REMARK    2  A    between atoms: C6_6  and  N1_7 
ROOT
HETATM    1  C1  UNL     1      26.765   9.560  -6.252  1.00  0.00     0.026 A 
HETATM    2  C2  UNL     1      27.198  10.062  -7.481  1.00  0.00     0.038 A 
HETATM    3  C3  UNL     1      27.725   9.198  -8.429  1.00  0.00     0.065 A 
HETATM    4  C4  UNL     1      27.810   7.833  -8.174  1.00  0.00     0.038 A 
HETATM    5  C5  UNL     1      27.376   7.338  -6.941  1.00  0.00     0.026 A 
HETATM    6  C6  UNL     1      26.896   8.201  -5.950  1.00  0.00     0.005 A 
ENDROOT
BRANCH   6   7
HETATM    7  N1  UNL     1      26.354   7.685  -4.768  1.00  0.00    -0.303 NA
HETATM    8  H5  UNL     1      26.498   6.686  -4.656  1.00  0.00     0.124 HD
HETATM    9  H6  UNL     1      25.391   7.957  -4.605  1.00  0.00     0.124 HD
ENDBRANCH   6   7
BRANCH   3  10
HETATM   10  O1  UNL     1      28.135   9.726  -9.617  1.00  0.00    -0.361 OA
HETATM   11  H7  UNL     1      29.088   9.902  -9.566  1.00  0.00     0.217 HD
ENDBRANCH   3  10
TORSDOF 2
ENDMDL
MODEL 19
REMARK VINA RESULT:      -2.3      8.847      9.103
REMARK  2 active torsions:
REMARK  status: ('A' for Active; 'I' for Inactive)
REMARK    1  A    between atoms: C3_3  and  O1_8 
REMARK    2  A    between atoms: C6_6  and  N1_7 
ROOT
HETATM    1  C1  UNL     1      22.171   3.493 -12.445  1.00  0.00     0.026 A 
HETATM    2  C2  UNL     1      21.943   3.393 -11.071  1.00  0.00     0.038 A 
HETATM    3  C3  UNL     1      21.063   2.435 -10.588  1.00  0.00     0.065 A 
HETATM    4  C4  UNL     1      20.418   1.563 -11.459  1.00  0.00     0.038 A 
HETATM    5  C5  UNL     1      20.650   1.671 -12.833  1.00  0.00     0.026 A 
HETATM    6  C6  UNL     1      21.488   2.667 -13.343  1.00  0.00     0.005 A 
ENDROOT
BRANCH   6   7
HETATM    7  N1  UNL     1      21.807   2.691 -14.706  1.00  0.00    -0.303 NA
HETATM    8  H5  UNL     1      22.310   1.868 -15.021  1.00  0.00     0.124 HD
HETATM    9  H6  UNL     1      22.248   3.553 -15.009  1.00  0.00     0.124 HD
ENDBRANCH   6   7
BRANCH   3  10
HETATM   10  O1  UNL     1      20.869   2.367  -9.241  1.00  0.00    -0.361 OA
HETATM   11  H7  UNL     1      19.917   2.423  -9.062  1.00  0.00     0.217 HD
ENDBRANCH   3  10
TORSDOF 2
ENDMDL
MODEL 20
REMARK VINA RESULT:      -2.2      5.991      6.658
REMARK  2 active torsions:
REMARK  status: ('A' for Active; 'I' for Inactive)
REMARK    1  A    between atoms: C3_3  and  O1_8 
REMARK    2  A    between atoms: C6_6  and  N1_7 
ROOT
HETATM    1  C1  UNL     1      16.086   9.228  -0.745  1.00  0.00     0.026 A 
HETATM    2  C2  UNL     1      14.783   9.730  -0.776  1.00  0.00     0.038 A 
HETATM    3  C3  UNL     1      13.769   8.973  -1.346  1.00  0.00     0.065 A 
HETATM    4  C4  UNL     1      14.035   7.714  -1.872  1.00  0.00     0.038 A 
HETATM    5  C5  UNL     1      15.342   7.220  -1.839  1.00  0.00     0.026 A 
HETATM    6  C6  UNL     1      16.388   7.991  -1.322  1.00  0.00     0.005 A 
ENDROOT
BRANCH   6   7
HETATM    7  N1  UNL     1      17.668   7.442  -1.185  1.00  0.00    -0.303 NA
HETATM    8  H5  UNL     1      18.042   7.060  -2.048  1.00  0.00     0.124 HD
HETATM    9  H6  UNL     1      17.756   6.797  -0.407  1.00  0.00     0.124 HD
ENDBRANCH   6   7
BRANCH   3  10
HETATM   10  O1  UNL     1      12.510   9.496  -1.354  1.00  0.00    -0.361 OA
HETATM   11  H7  UNL     1      11.884   8.792  -1.588  1.00  0.00     0.217 HD
ENDBRANCH   3  10
TORSDOF 2
ENDMDL
