MODEL 1
REMARK VINA RESULT:      -2.8      0.000      0.000
REMARK  2 active torsions:
REMARK  status: ('A' for Active; 'I' for Inactive)
REMARK    1  A    between atoms: C3_3  and  O1_8 
REMARK    2  A    between atoms: C6_6  and  N1_7 
ROOT
HETATM    1  C1  UNL     1      31.158   1.072 -12.853  1.00  0.00     0.026 A 
HETATM    2  C2  UNL     1      30.500   0.341 -13.845  1.00  0.00     0.038 A 
HETATM    3  C3  UNL     1      29.477  -0.528 -13.494  1.00  0.00     0.065 A 
HETATM    4  C4  UNL     1      29.090  -0.667 -12.166  1.00  0.00     0.038 A 
HETATM    5  C5  UNL     1      29.754   0.067 -11.178  1.00  0.00     0.026 A 
HETATM    6  C6  UNL     1      30.826   0.904 -11.506  1.00  0.00     0.005 A 
ENDROOT
BRANCH   6   7
HETATM    7  N1  UNL     1      31.405   1.723 -10.529  1.00  0.00    -0.303 NA
HETATM    8  H5  UNL     1      31.997   2.454 -10.909  1.00  0.00     0.124 HD
HETATM    9  H6  UNL     1      31.857   1.210  -9.779  1.00  0.00     0.124 HD
ENDBRANCH   6   7
BRANCH   3  10
HETATM   10  O1  UNL     1      28.858  -1.221 -14.491  1.00  0.00    -0.361 OA
HETATM   11  H7  UNL     1      29.344  -2.048 -14.641  1.00  0.00     0.217 HD
ENDBRANCH   3  10
TORSDOF 2
ENDMDL
MODEL 2
REMARK VINA RESULT:      -2.8     12.543     13.392
REMARK  2 active torsions:
REMARK  status: ('A' for Active; 'I' for Inactive)
REMARK    1  A    between atoms: C3_3  and  O1_8 
REMARK    2  A    between atoms: C6_6  and  N1_7 
ROOT
HETATM    1  C1  UNL     1      33.405   9.677  -5.831  1.00  0.00     0.026 A 
HETATM    2  C2  UNL     1      34.260  10.446  -6.625  1.00  0.00     0.038 A 
HETATM    3  C3  UNL     1      35.406  10.995  -6.069  1.00  0.00     0.065 A 
HETATM    4  C4  UNL     1      35.721  10.773  -4.732  1.00  0.00     0.038 A 
HETATM    5  C5  UNL     1      34.860  10.004  -3.944  1.00  0.00     0.026 A 
HETATM    6  C6  UNL     1      33.670   9.492  -4.471  1.00  0.00     0.005 A 
ENDROOT
BRANCH   6   7
HETATM    7  N1  UNL     1      32.877   8.626  -3.710  1.00  0.00    -0.303 NA
HETATM    8  H5  UNL     1      32.963   8.769  -2.708  1.00  0.00     0.124 HD
HETATM    9  H6  UNL     1      32.969   7.650  -3.970  1.00  0.00     0.124 HD
ENDBRANCH   6   7
BRANCH   3  10
HETATM   10  O1  UNL     1      36.216  11.736  -6.876  1.00  0.00    -0.361 OA
HETATM   11  H7  UNL     1      35.769  12.574  -7.078  1.00  0.00     0.217 HD
ENDBRANCH   3  10
TORSDOF 2
ENDMDL
MODEL 3
REMARK VINA RESULT:      -2.8     12.668     13.671
REMARK  2 active torsions:
REMARK  status: ('A' for Active; 'I' for Inactive)
REMARK    1  A    between atoms: C3_3  and  O1_8 
REMARK    2  A    between atoms: C6_6  and  N1_7 
ROOT
HETATM    1  C1  UNL     1      34.748  11.655  -4.296  1.00  0.00     0.026 A 
HETATM    2  C2  UNL     1      34.211  10.538  -3.652  1.00  0.00     0.038 A 
HETATM    3  C3  UNL     1      33.572   9.556  -4.395  1.00  0.00     0.065 A 
HETATM    4  C4  UNL     1      33.476   9.666  -5.778  1.00  0.00     0.038 A 
HETATM    5  C5  UNL     1      34.014  10.787  -6.416  1.00  0.00     0.026 A 
HETATM    6  C6  UNL     1      34.610  11.815  -5.678  1.00  0.00     0.005 A 
ENDROOT
BRANCH   6   7
HETATM    7  N1  UNL     1      35.250  12.873  -6.334  1.00  0.00    -0.303 NA
HETATM    8  H5  UNL     1      35.149  13.766  -5.861  1.00  0.00     0.124 HD
HETATM    9  H6  UNL     1      35.036  12.933  -7.323  1.00  0.00     0.124 HD
ENDBRANCH   6   7
BRANCH   3  10
HETATM   10  O1  UNL     1      33.064   8.481  -3.730  1.00  0.00    -0.361 OA
HETATM   11  H7  UNL     1      32.102   8.465  -3.856  1.00  0.00     0.217 HD
ENDBRANCH   3  10
TORSDOF 2
ENDMDL
MODEL 4
REMARK VINA RESULT:      -2.8     12.625     13.603
REMARK  2 active torsions:
REMARK  status: ('A' for Active; 'I' for Inactive)
REMARK    1  A    between atoms: C3_3  and  O1_8 
REMARK    2  A    between atoms: C6_6  and  N1_7 
ROOT
HETATM    1  C1  UNL     1      34.070  10.719  -6.461  1.00  0.00     0.026 A 
HETATM    2  C2  UNL     1      33.481   9.650  -5.781  1.00  0.00     0.038 A 
HETATM    3  C3  UNL     1      33.618   9.553  -4.403  1.00  0.00     0.065 A 
HETATM    4  C4  UNL     1      34.322  10.518  -3.692  1.00  0.00     0.038 A 
HETATM    5  C5  UNL     1      34.910  11.584  -4.380  1.00  0.00     0.026 A 
HETATM    6  C6  UNL     1      34.832  11.668  -5.773  1.00  0.00     0.005 A 
ENDROOT
BRANCH   6   7
HETATM    7  N1  UNL     1      35.320  12.798  -6.439  1.00  0.00    -0.303 NA
HETATM    8  H5  UNL     1      34.797  13.035  -7.277  1.00  0.00     0.124 HD
HETATM    9  H6  UNL     1      36.321  12.779  -6.602  1.00  0.00     0.124 HD
ENDBRANCH   6   7
BRANCH   3  10
HETATM   10  O1  UNL     1      33.027   8.497  -3.776  1.00  0.00    -0.361 OA
HETATM   11  H7  UNL     1      32.501   8.833  -3.033  1.00  0.00     0.217 HD
ENDBRANCH   3  10
TORSDOF 2
ENDMDL
MODEL 5
REMARK VINA RESULT:      -2.7     12.664     13.479
REMARK  2 active torsions:
REMARK  status: ('A' for Active; 'I' for Inactive)
REMARK    1  A    between atoms: C3_3  and  O1_8 
REMARK    2  A    between atoms: C6_6  and  N1_7 
ROOT
HETATM    1  C1  UNL     1      33.151  11.658  -5.620  1.00  0.00     0.026 A 
HETATM    2  C2  UNL     1      33.719  12.614  -6.465  1.00  0.00     0.038 A 
HETATM    3  C3  UNL     1      34.681  12.231  -7.389  1.00  0.00     0.065 A 
HETATM    4  C4  UNL     1      35.073  10.901  -7.493  1.00  0.00     0.038 A 
HETATM    5  C5  UNL     1      34.502   9.950  -6.643  1.00  0.00     0.026 A 
HETATM    6  C6  UNL     1      33.574  10.326  -5.666  1.00  0.00     0.005 A 
ENDROOT
BRANCH   6   7
HETATM    7  N1  UNL     1      32.921   9.352  -4.902  1.00  0.00    -0.303 NA
HETATM    8  H5  UNL     1      32.895   9.561  -3.909  1.00  0.00     0.124 HD
HETATM    9  H6  UNL     1      33.234   8.405  -5.089  1.00  0.00     0.124 HD
ENDBRANCH   6   7
BRANCH   3  10
HETATM   10  O1  UNL     1      35.209  13.193  -8.197  1.00  0.00    -0.361 OA
HETATM   11  H7  UNL     1      36.051  12.869  -8.555  1.00  0.00     0.217 HD
ENDBRANCH   3  10
TORSDOF 2
ENDMDL
MODEL 6
REMARK VINA RESULT:      -2.7      2.787      3.682
REMARK  2 active torsions:
REMARK  status: ('A' for Active; 'I' for Inactive)
REMARK    1  A    between atoms: C3_3  and  O1_8 
REMARK    2  A    between atoms: C6_6  and  N1_7 
ROOT
HETATM    1  C1  UNL     1      29.412  -0.780 -11.944  1.00  0.00     0.026 A 
HETATM    2  C2  UNL     1      30.010   0.063 -11.004  1.00  0.00     0.038 A 
HETATM    3  C3  UNL     1      30.890   1.049 -11.426  1.00  0.00     0.065 A 
HETATM    4  C4  UNL     1      31.170   1.217 -12.778  1.00  0.00     0.038 A 
HETATM    5  C5  UNL     1      30.569   0.369 -13.712  1.00  0.00     0.026 A 
HETATM    6  C6  UNL     1      29.725  -0.668 -13.302  1.00  0.00     0.005 A 
ENDROOT
BRANCH   6   7
HETATM    7  N1  UNL     1      29.037  -1.434 -14.250  1.00  0.00    -0.303 NA
HETATM    8  H5  UNL     1      29.388  -2.382 -14.340  1.00  0.00     0.124 HD
HETATM    9  H6  UNL     1      28.929  -0.975 -15.148  1.00  0.00     0.124 HD
ENDBRANCH   6   7
BRANCH   3  10
HETATM   10  O1  UNL     1      31.450   1.853 -10.479  1.00  0.00    -0.361 OA
HETATM   11  H7  UNL     1      30.818   2.556 -10.256  1.00  0.00     0.217 HD
ENDBRANCH   3  10
TORSDOF 2
ENDMDL
MODEL 7
REMARK VINA RESULT:      -2.5     10.477     11.043
REMARK  2 active torsions:
REMARK  status: ('A' for Active; 'I' for Inactive)
REMARK    1  A    between atoms: C3_3  and  O1_8 
REMARK    2  A    between atoms: C6_6  and  N1_7 
ROOT
HETATM    1  C1  UNL     1      36.945   7.901 -11.974  1.00  0.00     0.026 A 
HETATM    2  C2  UNL     1      37.077   8.572 -10.756  1.00  0.00     0.038 A 
HETATM    3  C3  UNL     1      36.155   9.549 -10.406  1.00  0.00     0.065 A 
HETATM    4  C4  UNL     1      35.093   9.854 -11.249  1.00  0.00     0.038 A 
HETATM    5  C5  UNL     1      34.968   9.179 -12.467  1.00  0.00     0.026 A 
HETATM    6  C6  UNL     1      35.919   8.234 -12.863  1.00  0.00     0.005 A 
ENDROOT
BRANCH   6   7
HETATM    7  N1  UNL     1      35.721   7.480 -14.026  1.00  0.00    -0.303 NA
HETATM    8  H5  UNL     1      36.009   6.510 -13.937  1.00  0.00     0.124 HD
HETATM    9  H6  UNL     1      36.087   7.916 -14.865  1.00  0.00     0.124 HD
ENDBRANCH   6   7
BRANCH   3  10
HETATM   10  O1  UNL     1      36.317  10.179  -9.209  1.00  0.00    -0.361 OA
HETATM   11  H7  UNL     1      35.498  10.084  -8.696  1.00  0.00     0.217 HD
ENDBRANCH   3  10
TORSDOF 2
ENDMDL
MODEL 8
REMARK VINA RESULT:      -2.5     12.898     13.559
REMARK  2 active torsions:
REMARK  status: ('A' for Active; 'I' for Inactive)
REMARK    1  A    between atoms: C3_3  and  O1_8 
REMARK    2  A    between atoms: C6_6  and  N1_7 
ROOT
HETATM    1  C1  UNL     1      33.793  12.956  -6.942  1.00  0.00     0.026 A 
HETATM    2  C2  UNL     1      34.764  12.247  -7.654  1.00  0.00     0.038 A 
HETATM    3  C3  UNL     1      35.006  10.915  -7.348  1.00  0.00     0.065 A 
HETATM    4  C4  UNL     1      34.279  10.275  -6.350  1.00  0.00     0.038 A 
HETATM    5  C5  UNL     1      33.310  10.991  -5.641  1.00  0.00     0.026 A 
HETATM    6  C6  UNL     1      33.093  12.349  -5.895  1.00  0.00     0.005 A 
ENDROOT
BRANCH   6   7
HETATM    7  N1  UNL     1      32.042  13.024  -5.264  1.00  0.00    -0.303 NA
HETATM    8  H5  UNL     1      31.164  12.514  -5.276  1.00  0.00     0.124 HD
HETATM    9  H6  UNL     1      31.934  13.987  -5.565  1.00  0.00     0.124 HD
ENDBRANCH   6   7
BRANCH   3  10
HETATM   10  O1  UNL     1      35.959  10.258  -8.067  1.00  0.00    -0.361 OA
HETATM   11  H7  UNL     1      36.105   9.387  -7.664  1.00  0.00     0.217 HD
ENDBRANCH   3  10
TORSDOF 2
ENDMDL
MODEL 9
REMARK VINA RESULT:      -2.5     10.125     11.137
REMARK  2 active torsions:
REMARK  status: ('A' for Active; 'I' for Inactive)
REMARK    1  A    between atoms: C3_3  and  O1_8 
REMARK    2  A    between atoms: C6_6  and  N1_7 
ROOT
HETATM    1  C1  UNL     1      35.166   8.351 -13.138  1.00  0.00     0.026 A 
HETATM    2  C2  UNL     1      36.156   7.959 -14.042  1.00  0.00     0.038 A 
HETATM    3  C3  UNL     1      37.292   8.741 -14.199  1.00  0.00     0.065 A 
HETATM    4  C4  UNL     1      37.461   9.902 -13.453  1.00  0.00     0.038 A 
HETATM    5  C5  UNL     1      36.465  10.288 -12.551  1.00  0.00     0.026 A 
HETATM    6  C6  UNL     1      35.287   9.545 -12.421  1.00  0.00     0.005 A 
ENDROOT
BRANCH   6   7
HETATM    7  N1  UNL     1      34.353   9.872 -11.432  1.00  0.00    -0.303 NA
HETATM    8  H5  UNL     1      33.930   9.064 -10.986  1.00  0.00     0.124 HD
HETATM    9  H6  UNL     1      33.662  10.554 -11.730  1.00  0.00     0.124 HD
ENDBRANCH   6   7
BRANCH   3  10
HETATM   10  O1  UNL     1      38.236   8.324 -15.089  1.00  0.00    -0.361 OA
HETATM   11  H7  UNL     1      37.956   8.584 -15.982  1.00  0.00     0.217 HD
ENDBRANCH   3  10
TORSDOF 2
ENDMDL
MODEL 10
REMARK VINA RESULT:      -2.4     12.881     13.673
REMARK  2 active torsions:
REMARK  status: ('A' for Active; 'I' for Inactive)
REMARK    1  A    between atoms: C3_3  and  O1_8 
REMARK    2  A    between atoms: C6_6  and  N1_7 
ROOT
HETATM    1  C1  UNL     1      34.382  10.177  -6.486  1.00  0.00     0.026 A 
HETATM    2  C2  UNL     1      33.435  10.835  -5.698  1.00  0.00     0.038 A 
HETATM    3  C3  UNL     1      33.171  12.180  -5.919  1.00  0.00     0.065 A 
HETATM    4  C4  UNL     1      33.828  12.874  -6.929  1.00  0.00     0.038 A 
HETATM    5  C5  UNL     1      34.776  12.209  -7.712  1.00  0.00     0.026 A 
HETATM    6  C6  UNL     1      35.098  10.870  -7.466  1.00  0.00     0.005 A 
ENDROOT
BRANCH   6   7
HETATM    7  N1  UNL     1      35.958  10.182  -8.330  1.00  0.00    -0.303 NA
HETATM    8  H5  UNL     1      36.410  10.779  -9.016  1.00  0.00     0.124 HD
HETATM    9  H6  UNL     1      35.545   9.356  -8.749  1.00  0.00     0.124 HD
ENDBRANCH   6   7
BRANCH   3  10
HETATM   10  O1  UNL     1      32.238  12.785  -5.132  1.00  0.00    -0.361 OA
HETATM   11  H7  UNL     1      32.557  12.782  -4.215  1.00  0.00     0.217 HD
ENDBRANCH   3  10
TORSDOF 2
ENDMDL
MODEL 11
REMARK VINA RESULT:      -2.3     13.705     14.399
REMARK  2 active torsions:
REMARK  status: ('A' for Active; 'I' for Inactive)
REMARK    1  A    between atoms: C3_3  and  O1_8 
REMARK    2  A    between atoms: C6_6  and  N1_7 
ROOT
HETATM    1  C1  UNL     1      32.682  13.180 -12.136  1.00  0.00     0.026 A 
HETATM    2  C2  UNL     1      34.056  13.124 -11.888  1.00  0.00     0.038 A 
HETATM    3  C3  UNL     1      34.590  13.823 -10.816  1.00  0.00     0.065 A 
HETATM    4  C4  UNL     1      33.769  14.567  -9.976  1.00  0.00     0.038 A 
HETATM    5  C5  UNL     1      32.395  14.620 -10.231  1.00  0.00     0.026 A 
HETATM    6  C6  UNL     1      31.847  13.969 -11.340  1.00  0.00     0.005 A 
ENDROOT
BRANCH   6   7
HETATM    7  N1  UNL     1      30.459  13.929 -11.519  1.00  0.00    -0.303 NA
HETATM    8  H5  UNL     1      30.163  14.143 -12.466  1.00  0.00     0.124 HD
HETATM    9  H6  UNL     1      29.941  14.456 -10.824  1.00  0.00     0.124 HD
ENDBRANCH   6   7
BRANCH   3  10
HETATM   10  O1  UNL     1      35.934  13.741 -10.606  1.00  0.00    -0.361 OA
HETATM   11  H7  UNL     1      36.384  13.758 -11.466  1.00  0.00     0.217 HD
ENDBRANCH   3  10
TORSDOF 2
ENDMDL
MODEL 12
REMARK VINA RESULT:      -2.3     13.597     14.228
REMARK  2 active torsions:
REMARK  status: ('A' for Active; 'I' for Inactive)
REMARK    1  A    between atoms: C3_3  and  O1_8 
REMARK    2  A    between atoms: C6_6  and  N1_7 
ROOT
HETATM    1  C1  UNL     1      33.805  12.866 -11.901  1.00  0.00     0.026 A 
HETATM    2  C2  UNL     1      35.039  12.974 -12.545  1.00  0.00     0.038 A 
HETATM    3  C3  UNL     1      35.145  13.723 -13.709  1.00  0.00     0.065 A 
HETATM    4  C4  UNL     1      34.036  14.380 -14.231  1.00  0.00     0.038 A 
HETATM    5  C5  UNL     1      32.803  14.266 -13.581  1.00  0.00     0.026 A 
HETATM    6  C6  UNL     1      32.664  13.468 -12.440  1.00  0.00     0.005 A 
ENDROOT
BRANCH   6   7
HETATM    7  N1  UNL     1      31.458  13.456 -11.731  1.00  0.00    -0.303 NA
HETATM    8  H5  UNL     1      31.143  12.525 -11.478  1.00  0.00     0.124 HD
HETATM    9  H6  UNL     1      30.724  14.009 -12.161  1.00  0.00     0.124 HD
ENDBRANCH   6   7
BRANCH   3  10
HETATM   10  O1  UNL     1      36.366  13.806 -14.306  1.00  0.00    -0.361 OA
HETATM   11  H7  UNL     1      36.937  14.375 -13.766  1.00  0.00     0.217 HD
ENDBRANCH   3  10
TORSDOF 2
ENDMDL
MODEL 13
REMARK VINA RESULT:      -2.3     11.791     12.589
REMARK  2 active torsions:
REMARK  status: ('A' for Active; 'I' for Inactive)
REMARK    1  A    between atoms: C3_3  and  O1_8 
REMARK    2  A    between atoms: C6_6  and  N1_7 
ROOT
HETATM    1  C1  UNL     1      34.206  12.810 -11.221  1.00  0.00     0.026 A 
HETATM    2  C2  UNL     1      34.118  11.555 -11.829  1.00  0.00     0.038 A 
HETATM    3  C3  UNL     1      34.642  10.442 -11.188  1.00  0.00     0.065 A 
HETATM    4  C4  UNL     1      35.239  10.561  -9.937  1.00  0.00     0.038 A 
HETATM    5  C5  UNL     1      35.324  11.820  -9.336  1.00  0.00     0.026 A 
HETATM    6  C6  UNL     1      34.855  12.962  -9.992  1.00  0.00     0.005 A 
ENDROOT
BRANCH   6   7
HETATM    7  N1  UNL     1      34.837  14.197  -9.333  1.00  0.00    -0.303 NA
HETATM    8  H5  UNL     1      33.905  14.508  -9.076  1.00  0.00     0.124 HD
HETATM    9  H6  UNL     1      35.370  14.921  -9.803  1.00  0.00     0.124 HD
ENDBRANCH   6   7
BRANCH   3  10
HETATM   10  O1  UNL     1      34.534   9.236 -11.812  1.00  0.00    -0.361 OA
HETATM   11  H7  UNL     1      34.358   8.555 -11.143  1.00  0.00     0.217 HD
ENDBRANCH   3  10
TORSDOF 2
ENDMDL
MODEL 14
REMARK VINA RESULT:      -2.2     12.821     13.532
REMARK  2 active torsions:
REMARK  status: ('A' for Active; 'I' for Inactive)
REMARK    1  A    between atoms: C3_3  and  O1_8 
REMARK    2  A    between atoms: C6_6  and  N1_7 
ROOT
HETATM    1  C1  UNL     1      35.441  10.676  -4.190  1.00  0.00     0.026 A 
HETATM    2  C2  UNL     1      36.148  10.142  -5.270  1.00  0.00     0.038 A 
HETATM    3  C3  UNL     1      35.525  10.008  -6.502  1.00  0.00     0.065 A 
HETATM    4  C4  UNL     1      34.207  10.416  -6.677  1.00  0.00     0.038 A 
HETATM    5  C5  UNL     1      33.505  10.949  -5.591  1.00  0.00     0.026 A 
HETATM    6  C6  UNL     1      34.097  11.037  -4.328  1.00  0.00     0.005 A 
ENDROOT
BRANCH   6   7
HETATM    7  N1  UNL     1      33.429  11.680  -3.279  1.00  0.00    -0.303 NA
HETATM    8  H5  UNL     1      32.635  12.236  -3.582  1.00  0.00     0.124 HD
HETATM    9  H6  UNL     1      34.042  12.190  -2.653  1.00  0.00     0.124 HD
ENDBRANCH   6   7
BRANCH   3  10
HETATM   10  O1  UNL     1      36.250   9.485  -7.531  1.00  0.00    -0.361 OA
HETATM   11  H7  UNL     1      37.135   9.882  -7.519  1.00  0.00     0.217 HD
ENDBRANCH   3  10
TORSDOF 2
ENDMDL
MODEL 15
REMARK VINA RESULT:      -2.1     12.788     13.696
REMARK  2 active torsions:
REMARK  status: ('A' for Active; 'I' for Inactive)
REMARK    1  A    between atoms: C3_3  and  O1_8 
REMARK    2  A    between atoms: C6_6  and  N1_7 
ROOT
HETATM    1  C1  UNL     1      36.250  10.513  -5.376  1.00  0.00     0.026 A 
HETATM    2  C2  UNL     1      35.529  10.926  -4.254  1.00  0.00     0.038 A 
HETATM    3  C3  UNL     1      34.142  10.904  -4.281  1.00  0.00     0.065 A 
HETATM    4  C4  UNL     1      33.463  10.460  -5.410  1.00  0.00     0.038 A 
HETATM    5  C5  UNL     1      34.191  10.049  -6.530  1.00  0.00     0.026 A 
HETATM    6  C6  UNL     1      35.588  10.119  -6.543  1.00  0.00     0.005 A 
ENDROOT
BRANCH   6   7
HETATM    7  N1  UNL     1      36.310   9.596  -7.622  1.00  0.00    -0.303 NA
HETATM    8  H5  UNL     1      36.766  10.303  -8.189  1.00  0.00     0.124 HD
HETATM    9  H6  UNL     1      35.788   8.930  -8.181  1.00  0.00     0.124 HD
ENDBRANCH   6   7
BRANCH   3  10
HETATM   10  O1  UNL     1      33.475  11.312  -3.165  1.00  0.00    -0.361 OA
HETATM   11  H7  UNL     1      33.152  12.216  -3.310  1.00  0.00     0.217 HD
ENDBRANCH   3  10
TORSDOF 2
ENDMDL
MODEL 16
REMARK VINA RESULT:      -2.1     13.324     14.249
REMARK  2 active torsions:
REMARK  status: ('A' for Active; 'I' for Inactive)
REMARK    1  A    between atoms: C3_3  and  O1_8 
REMARK    2  A    between atoms: C6_6  and  N1_7 
ROOT
HETATM    1  C1  UNL     1      33.852  12.558  -5.173  1.00  0.00     0.026 A 
HETATM    2  C2  UNL     1      33.358  11.405  -5.788  1.00  0.00     0.038 A 
HETATM    3  C3  UNL     1      33.477  10.179  -5.149  1.00  0.00     0.065 A 
HETATM    4  C4  UNL     1      34.069  10.090  -3.893  1.00  0.00     0.038 A 
HETATM    5  C5  UNL     1      34.562  11.248  -3.284  1.00  0.00     0.026 A 
HETATM    6  C6  UNL     1      34.504  12.483  -3.938  1.00  0.00     0.005 A 
ENDROOT
BRANCH   6   7
HETATM    7  N1  UNL     1      34.891  13.652  -3.273  1.00  0.00    -0.303 NA
HETATM    8  H5  UNL     1      35.215  13.492  -2.324  1.00  0.00     0.124 HD
HETATM    9  H6  UNL     1      34.208  14.400  -3.327  1.00  0.00     0.124 HD
ENDBRANCH   6   7
BRANCH   3  10
HETATM   10  O1  UNL     1      32.981   9.079  -5.780  1.00  0.00    -0.361 OA
HETATM   11  H7  UNL     1      33.140   9.170  -6.733  1.00  0.00     0.217 HD
ENDBRANCH   3  10
TORSDOF 2
ENDMDL
MODEL 17
REMARK VINA RESULT:      -2.1     11.961     12.085
REMARK  2 active torsions:
REMARK  status: ('A' for Active; 'I' for Inactive)
REMARK    1  A    between atoms: C3_3  and  O1_8 
REMARK    2  A    between atoms: C6_6  and  N1_7 
ROOT
HETATM    1  C1  UNL     1      33.559   5.377  -2.007  1.00  0.00     0.026 A 
HETATM    2  C2  UNL     1      33.424   4.073  -1.526  1.00  0.00     0.038 A 
HETATM    3  C3  UNL     1      32.158   3.558  -1.283  1.00  0.00     0.065 A 
HETATM    4  C4  UNL     1      31.023   4.323  -1.529  1.00  0.00     0.038 A 
HETATM    5  C5  UNL     1      31.167   5.628  -2.009  1.00  0.00     0.026 A 
HETATM    6  C6  UNL     1      32.435   6.185  -2.204  1.00  0.00     0.005 A 
ENDROOT
BRANCH   6   7
HETATM    7  N1  UNL     1      32.568   7.446  -2.796  1.00  0.00    -0.303 NA
HETATM    8  H5  UNL     1      32.815   7.411  -3.780  1.00  0.00     0.124 HD
HETATM    9  H6  UNL     1      33.156   8.085  -2.273  1.00  0.00     0.124 HD
ENDBRANCH   6   7
BRANCH   3  10
HETATM   10  O1  UNL     1      32.068   2.281  -0.817  1.00  0.00    -0.361 OA
HETATM   11  H7  UNL     1      32.946   1.997  -0.517  1.00  0.00     0.217 HD
ENDBRANCH   3  10
TORSDOF 2
ENDMDL
MODEL 18
REMARK VINA RESULT:      -2.1     14.298     15.245
REMARK  2 active torsions:
REMARK  status: ('A' for Active; 'I' for Inactive)
REMARK    1  A    between atoms: C3_3  and  O1_8 
REMARK    2  A    between atoms: C6_6  and  N1_7 
ROOT
HETATM    1  C1  UNL     1      33.393  12.765  -3.185  1.00  0.00     0.026 A 
HETATM    2  C2  UNL     1      32.839  13.790  -3.955  1.00  0.00     0.038 A 
HETATM    3  C3  UNL     1      32.670  13.610  -5.321  1.00  0.00     0.065 A 
HETATM    4  C4  UNL     1      33.032  12.412  -5.927  1.00  0.00     0.038 A 
HETATM    5  C5  UNL     1      33.588  11.391  -5.149  1.00  0.00     0.026 A 
HETATM    6  C6  UNL     1      33.820  11.576  -3.783  1.00  0.00     0.005 A 
ENDROOT
BRANCH   6   7
HETATM    7  N1  UNL     1      34.264  10.509  -2.993  1.00  0.00    -0.303 NA
HETATM    8  H5  UNL     1      34.025   9.597  -3.368  1.00  0.00     0.124 HD
HETATM    9  H6  UNL     1      34.025  10.598  -2.011  1.00  0.00     0.124 HD
ENDBRANCH   6   7
BRANCH   3  10
HETATM   10  O1  UNL     1      32.124  14.632  -6.037  1.00  0.00    -0.361 OA
HETATM   11  H7  UNL     1      31.833  14.287  -6.896  1.00  0.00     0.217 HD
ENDBRANCH   3  10
TORSDOF 2
ENDMDL
MODEL 19
REMARK VINA RESULT:      -2.0     11.765     12.586
REMARK  2 active torsions:
REMARK  status: ('A' for Active; 'I' for Inactive)
REMARK    1  A    between atoms: C3_3  and  O1_8 
REMARK    2  A    between atoms: C6_6  and  N1_7 
ROOT
HETATM    1  C1  UNL     1      31.746   3.752  -1.749  1.00  0.00     0.026 A 
HETATM    2  C2  UNL     1      32.130   4.874  -2.487  1.00  0.00     0.038 A 
HETATM    3  C3  UNL     1      31.858   6.144  -1.998  1.00  0.00     0.065 A 
HETATM    4  C4  UNL     1      31.222   6.310  -0.772  1.00  0.00     0.038 A 
HETATM    5  C5  UNL     1      30.840   5.182  -0.040  1.00  0.00     0.026 A 
HETATM    6  C6  UNL     1      31.053   3.894  -0.543  1.00  0.00     0.005 A 
ENDROOT
BRANCH   6   7
HETATM    7  N1  UNL     1      30.776   2.774   0.248  1.00  0.00    -0.303 NA
HETATM    8  H5  UNL     1      30.233   2.061  -0.229  1.00  0.00     0.124 HD
HETATM    9  H6  UNL     1      30.398   3.000   1.162  1.00  0.00     0.124 HD
ENDBRANCH   6   7
BRANCH   3  10
HETATM   10  O1  UNL     1      32.250   7.213  -2.746  1.00  0.00    -0.361 OA
HETATM   11  H7  UNL     1      31.898   7.108  -3.644  1.00  0.00     0.217 HD
ENDBRANCH   3  10
TORSDOF 2
ENDMDL
MODEL 20
REMARK VINA RESULT:      -2.0     12.378     12.821
REMARK  2 active torsions:
REMARK  status: ('A' for Active; 'I' for Inactive)
REMARK    1  A    between atoms: C3_3  and  O1_8 
REMARK    2  A    between atoms: C6_6  and  N1_7 
ROOT
HETATM    1  C1  UNL     1      32.204   4.769  -1.274  1.00  0.00     0.026 A 
HETATM    2  C2  UNL     1      31.929   5.907  -2.035  1.00  0.00     0.038 A 
HETATM    3  C3  UNL     1      32.963   6.760  -2.396  1.00  0.00     0.065 A 
HETATM    4  C4  UNL     1      34.272   6.482  -2.020  1.00  0.00     0.038 A 
HETATM    5  C5  UNL     1      34.540   5.342  -1.257  1.00  0.00     0.026 A 
HETATM    6  C6  UNL     1      33.504   4.503  -0.834  1.00  0.00     0.005 A 
ENDROOT
BRANCH   6   7
HETATM    7  N1  UNL     1      33.793   3.303  -0.174  1.00  0.00    -0.303 NA
HETATM    8  H5  UNL     1      33.356   3.225   0.739  1.00  0.00     0.124 HD
HETATM    9  H6  UNL     1      34.782   3.077  -0.150  1.00  0.00     0.124 HD
ENDBRANCH   6   7
BRANCH   3  10
HETATM   10  O1  UNL     1      32.654   7.858  -3.141  1.00  0.00    -0.361 OA
HETATM   11  H7  UNL     1      31.847   7.672  -3.648  1.00  0.00     0.217 HD
ENDBRANCH   3  10
TORSDOF 2
ENDMDL
