MODEL 1
REMARK VINA RESULT:      -3.2      0.000      0.000
REMARK  27 active torsions:
REMARK  status: ('A' for Active; 'I' for Inactive)
REMARK    1  A    between atoms: C2_2  and  S1_4 
REMARK    2  A    between atoms: S1_4  and  C3_5 
REMARK    3  A    between atoms: C3_5  and  C4_6 
REMARK    4  A    between atoms: C4_6  and  N1_7 
REMARK       I    between atoms: N1_7  and  C5_8 
REMARK    5  A    between atoms: C5_8  and  C6_10 
REMARK    6  A    between atoms: C6_10  and  C7_11 
REMARK    7  A    between atoms: C7_11  and  N2_12 
REMARK       I    between atoms: N2_12  and  C8_13 
REMARK    8  A    between atoms: C8_13  and  C9_15 
REMARK    9  A    between atoms: C9_15  and  C10_16 
REMARK   10  A    between atoms: C9_15  and  O17_54 
REMARK   11  A    between atoms: C10_16  and  C13_19 
REMARK   12  A    between atoms: C13_19  and  O4_20 
REMARK   13  A    between atoms: O4_20  and  P1_21 
REMARK   14  A    between atoms: P1_21  and  O6_23 
REMARK   15  A    between atoms: P1_21  and  O7_24 
REMARK   16  A    between atoms: O7_24  and  P2_25 
REMARK   17  A    between atoms: P2_25  and  O9_27 
REMARK   18  A    between atoms: P2_25  and  O10_28 
REMARK   19  A    between atoms: O10_28  and  C14_29 
REMARK   20  A    between atoms: C14_29  and  C15_30 
REMARK   21  A    between atoms: C16_31  and  O13_49 
REMARK   22  A    between atoms: C17_32  and  O12_48 
REMARK   23  A    between atoms: C18_33  and  N3_35 
REMARK   24  A    between atoms: C21_40  and  N7_47 
REMARK   25  A    between atoms: O13_49  and  P3_50 
REMARK   26  A    between atoms: P3_50  and  O15_52 
REMARK   27  A    between atoms: P3_50  and  O16_53 
ROOT
HETATM    1  C1  UNL     1      35.461   6.496  -5.624  1.00  0.00     0.104 C 
HETATM    2  C2  UNL     1      34.154   5.983  -6.146  1.00  0.00     0.182 C 
HETATM    3  O1  UNL     1      33.091   6.109  -5.544  1.00  0.00    -0.286 OA
ENDROOT
BRANCH   2   4
HETATM    4  S1  UNL     1      34.269   5.142  -7.686  1.00  0.00    -0.091 SA
BRANCH   4   5
HETATM    5  C3  UNL     1      34.607   6.546  -8.797  1.00  0.00     0.102 C 
BRANCH   5   6
HETATM    6  C4  UNL     1      33.422   7.509  -8.875  1.00  0.00     0.133 C 
BRANCH   6   7
HETATM    7  N1  UNL     1      32.278   6.935  -9.553  1.00  0.00    -0.360 N 
HETATM    8  C5  UNL     1      31.064   6.783  -8.924  1.00  0.00     0.219 C 
HETATM    9  O2  UNL     1      30.898   7.046  -7.738  1.00  0.00    -0.274 OA
HETATM   10  H8  UNL     1      32.378   6.646 -10.517  1.00  0.00     0.162 HD
BRANCH   8  11
HETATM   11  C6  UNL     1      29.989   6.216  -9.825  1.00  0.00     0.122 C 
BRANCH  11  12
HETATM   12  C7  UNL     1      28.751   7.112  -9.871  1.00  0.00     0.132 C 
BRANCH  12  13
HETATM   13  N2  UNL     1      29.071   8.511 -10.063  1.00  0.00    -0.358 N 
HETATM   14  C8  UNL     1      28.453   9.479  -9.292  1.00  0.00     0.247 C 
HETATM   15  O3  UNL     1      27.545   9.212  -8.516  1.00  0.00    -0.271 OA
HETATM   16  H13 UNL     1      30.017   8.704 -10.383  1.00  0.00     0.162 HD
BRANCH  14  17
HETATM   17  C9  UNL     1      29.010  10.899  -9.474  1.00  0.00     0.219 C 
BRANCH  17  18
HETATM   18  C10 UNL     1      30.158  11.268  -8.498  1.00  0.00     0.009 C 
HETATM   19  C11 UNL     1      30.162  10.379  -7.245  1.00  0.00     0.020 C 
HETATM   20  C12 UNL     1      31.538  11.141  -9.174  1.00  0.00     0.020 C 
BRANCH  18  21
HETATM   21  C13 UNL     1      29.909  12.748  -8.088  1.00  0.00     0.192 C 
BRANCH  21  22
HETATM   22  O4  UNL     1      28.538  13.029  -7.892  1.00  0.00    -0.296 OA
BRANCH  22  23
HETATM   23  P1  UNL     1      27.960  13.635  -6.524  1.00  0.00     0.401 P 
HETATM   24  O5  UNL     1      26.681  14.394  -6.684  1.00  0.00    -0.631 OA
BRANCH  23  25
HETATM   25  O6  UNL     1      29.147  14.494  -5.858  1.00  0.00    -0.307 OA
HETATM   26  H23 UNL     1      28.988  14.663  -4.920  1.00  0.00     0.222 HD
ENDBRANCH  23  25
BRANCH  23  27
HETATM   27  O7  UNL     1      27.878  12.396  -5.529  1.00  0.00    -0.195 OA
BRANCH  27  28
HETATM   28  P2  UNL     1      26.525  11.559  -5.451  1.00  0.00     0.401 P 
HETATM   29  O8  UNL     1      25.424  12.128  -4.617  1.00  0.00    -0.631 OA
BRANCH  28  30
HETATM   30  O9  UNL     1      26.137  11.346  -6.985  1.00  0.00    -0.307 OA
HETATM   31  H24 UNL     1      25.169  11.220  -7.143  1.00  0.00     0.222 HD
ENDBRANCH  28  30
BRANCH  28  32
HETATM   32  O10 UNL     1      27.004  10.086  -5.063  1.00  0.00    -0.294 OA
BRANCH  32  33
HETATM   33  C14 UNL     1      26.444   9.435  -3.952  1.00  0.00     0.215 C 
BRANCH  33  34
HETATM   34  C15 UNL     1      27.441   8.351  -3.545  1.00  0.00     0.180 C 
HETATM   35  C16 UNL     1      28.840   8.739  -4.005  1.00  0.00     0.197 C 
HETATM   36  C17 UNL     1      29.239   7.649  -4.982  1.00  0.00     0.199 C 
HETATM   37  C18 UNL     1      28.384   6.468  -4.516  1.00  0.00     0.262 C 
HETATM   38  O11 UNL     1      27.135   7.071  -4.110  1.00  0.00    -0.353 OA
BRANCH  35  39
HETATM   39  O13 UNL     1      29.687   8.770  -2.861  1.00  0.00    -0.286 OA
BRANCH  39  40
HETATM   40  P3  UNL     1      30.048  10.227  -2.311  1.00  0.00     0.391 P 
HETATM   41  O14 UNL     1      28.955  10.857  -1.510  1.00  0.00    -0.632 OA
BRANCH  40  42
HETATM   42  O15 UNL     1      30.489  10.957  -3.665  1.00  0.00    -0.307 OA
HETATM   43  H36 UNL     1      29.827  11.641  -3.924  1.00  0.00     0.222 HD
ENDBRANCH  40  42
BRANCH  40  44
HETATM   44  O16 UNL     1      31.433   9.954  -1.580  1.00  0.00    -0.307 OA
HETATM   45  H37 UNL     1      32.071  10.676  -1.698  1.00  0.00     0.222 HD
ENDBRANCH  40  44
ENDBRANCH  39  40
ENDBRANCH  35  39
BRANCH  36  46
HETATM   46  O12 UNL     1      30.658   7.474  -4.978  1.00  0.00    -0.388 OA
HETATM   47  H35 UNL     1      30.994   7.951  -4.182  1.00  0.00     0.210 HD
ENDBRANCH  36  46
BRANCH  37  48
HETATM   48  N3  UNL     1      28.119   5.519  -5.579  1.00  0.00    -0.297 N 
HETATM   49  C19 UNL     1      26.942   5.352  -6.270  1.00  0.00     0.188 A 
HETATM   50  N4  UNL     1      27.063   4.495  -7.260  1.00  0.00    -0.346 N 
HETATM   51  C20 UNL     1      28.385   4.089  -7.211  1.00  0.00     0.116 A 
HETATM   52  H4  UNL     1      26.343   4.196  -7.918  1.00  0.00     0.167 HD
HETATM   53  C21 UNL     1      29.146   3.224  -8.016  1.00  0.00     0.109 A 
HETATM   54  C23 UNL     1      29.040   4.686  -6.150  1.00  0.00     0.142 A 
HETATM   55  N5  UNL     1      30.447   3.017  -7.696  1.00  0.00    -0.341 N 
HETATM   56  C22 UNL     1      30.947   3.650  -6.616  1.00  0.00     0.183 A 
HETATM   57  H5  UNL     1      31.032   2.399  -8.258  1.00  0.00     0.167 HD
HETATM   58  N6  UNL     1      30.321   4.504  -5.781  1.00  0.00    -0.336 N 
HETATM   59  H6  UNL     1      30.759   4.952  -4.975  1.00  0.00     0.168 HD
BRANCH  53  60
HETATM   60  N7  UNL     1      28.633   2.559  -9.118  1.00  0.00    -0.287 NA
HETATM   61  H33 UNL     1      27.829   3.014  -9.544  1.00  0.00     0.125 HD
HETATM   62  H34 UNL     1      28.573   1.559  -8.983  1.00  0.00     0.125 HD
ENDBRANCH  53  60
ENDBRANCH  37  48
ENDBRANCH  33  34
ENDBRANCH  32  33
ENDBRANCH  28  32
ENDBRANCH  27  28
ENDBRANCH  23  27
ENDBRANCH  22  23
ENDBRANCH  21  22
ENDBRANCH  18  21
ENDBRANCH  17  18
BRANCH  17  63
HETATM   63  O17 UNL     1      29.479  11.077 -10.815  1.00  0.00    -0.385 OA
HETATM   64  H38 UNL     1      30.179  10.423 -10.979  1.00  0.00     0.210 HD
ENDBRANCH  17  63
ENDBRANCH  14  17
ENDBRANCH  12  13
ENDBRANCH  11  12
ENDBRANCH   8  11
ENDBRANCH   6   7
ENDBRANCH   5   6
ENDBRANCH   4   5
ENDBRANCH   2   4
TORSDOF 27
ENDMDL
MODEL 2
REMARK VINA RESULT:      -3.0      1.511      2.255
REMARK  27 active torsions:
REMARK  status: ('A' for Active; 'I' for Inactive)
REMARK    1  A    between atoms: C2_2  and  S1_4 
REMARK    2  A    between atoms: S1_4  and  C3_5 
REMARK    3  A    between atoms: C3_5  and  C4_6 
REMARK    4  A    between atoms: C4_6  and  N1_7 
REMARK       I    between atoms: N1_7  and  C5_8 
REMARK    5  A    between atoms: C5_8  and  C6_10 
REMARK    6  A    between atoms: C6_10  and  C7_11 
REMARK    7  A    between atoms: C7_11  and  N2_12 
REMARK       I    between atoms: N2_12  and  C8_13 
REMARK    8  A    between atoms: C8_13  and  C9_15 
REMARK    9  A    between atoms: C9_15  and  C10_16 
REMARK   10  A    between atoms: C9_15  and  O17_54 
REMARK   11  A    between atoms: C10_16  and  C13_19 
REMARK   12  A    between atoms: C13_19  and  O4_20 
REMARK   13  A    between atoms: O4_20  and  P1_21 
REMARK   14  A    between atoms: P1_21  and  O6_23 
REMARK   15  A    between atoms: P1_21  and  O7_24 
REMARK   16  A    between atoms: O7_24  and  P2_25 
REMARK   17  A    between atoms: P2_25  and  O9_27 
REMARK   18  A    between atoms: P2_25  and  O10_28 
REMARK   19  A    between atoms: O10_28  and  C14_29 
REMARK   20  A    between atoms: C14_29  and  C15_30 
REMARK   21  A    between atoms: C16_31  and  O13_49 
REMARK   22  A    between atoms: C17_32  and  O12_48 
REMARK   23  A    between atoms: C18_33  and  N3_35 
REMARK   24  A    between atoms: C21_40  and  N7_47 
REMARK   25  A    between atoms: O13_49  and  P3_50 
REMARK   26  A    between atoms: P3_50  and  O15_52 
REMARK   27  A    between atoms: P3_50  and  O16_53 
ROOT
HETATM    1  C1  UNL     1      34.043   5.672  -5.535  1.00  0.00     0.104 C 
HETATM    2  C2  UNL     1      33.400   4.646  -6.417  1.00  0.00     0.182 C 
HETATM    3  O1  UNL     1      32.808   3.660  -5.984  1.00  0.00    -0.286 OA
ENDROOT
BRANCH   2   4
HETATM    4  S1  UNL     1      33.594   4.946  -8.139  1.00  0.00    -0.091 SA
BRANCH   4   5
HETATM    5  C3  UNL     1      34.294   6.627  -8.098  1.00  0.00     0.102 C 
BRANCH   5   6
HETATM    6  C4  UNL     1      33.270   7.681  -8.524  1.00  0.00     0.133 C 
BRANCH   6   7
HETATM    7  N1  UNL     1      32.157   7.115  -9.257  1.00  0.00    -0.360 N 
HETATM    8  C5  UNL     1      30.872   7.153  -8.766  1.00  0.00     0.219 C 
HETATM    9  O2  UNL     1      30.604   7.591  -7.653  1.00  0.00    -0.274 OA
HETATM   10  H8  UNL     1      32.333   6.688 -10.157  1.00  0.00     0.162 HD
BRANCH   8  11
HETATM   11  C6  UNL     1      29.851   6.557  -9.711  1.00  0.00     0.122 C 
BRANCH  11  12
HETATM   12  C7  UNL     1      28.657   7.487  -9.921  1.00  0.00     0.132 C 
BRANCH  12  13
HETATM   13  N2  UNL     1      29.039   8.874 -10.084  1.00  0.00    -0.358 N 
HETATM   14  C8  UNL     1      28.404   9.863  -9.355  1.00  0.00     0.247 C 
HETATM   15  O3  UNL     1      27.433   9.627  -8.646  1.00  0.00    -0.271 OA
HETATM   16  H13 UNL     1      30.013   9.034 -10.334  1.00  0.00     0.162 HD
BRANCH  14  17
HETATM   17  C9  UNL     1      29.023  11.262  -9.490  1.00  0.00     0.219 C 
BRANCH  17  18
HETATM   18  C10 UNL     1      30.206  11.537  -8.525  1.00  0.00     0.009 C 
HETATM   19  C11 UNL     1      29.930  11.015  -7.107  1.00  0.00     0.020 C 
HETATM   20  C12 UNL     1      31.509  10.882  -9.027  1.00  0.00     0.020 C 
BRANCH  18  21
HETATM   21  C13 UNL     1      30.377  13.083  -8.488  1.00  0.00     0.192 C 
BRANCH  21  22
HETATM   22  O4  UNL     1      29.169  13.764  -8.765  1.00  0.00    -0.296 OA
BRANCH  22  23
HETATM   23  P1  UNL     1      28.395  14.642  -7.669  1.00  0.00     0.401 P 
HETATM   24  O5  UNL     1      27.809  15.910  -8.205  1.00  0.00    -0.631 OA
BRANCH  23  25
HETATM   25  O6  UNL     1      29.416  14.864  -6.445  1.00  0.00    -0.307 OA
HETATM   26  H23 UNL     1      29.209  15.663  -5.942  1.00  0.00     0.222 HD
ENDBRANCH  23  25
BRANCH  23  27
HETATM   27  O7  UNL     1      27.340  13.646  -7.016  1.00  0.00    -0.195 OA
BRANCH  27  28
HETATM   28  P2  UNL     1      26.423  14.171  -5.824  1.00  0.00     0.401 P 
HETATM   29  O8  UNL     1      27.004  15.219  -4.933  1.00  0.00    -0.631 OA
BRANCH  28  30
HETATM   30  O9  UNL     1      25.080  14.617  -6.563  1.00  0.00    -0.307 OA
HETATM   31  H24 UNL     1      25.182  14.757  -7.536  1.00  0.00     0.222 HD
ENDBRANCH  28  30
BRANCH  28  32
HETATM   32  O10 UNL     1      25.929  12.835  -5.100  1.00  0.00    -0.294 OA
BRANCH  32  33
HETATM   33  C14 UNL     1      26.141  11.588  -5.708  1.00  0.00     0.215 C 
BRANCH  33  34
HETATM   34  C15 UNL     1      26.279  10.577  -4.570  1.00  0.00     0.180 C 
HETATM   35  C16 UNL     1      27.619  10.767  -3.872  1.00  0.00     0.197 C 
HETATM   36  C17 UNL     1      28.354   9.458  -4.088  1.00  0.00     0.199 C 
HETATM   37  C18 UNL     1      27.202   8.469  -4.283  1.00  0.00     0.262 C 
HETATM   38  O11 UNL     1      26.210   9.219  -5.019  1.00  0.00    -0.353 OA
BRANCH  35  39
HETATM   39  O13 UNL     1      27.367  11.021  -2.494  1.00  0.00    -0.286 OA
BRANCH  39  40
HETATM   40  P3  UNL     1      28.141  12.273  -1.871  1.00  0.00     0.391 P 
HETATM   41  O14 UNL     1      29.614  12.256  -2.119  1.00  0.00    -0.632 OA
BRANCH  40  42
HETATM   42  O15 UNL     1      27.645  12.206  -0.352  1.00  0.00    -0.307 OA
HETATM   43  H36 UNL     1      26.850  11.626  -0.270  1.00  0.00     0.222 HD
ENDBRANCH  40  42
BRANCH  40  44
HETATM   44  O16 UNL     1      27.308  13.488  -2.470  1.00  0.00    -0.307 OA
HETATM   45  H37 UNL     1      27.844  14.073  -3.029  1.00  0.00     0.222 HD
ENDBRANCH  40  44
ENDBRANCH  39  40
ENDBRANCH  35  39
BRANCH  36  46
HETATM   46  O12 UNL     1      29.255   9.211  -3.005  1.00  0.00    -0.388 OA
HETATM   47  H35 UNL     1      29.047   8.306  -2.671  1.00  0.00     0.210 HD
ENDBRANCH  36  46
BRANCH  37  48
HETATM   48  N3  UNL     1      27.588   7.312  -5.065  1.00  0.00    -0.297 N 
HETATM   49  C19 UNL     1      27.240   7.036  -6.367  1.00  0.00     0.188 A 
HETATM   50  N4  UNL     1      27.855   5.970  -6.832  1.00  0.00    -0.346 N 
HETATM   51  C20 UNL     1      28.645   5.538  -5.781  1.00  0.00     0.116 A 
HETATM   52  H4  UNL     1      27.770   5.556  -7.759  1.00  0.00     0.167 HD
HETATM   53  C21 UNL     1      29.566   4.483  -5.653  1.00  0.00     0.109 A 
HETATM   54  C23 UNL     1      28.459   6.337  -4.668  1.00  0.00     0.142 A 
HETATM   55  N5  UNL     1      30.189   4.307  -4.462  1.00  0.00    -0.341 N 
HETATM   56  C22 UNL     1      29.891   5.152  -3.455  1.00  0.00     0.183 A 
HETATM   57  H5  UNL     1      30.866   3.555  -4.332  1.00  0.00     0.167 HD
HETATM   58  N6  UNL     1      29.038   6.196  -3.462  1.00  0.00    -0.336 N 
HETATM   59  H6  UNL     1      28.856   6.800  -2.660  1.00  0.00     0.168 HD
BRANCH  53  60
HETATM   60  N7  UNL     1      29.865   3.603  -6.681  1.00  0.00    -0.287 NA
HETATM   61  H33 UNL     1      29.630   3.948  -7.609  1.00  0.00     0.125 HD
HETATM   62  H34 UNL     1      29.608   2.648  -6.470  1.00  0.00     0.125 HD
ENDBRANCH  53  60
ENDBRANCH  37  48
ENDBRANCH  33  34
ENDBRANCH  32  33
ENDBRANCH  28  32
ENDBRANCH  27  28
ENDBRANCH  23  27
ENDBRANCH  22  23
ENDBRANCH  21  22
ENDBRANCH  18  21
ENDBRANCH  17  18
BRANCH  17  63
HETATM   63  O17 UNL     1      29.472  11.474 -10.832  1.00  0.00    -0.385 OA
HETATM   64  H38 UNL     1      29.736  12.406 -10.919  1.00  0.00     0.210 HD
ENDBRANCH  17  63
ENDBRANCH  14  17
ENDBRANCH  12  13
ENDBRANCH  11  12
ENDBRANCH   8  11
ENDBRANCH   6   7
ENDBRANCH   5   6
ENDBRANCH   4   5
ENDBRANCH   2   4
TORSDOF 27
ENDMDL
MODEL 3
REMARK VINA RESULT:      -3.0      4.064      7.727
REMARK  27 active torsions:
REMARK  status: ('A' for Active; 'I' for Inactive)
REMARK    1  A    between atoms: C2_2  and  S1_4 
REMARK    2  A    between atoms: S1_4  and  C3_5 
REMARK    3  A    between atoms: C3_5  and  C4_6 
REMARK    4  A    between atoms: C4_6  and  N1_7 
REMARK       I    between atoms: N1_7  and  C5_8 
REMARK    5  A    between atoms: C5_8  and  C6_10 
REMARK    6  A    between atoms: C6_10  and  C7_11 
REMARK    7  A    between atoms: C7_11  and  N2_12 
REMARK       I    between atoms: N2_12  and  C8_13 
REMARK    8  A    between atoms: C8_13  and  C9_15 
REMARK    9  A    between atoms: C9_15  and  C10_16 
REMARK   10  A    between atoms: C9_15  and  O17_54 
REMARK   11  A    between atoms: C10_16  and  C13_19 
REMARK   12  A    between atoms: C13_19  and  O4_20 
REMARK   13  A    between atoms: O4_20  and  P1_21 
REMARK   14  A    between atoms: P1_21  and  O6_23 
REMARK   15  A    between atoms: P1_21  and  O7_24 
REMARK   16  A    between atoms: O7_24  and  P2_25 
REMARK   17  A    between atoms: P2_25  and  O9_27 
REMARK   18  A    between atoms: P2_25  and  O10_28 
REMARK   19  A    between atoms: O10_28  and  C14_29 
REMARK   20  A    between atoms: C14_29  and  C15_30 
REMARK   21  A    between atoms: C16_31  and  O13_49 
REMARK   22  A    between atoms: C17_32  and  O12_48 
REMARK   23  A    between atoms: C18_33  and  N3_35 
REMARK   24  A    between atoms: C21_40  and  N7_47 
REMARK   25  A    between atoms: O13_49  and  P3_50 
REMARK   26  A    between atoms: P3_50  and  O15_52 
REMARK   27  A    between atoms: P3_50  and  O16_53 
ROOT
HETATM    1  C1  UNL     1      35.604   9.792  -3.871  1.00  0.00     0.104 C 
HETATM    2  C2  UNL     1      35.618   8.885  -5.064  1.00  0.00     0.182 C 
HETATM    3  O1  UNL     1      35.907   9.264  -6.196  1.00  0.00    -0.286 OA
ENDROOT
BRANCH   2   4
HETATM    4  S1  UNL     1      35.144   7.227  -4.720  1.00  0.00    -0.091 SA
BRANCH   4   5
HETATM    5  C3  UNL     1      33.594   7.129  -5.672  1.00  0.00     0.102 C 
BRANCH   5   6
HETATM    6  C4  UNL     1      33.732   6.220  -6.895  1.00  0.00     0.133 C 
BRANCH   6   7
HETATM    7  N1  UNL     1      32.463   5.678  -7.335  1.00  0.00    -0.360 N 
HETATM    8  C5  UNL     1      31.882   6.066  -8.520  1.00  0.00     0.219 C 
HETATM    9  O2  UNL     1      32.356   6.945  -9.231  1.00  0.00    -0.274 OA
HETATM   10  H8  UNL     1      32.000   4.991  -6.755  1.00  0.00     0.162 HD
BRANCH   8  11
HETATM   11  C6  UNL     1      30.589   5.339  -8.819  1.00  0.00     0.122 C 
BRANCH  11  12
HETATM   12  C7  UNL     1      29.847   5.959 -10.003  1.00  0.00     0.132 C 
BRANCH  12  13
HETATM   13  N2  UNL     1      29.649   7.386  -9.865  1.00  0.00    -0.358 N 
HETATM   14  C8  UNL     1      28.380   7.899  -9.669  1.00  0.00     0.247 C 
HETATM   15  O3  UNL     1      27.378   7.196  -9.723  1.00  0.00    -0.271 OA
HETATM   16  H13 UNL     1      30.427   7.898  -9.452  1.00  0.00     0.162 HD
BRANCH  14  17
HETATM   17  C9  UNL     1      28.333   9.403  -9.362  1.00  0.00     0.219 C 
BRANCH  17  18
HETATM   18  C10 UNL     1      28.329   9.750  -7.850  1.00  0.00     0.009 C 
HETATM   19  C11 UNL     1      27.465   8.777  -7.035  1.00  0.00     0.020 C 
HETATM   20  C12 UNL     1      29.754   9.728  -7.262  1.00  0.00     0.020 C 
BRANCH  18  21
HETATM   21  C13 UNL     1      27.740  11.186  -7.744  1.00  0.00     0.192 C 
BRANCH  21  22
HETATM   22  O4  UNL     1      27.160  11.438  -6.479  1.00  0.00    -0.296 OA
BRANCH  22  23
HETATM   23  P1  UNL     1      27.113  12.898  -5.819  1.00  0.00     0.401 P 
HETATM   24  O5  UNL     1      26.944  12.892  -4.332  1.00  0.00    -0.631 OA
BRANCH  23  25
HETATM   25  O6  UNL     1      25.972  13.725  -6.599  1.00  0.00    -0.307 OA
HETATM   26  H23 UNL     1      26.174  13.821  -7.538  1.00  0.00     0.222 HD
ENDBRANCH  23  25
BRANCH  23  27
HETATM   27  O7  UNL     1      28.430  13.626  -6.335  1.00  0.00    -0.195 OA
BRANCH  27  28
HETATM   28  P2  UNL     1      29.790  13.418  -5.532  1.00  0.00     0.401 P 
HETATM   29  O8  UNL     1      30.256  14.556  -4.684  1.00  0.00    -0.631 OA
BRANCH  28  30
HETATM   30  O9  UNL     1      29.534  12.065  -4.723  1.00  0.00    -0.307 OA
HETATM   31  H24 UNL     1      29.705  11.244  -5.245  1.00  0.00     0.222 HD
ENDBRANCH  28  30
BRANCH  28  32
HETATM   32  O10 UNL     1      30.819  12.907  -6.641  1.00  0.00    -0.294 OA
BRANCH  32  33
HETATM   33  C14 UNL     1      31.217  13.765  -7.678  1.00  0.00     0.215 C 
BRANCH  33  34
HETATM   34  C15 UNL     1      30.630  13.182  -8.963  1.00  0.00     0.180 C 
HETATM   35  C16 UNL     1      31.636  13.321 -10.098  1.00  0.00     0.197 C 
HETATM   36  C17 UNL     1      30.950  14.217 -11.111  1.00  0.00     0.199 C 
HETATM   37  C18 UNL     1      29.470  13.976 -10.807  1.00  0.00     0.262 C 
HETATM   38  O11 UNL     1      29.420  13.831  -9.370  1.00  0.00    -0.353 OA
BRANCH  35  39
HETATM   39  O13 UNL     1      31.895  12.022 -10.619  1.00  0.00    -0.286 OA
BRANCH  39  40
HETATM   40  P3  UNL     1      33.158  11.267  -9.993  1.00  0.00     0.391 P 
HETATM   41  O14 UNL     1      34.013  12.137  -9.130  1.00  0.00    -0.632 OA
BRANCH  40  42
HETATM   42  O15 UNL     1      33.822  10.651 -11.312  1.00  0.00    -0.307 OA
HETATM   43  H36 UNL     1      33.216   9.997 -11.734  1.00  0.00     0.222 HD
ENDBRANCH  40  42
BRANCH  40  44
HETATM   44  O16 UNL     1      32.467  10.006  -9.313  1.00  0.00    -0.307 OA
HETATM   45  H37 UNL     1      31.939   9.484  -9.938  1.00  0.00     0.222 HD
ENDBRANCH  40  44
ENDBRANCH  39  40
ENDBRANCH  35  39
BRANCH  36  46
HETATM   46  O12 UNL     1      31.407  13.913 -12.432  1.00  0.00    -0.388 OA
HETATM   47  H35 UNL     1      30.653  13.472 -12.892  1.00  0.00     0.210 HD
ENDBRANCH  36  46
BRANCH  37  48
HETATM   48  N3  UNL     1      28.632  15.094 -11.192  1.00  0.00    -0.297 N 
HETATM   49  C19 UNL     1      28.198  16.123 -10.388  1.00  0.00     0.188 A 
HETATM   50  N4  UNL     1      27.559  17.050 -11.067  1.00  0.00    -0.346 N 
HETATM   51  C20 UNL     1      27.583  16.603 -12.376  1.00  0.00     0.116 A 
HETATM   52  H4  UNL     1      27.138  17.907 -10.709  1.00  0.00     0.167 HD
HETATM   53  C21 UNL     1      27.112  17.154 -13.581  1.00  0.00     0.109 A 
HETATM   54  C23 UNL     1      28.211  15.373 -12.462  1.00  0.00     0.142 A 
HETATM   55  N5  UNL     1      27.282  16.451 -14.727  1.00  0.00    -0.341 N 
HETATM   56  C22 UNL     1      27.893  15.251 -14.655  1.00  0.00     0.183 A 
HETATM   57  H5  UNL     1      26.957  16.820 -15.620  1.00  0.00     0.167 HD
HETATM   58  N6  UNL     1      28.391  14.629 -13.567  1.00  0.00    -0.336 N 
HETATM   59  H6  UNL     1      28.845  13.715 -13.580  1.00  0.00     0.168 HD
BRANCH  53  60
HETATM   60  N7  UNL     1      26.470  18.380 -13.658  1.00  0.00    -0.287 NA
HETATM   61  H33 UNL     1      25.733  18.511 -12.969  1.00  0.00     0.125 HD
HETATM   62  H34 UNL     1      26.261  18.656 -14.608  1.00  0.00     0.125 HD
ENDBRANCH  53  60
ENDBRANCH  37  48
ENDBRANCH  33  34
ENDBRANCH  32  33
ENDBRANCH  28  32
ENDBRANCH  27  28
ENDBRANCH  23  27
ENDBRANCH  22  23
ENDBRANCH  21  22
ENDBRANCH  18  21
ENDBRANCH  17  18
BRANCH  17  63
HETATM   63  O17 UNL     1      29.441  10.067  -9.978  1.00  0.00    -0.385 OA
HETATM   64  H38 UNL     1      29.212  11.006 -10.079  1.00  0.00     0.210 HD
ENDBRANCH  17  63
ENDBRANCH  14  17
ENDBRANCH  12  13
ENDBRANCH  11  12
ENDBRANCH   8  11
ENDBRANCH   6   7
ENDBRANCH   5   6
ENDBRANCH   4   5
ENDBRANCH   2   4
TORSDOF 27
ENDMDL
MODEL 4
REMARK VINA RESULT:      -2.9     13.890     16.660
REMARK  27 active torsions:
REMARK  status: ('A' for Active; 'I' for Inactive)
REMARK    1  A    between atoms: C2_2  and  S1_4 
REMARK    2  A    between atoms: S1_4  and  C3_5 
REMARK    3  A    between atoms: C3_5  and  C4_6 
REMARK    4  A    between atoms: C4_6  and  N1_7 
REMARK       I    between atoms: N1_7  and  C5_8 
REMARK    5  A    between atoms: C5_8  and  C6_10 
REMARK    6  A    between atoms: C6_10  and  C7_11 
REMARK    7  A    between atoms: C7_11  and  N2_12 
REMARK       I    between atoms: N2_12  and  C8_13 
REMARK    8  A    between atoms: C8_13  and  C9_15 
REMARK    9  A    between atoms: C9_15  and  C10_16 
REMARK   10  A    between atoms: C9_15  and  O17_54 
REMARK   11  A    between atoms: C10_16  and  C13_19 
REMARK   12  A    between atoms: C13_19  and  O4_20 
REMARK   13  A    between atoms: O4_20  and  P1_21 
REMARK   14  A    between atoms: P1_21  and  O6_23 
REMARK   15  A    between atoms: P1_21  and  O7_24 
REMARK   16  A    between atoms: O7_24  and  P2_25 
REMARK   17  A    between atoms: P2_25  and  O9_27 
REMARK   18  A    between atoms: P2_25  and  O10_28 
REMARK   19  A    between atoms: O10_28  and  C14_29 
REMARK   20  A    between atoms: C14_29  and  C15_30 
REMARK   21  A    between atoms: C16_31  and  O13_49 
REMARK   22  A    between atoms: C17_32  and  O12_48 
REMARK   23  A    between atoms: C18_33  and  N3_35 
REMARK   24  A    between atoms: C21_40  and  N7_47 
REMARK   25  A    between atoms: O13_49  and  P3_50 
REMARK   26  A    between atoms: P3_50  and  O15_52 
REMARK   27  A    between atoms: P3_50  and  O16_53 
ROOT
HETATM    1  C1  UNL     1      11.220  15.323  -3.739  1.00  0.00     0.104 C 
HETATM    2  C2  UNL     1      11.558  14.138  -4.592  1.00  0.00     0.182 C 
HETATM    3  O1  UNL     1      12.391  14.173  -5.495  1.00  0.00    -0.286 OA
ENDROOT
BRANCH   2   4
HETATM    4  S1  UNL     1      10.632  12.690  -4.220  1.00  0.00    -0.091 SA
BRANCH   4   5
HETATM    5  C3  UNL     1      11.935  11.426  -4.371  1.00  0.00     0.102 C 
BRANCH   5   6
HETATM    6  C4  UNL     1      11.976  10.813  -5.772  1.00  0.00     0.133 C 
BRANCH   6   7
HETATM    7  N1  UNL     1      13.084  11.304  -6.566  1.00  0.00    -0.360 N 
HETATM    8  C5  UNL     1      13.404  10.749  -7.783  1.00  0.00     0.219 C 
HETATM    9  O2  UNL     1      12.831   9.762  -8.230  1.00  0.00    -0.274 OA
HETATM   10  H8  UNL     1      13.627  12.080  -6.214  1.00  0.00     0.162 HD
BRANCH   8  11
HETATM   11  C6  UNL     1      14.558  11.444  -8.473  1.00  0.00     0.122 C 
BRANCH  11  12
HETATM   12  C7  UNL     1      14.530  12.955  -8.250  1.00  0.00     0.132 C 
BRANCH  12  13
HETATM   13  N2  UNL     1      15.732  13.620  -8.707  1.00  0.00    -0.358 N 
HETATM   14  C8  UNL     1      15.654  14.857  -9.319  1.00  0.00     0.247 C 
HETATM   15  O3  UNL     1      14.583  15.379  -9.602  1.00  0.00    -0.271 OA
HETATM   16  H13 UNL     1      16.575  13.415  -8.175  1.00  0.00     0.162 HD
BRANCH  14  17
HETATM   17  C9  UNL     1      17.009  15.526  -9.594  1.00  0.00     0.219 C 
BRANCH  17  18
HETATM   18  C10 UNL     1      17.284  16.795  -8.744  1.00  0.00     0.009 C 
HETATM   19  C11 UNL     1      18.730  17.290  -8.895  1.00  0.00     0.020 C 
HETATM   20  C12 UNL     1      16.342  17.952  -9.134  1.00  0.00     0.020 C 
BRANCH  18  21
HETATM   21  C13 UNL     1      17.024  16.383  -7.266  1.00  0.00     0.192 C 
BRANCH  21  22
HETATM   22  O4  UNL     1      18.219  16.083  -6.573  1.00  0.00    -0.296 OA
BRANCH  22  23
HETATM   23  P1  UNL     1      18.450  14.701  -5.794  1.00  0.00     0.401 P 
HETATM   24  O5  UNL     1      19.837  14.522  -5.263  1.00  0.00    -0.631 OA
BRANCH  23  25
HETATM   25  O6  UNL     1      17.976  13.523  -6.784  1.00  0.00    -0.307 OA
HETATM   26  H23 UNL     1      18.014  12.656  -6.360  1.00  0.00     0.222 HD
ENDBRANCH  23  25
BRANCH  23  27
HETATM   27  O7  UNL     1      17.304  14.655  -4.690  1.00  0.00    -0.195 OA
BRANCH  27  28
HETATM   28  P2  UNL     1      16.614  13.260  -4.354  1.00  0.00     0.401 P 
HETATM   29  O8  UNL     1      15.429  12.875  -5.179  1.00  0.00    -0.631 OA
BRANCH  28  30
HETATM   30  O9  UNL     1      17.825  12.223  -4.432  1.00  0.00    -0.307 OA
HETATM   31  H24 UNL     1      17.585  11.349  -4.826  1.00  0.00     0.222 HD
ENDBRANCH  28  30
BRANCH  28  32
HETATM   32  O10 UNL     1      16.376  13.316  -2.776  1.00  0.00    -0.294 OA
BRANCH  32  33
HETATM   33  C14 UNL     1      15.989  14.520  -2.167  1.00  0.00     0.215 C 
BRANCH  33  34
HETATM   34  C15 UNL     1      14.473  14.443  -1.996  1.00  0.00     0.180 C 
HETATM   35  C16 UNL     1      14.086  14.930  -0.605  1.00  0.00     0.197 C 
HETATM   36  C17 UNL     1      13.443  13.726   0.058  1.00  0.00     0.199 C 
HETATM   37  C18 UNL     1      12.940  12.925  -1.144  1.00  0.00     0.262 C 
HETATM   38  O11 UNL     1      13.959  13.115  -2.151  1.00  0.00    -0.353 OA
BRANCH  35  39
HETATM   39  O13 UNL     1      13.173  16.012  -0.755  1.00  0.00    -0.286 OA
BRANCH  39  40
HETATM   40  P3  UNL     1      13.609  17.383  -0.058  1.00  0.00     0.391 P 
HETATM   41  O14 UNL     1      14.564  18.195  -0.872  1.00  0.00    -0.632 OA
BRANCH  40  42
HETATM   42  O15 UNL     1      14.114  16.849   1.363  1.00  0.00    -0.307 OA
HETATM   43  H36 UNL     1      13.652  16.012   1.605  1.00  0.00     0.222 HD
ENDBRANCH  40  42
BRANCH  40  44
HETATM   44  O16 UNL     1      12.196  18.029   0.280  1.00  0.00    -0.307 OA
HETATM   45  H37 UNL     1      12.192  18.505   1.125  1.00  0.00     0.222 HD
ENDBRANCH  40  44
ENDBRANCH  39  40
ENDBRANCH  35  39
BRANCH  36  46
HETATM   46  O12 UNL     1      12.472  14.150   1.018  1.00  0.00    -0.388 OA
HETATM   47  H35 UNL     1      11.588  13.972   0.616  1.00  0.00     0.210 HD
ENDBRANCH  36  46
BRANCH  37  48
HETATM   48  N3  UNL     1      12.825  11.508  -0.860  1.00  0.00    -0.297 N 
HETATM   49  C19 UNL     1      11.666  10.784  -0.703  1.00  0.00     0.188 A 
HETATM   50  N4  UNL     1      11.897   9.495  -0.580  1.00  0.00    -0.346 N 
HETATM   51  C20 UNL     1      13.273   9.377  -0.666  1.00  0.00     0.116 A 
HETATM   52  H4  UNL     1      11.215   8.749  -0.450  1.00  0.00     0.167 HD
HETATM   53  C21 UNL     1      14.138   8.269  -0.650  1.00  0.00     0.109 A 
HETATM   54  C23 UNL     1      13.863  10.621  -0.800  1.00  0.00     0.142 A 
HETATM   55  N5  UNL     1      15.472   8.485  -0.746  1.00  0.00    -0.341 N 
HETATM   56  C22 UNL     1      15.907   9.757  -0.848  1.00  0.00     0.183 A 
HETATM   57  H5  UNL     1      16.130   7.706  -0.741  1.00  0.00     0.167 HD
HETATM   58  N6  UNL     1      15.178  10.891  -0.883  1.00  0.00    -0.336 N 
HETATM   59  H6  UNL     1      15.571  11.829  -0.962  1.00  0.00     0.168 HD
BRANCH  53  60
HETATM   60  N7  UNL     1      13.697   6.960  -0.530  1.00  0.00    -0.287 NA
HETATM   61  H33 UNL     1      13.624   6.629   0.430  1.00  0.00     0.125 HD
HETATM   62  H34 UNL     1      14.131   6.335  -1.195  1.00  0.00     0.125 HD
ENDBRANCH  53  60
ENDBRANCH  37  48
ENDBRANCH  33  34
ENDBRANCH  32  33
ENDBRANCH  28  32
ENDBRANCH  27  28
ENDBRANCH  23  27
ENDBRANCH  22  23
ENDBRANCH  21  22
ENDBRANCH  18  21
ENDBRANCH  17  18
BRANCH  17  63
HETATM   63  O17 UNL     1      18.073  14.593  -9.374  1.00  0.00    -0.385 OA
HETATM   64  H38 UNL     1      17.719  13.697  -9.501  1.00  0.00     0.210 HD
ENDBRANCH  17  63
ENDBRANCH  14  17
ENDBRANCH  12  13
ENDBRANCH  11  12
ENDBRANCH   8  11
ENDBRANCH   6   7
ENDBRANCH   5   6
ENDBRANCH   4   5
ENDBRANCH   2   4
TORSDOF 27
ENDMDL
MODEL 5
REMARK VINA RESULT:      -2.9      3.569      7.428
REMARK  27 active torsions:
REMARK  status: ('A' for Active; 'I' for Inactive)
REMARK    1  A    between atoms: C2_2  and  S1_4 
REMARK    2  A    between atoms: S1_4  and  C3_5 
REMARK    3  A    between atoms: C3_5  and  C4_6 
REMARK    4  A    between atoms: C4_6  and  N1_7 
REMARK       I    between atoms: N1_7  and  C5_8 
REMARK    5  A    between atoms: C5_8  and  C6_10 
REMARK    6  A    between atoms: C6_10  and  C7_11 
REMARK    7  A    between atoms: C7_11  and  N2_12 
REMARK       I    between atoms: N2_12  and  C8_13 
REMARK    8  A    between atoms: C8_13  and  C9_15 
REMARK    9  A    between atoms: C9_15  and  C10_16 
REMARK   10  A    between atoms: C9_15  and  O17_54 
REMARK   11  A    between atoms: C10_16  and  C13_19 
REMARK   12  A    between atoms: C13_19  and  O4_20 
REMARK   13  A    between atoms: O4_20  and  P1_21 
REMARK   14  A    between atoms: P1_21  and  O6_23 
REMARK   15  A    between atoms: P1_21  and  O7_24 
REMARK   16  A    between atoms: O7_24  and  P2_25 
REMARK   17  A    between atoms: P2_25  and  O9_27 
REMARK   18  A    between atoms: P2_25  and  O10_28 
REMARK   19  A    between atoms: O10_28  and  C14_29 
REMARK   20  A    between atoms: C14_29  and  C15_30 
REMARK   21  A    between atoms: C16_31  and  O13_49 
REMARK   22  A    between atoms: C17_32  and  O12_48 
REMARK   23  A    between atoms: C18_33  and  N3_35 
REMARK   24  A    between atoms: C21_40  and  N7_47 
REMARK   25  A    between atoms: O13_49  and  P3_50 
REMARK   26  A    between atoms: P3_50  and  O15_52 
REMARK   27  A    between atoms: P3_50  and  O16_53 
ROOT
HETATM    1  C1  UNL     1      33.817   9.098  -0.701  1.00  0.00     0.104 C 
HETATM    2  C2  UNL     1      33.203   8.649  -1.992  1.00  0.00     0.182 C 
HETATM    3  O1  UNL     1      32.129   8.056  -2.058  1.00  0.00    -0.286 OA
ENDROOT
BRANCH   2   4
HETATM    4  S1  UNL     1      34.170   9.006  -3.417  1.00  0.00    -0.091 SA
BRANCH   4   5
HETATM    5  C3  UNL     1      33.809   7.534  -4.429  1.00  0.00     0.102 C 
BRANCH   5   6
HETATM    6  C4  UNL     1      33.130   7.904  -5.749  1.00  0.00     0.133 C 
BRANCH   6   7
HETATM    7  N1  UNL     1      32.380   6.803  -6.320  1.00  0.00    -0.360 N 
HETATM    8  C5  UNL     1      32.358   6.567  -7.675  1.00  0.00     0.219 C 
HETATM    9  O2  UNL     1      32.900   7.312  -8.483  1.00  0.00    -0.274 OA
HETATM   10  H8  UNL     1      31.866   6.192  -5.700  1.00  0.00     0.162 HD
BRANCH   8  11
HETATM   11  C6  UNL     1      31.562   5.338  -8.056  1.00  0.00     0.122 C 
BRANCH  11  12
HETATM   12  C7  UNL     1      30.881   5.498  -9.415  1.00  0.00     0.132 C 
BRANCH  12  13
HETATM   13  N2  UNL     1      30.218   6.775  -9.570  1.00  0.00    -0.358 N 
HETATM   14  C8  UNL     1      28.860   6.889  -9.335  1.00  0.00     0.247 C 
HETATM   15  O3  UNL     1      28.155   5.914  -9.107  1.00  0.00    -0.271 OA
HETATM   16  H13 UNL     1      30.794   7.593  -9.381  1.00  0.00     0.162 HD
BRANCH  14  17
HETATM   17  C9  UNL     1      28.320   8.326  -9.362  1.00  0.00     0.219 C 
BRANCH  17  18
HETATM   18  C10 UNL     1      28.377   9.061  -7.997  1.00  0.00     0.009 C 
HETATM   19  C11 UNL     1      27.498   8.379  -6.937  1.00  0.00     0.020 C 
HETATM   20  C12 UNL     1      29.817   9.126  -7.450  1.00  0.00     0.020 C 
BRANCH  18  21
HETATM   21  C13 UNL     1      27.851  10.500  -8.264  1.00  0.00     0.192 C 
BRANCH  21  22
HETATM   22  O4  UNL     1      27.353  11.118  -7.094  1.00  0.00    -0.296 OA
BRANCH  22  23
HETATM   23  P1  UNL     1      27.981  12.462  -6.485  1.00  0.00     0.401 P 
HETATM   24  O5  UNL     1      29.435  12.360  -6.148  1.00  0.00    -0.631 OA
BRANCH  23  25
HETATM   25  O6  UNL     1      27.053  12.886  -5.240  1.00  0.00    -0.307 OA
HETATM   26  H23 UNL     1      27.556  12.942  -4.417  1.00  0.00     0.222 HD
ENDBRANCH  23  25
BRANCH  23  27
HETATM   27  O7  UNL     1      27.621  13.597  -7.540  1.00  0.00    -0.195 OA
BRANCH  27  28
HETATM   28  P2  UNL     1      27.479  15.101  -7.033  1.00  0.00     0.401 P 
HETATM   29  O8  UNL     1      26.210  15.463  -6.334  1.00  0.00    -0.631 OA
BRANCH  28  30
HETATM   30  O9  UNL     1      28.793  15.316  -6.151  1.00  0.00    -0.307 OA
HETATM   31  H24 UNL     1      28.763  16.117  -5.572  1.00  0.00     0.222 HD
ENDBRANCH  28  30
BRANCH  28  32
HETATM   32  O10 UNL     1      27.842  15.977  -8.318  1.00  0.00    -0.294 OA
BRANCH  32  33
HETATM   33  C14 UNL     1      29.023  16.735  -8.341  1.00  0.00     0.215 C 
BRANCH  33  34
HETATM   34  C15 UNL     1      29.687  16.450  -9.687  1.00  0.00     0.180 C 
HETATM   35  C16 UNL     1      28.645  15.957 -10.682  1.00  0.00     0.197 C 
HETATM   36  C17 UNL     1      29.090  14.552 -11.042  1.00  0.00     0.199 C 
HETATM   37  C18 UNL     1      30.595  14.611 -10.770  1.00  0.00     0.262 C 
HETATM   38  O11 UNL     1      30.714  15.455  -9.603  1.00  0.00    -0.353 OA
BRANCH  35  39
HETATM   39  O13 UNL     1      28.662  16.830 -11.807  1.00  0.00    -0.286 OA
BRANCH  39  40
HETATM   40  P3  UNL     1      27.291  17.598 -12.104  1.00  0.00     0.391 P 
HETATM   41  O14 UNL     1      27.415  19.087 -12.067  1.00  0.00    -0.632 OA
BRANCH  40  42
HETATM   42  O15 UNL     1      26.323  16.908 -11.034  1.00  0.00    -0.307 OA
HETATM   43  H36 UNL     1      25.699  16.287 -11.478  1.00  0.00     0.222 HD
ENDBRANCH  40  42
BRANCH  40  44
HETATM   44  O16 UNL     1      26.847  16.930 -13.477  1.00  0.00    -0.307 OA
HETATM   45  H37 UNL     1      27.425  17.172 -14.218  1.00  0.00     0.222 HD
ENDBRANCH  40  44
ENDBRANCH  39  40
ENDBRANCH  35  39
BRANCH  36  46
HETATM   46  O12 UNL     1      28.675  14.225 -12.371  1.00  0.00    -0.388 OA
HETATM   47  H35 UNL     1      28.306  15.055 -12.758  1.00  0.00     0.210 HD
ENDBRANCH  36  46
BRANCH  37  48
HETATM   48  N3  UNL     1      31.156  13.311 -10.465  1.00  0.00    -0.297 N 
HETATM   49  C19 UNL     1      30.475  12.125 -10.315  1.00  0.00     0.188 A 
HETATM   50  N4  UNL     1      31.284  11.100 -10.166  1.00  0.00    -0.346 N 
HETATM   51  C20 UNL     1      32.554  11.646 -10.228  1.00  0.00     0.116 A 
HETATM   52  H4  UNL     1      31.033  10.120 -10.035  1.00  0.00     0.167 HD
HETATM   53  C21 UNL     1      33.839  11.079 -10.179  1.00  0.00     0.109 A 
HETATM   54  C23 UNL     1      32.489  13.020 -10.373  1.00  0.00     0.142 A 
HETATM   55  N5  UNL     1      34.915  11.900 -10.257  1.00  0.00    -0.341 N 
HETATM   56  C22 UNL     1      34.699  13.225 -10.373  1.00  0.00     0.183 A 
HETATM   57  H5  UNL     1      35.863  11.524 -10.228  1.00  0.00     0.167 HD
HETATM   58  N6  UNL     1      33.521  13.879 -10.439  1.00  0.00    -0.336 N 
HETATM   59  H6  UNL     1      33.426  14.891 -10.527  1.00  0.00     0.168 HD
BRANCH  53  60
HETATM   60  N7  UNL     1      34.067   9.718 -10.045  1.00  0.00    -0.287 NA
HETATM   61  H33 UNL     1      33.501   9.136 -10.659  1.00  0.00     0.125 HD
HETATM   62  H34 UNL     1      34.142   9.424  -9.080  1.00  0.00     0.125 HD
ENDBRANCH  53  60
ENDBRANCH  37  48
ENDBRANCH  33  34
ENDBRANCH  32  33
ENDBRANCH  28  32
ENDBRANCH  27  28
ENDBRANCH  23  27
ENDBRANCH  22  23
ENDBRANCH  21  22
ENDBRANCH  18  21
ENDBRANCH  17  18
BRANCH  17  63
HETATM   63  O17 UNL     1      29.037   9.104 -10.327  1.00  0.00    -0.385 OA
HETATM   64  H38 UNL     1      29.240   9.967  -9.928  1.00  0.00     0.210 HD
ENDBRANCH  17  63
ENDBRANCH  14  17
ENDBRANCH  12  13
ENDBRANCH  11  12
ENDBRANCH   8  11
ENDBRANCH   6   7
ENDBRANCH   5   6
ENDBRANCH   4   5
ENDBRANCH   2   4
TORSDOF 27
ENDMDL
MODEL 6
REMARK VINA RESULT:      -2.7      3.690      6.978
REMARK  27 active torsions:
REMARK  status: ('A' for Active; 'I' for Inactive)
REMARK    1  A    between atoms: C2_2  and  S1_4 
REMARK    2  A    between atoms: S1_4  and  C3_5 
REMARK    3  A    between atoms: C3_5  and  C4_6 
REMARK    4  A    between atoms: C4_6  and  N1_7 
REMARK       I    between atoms: N1_7  and  C5_8 
REMARK    5  A    between atoms: C5_8  and  C6_10 
REMARK    6  A    between atoms: C6_10  and  C7_11 
REMARK    7  A    between atoms: C7_11  and  N2_12 
REMARK       I    between atoms: N2_12  and  C8_13 
REMARK    8  A    between atoms: C8_13  and  C9_15 
REMARK    9  A    between atoms: C9_15  and  C10_16 
REMARK   10  A    between atoms: C9_15  and  O17_54 
REMARK   11  A    between atoms: C10_16  and  C13_19 
REMARK   12  A    between atoms: C13_19  and  O4_20 
REMARK   13  A    between atoms: O4_20  and  P1_21 
REMARK   14  A    between atoms: P1_21  and  O6_23 
REMARK   15  A    between atoms: P1_21  and  O7_24 
REMARK   16  A    between atoms: O7_24  and  P2_25 
REMARK   17  A    between atoms: P2_25  and  O9_27 
REMARK   18  A    between atoms: P2_25  and  O10_28 
REMARK   19  A    between atoms: O10_28  and  C14_29 
REMARK   20  A    between atoms: C14_29  and  C15_30 
REMARK   21  A    between atoms: C16_31  and  O13_49 
REMARK   22  A    between atoms: C17_32  and  O12_48 
REMARK   23  A    between atoms: C18_33  and  N3_35 
REMARK   24  A    between atoms: C21_40  and  N7_47 
REMARK   25  A    between atoms: O13_49  and  P3_50 
REMARK   26  A    between atoms: P3_50  and  O15_52 
REMARK   27  A    between atoms: P3_50  and  O16_53 
ROOT
HETATM    1  C1  UNL     1      33.120  10.641   2.258  1.00  0.00     0.104 C 
HETATM    2  C2  UNL     1      33.842   9.799   1.251  1.00  0.00     0.182 C 
HETATM    3  O1  UNL     1      34.087   8.607   1.420  1.00  0.00    -0.286 OA
ENDROOT
BRANCH   2   4
HETATM    4  S1  UNL     1      34.353  10.669  -0.189  1.00  0.00    -0.091 SA
BRANCH   4   5
HETATM    5  C3  UNL     1      33.524   9.680  -1.475  1.00  0.00     0.102 C 
BRANCH   5   6
HETATM    6  C4  UNL     1      32.001   9.767  -1.369  1.00  0.00     0.133 C 
BRANCH   6   7
HETATM    7  N1  UNL     1      31.336   8.585  -1.877  1.00  0.00    -0.360 N 
HETATM    8  C5  UNL     1      30.140   8.661  -2.552  1.00  0.00     0.219 C 
HETATM    9  O2  UNL     1      29.527   9.713  -2.694  1.00  0.00    -0.274 OA
HETATM   10  H8  UNL     1      31.771   7.683  -1.735  1.00  0.00     0.162 HD
BRANCH   8  11
HETATM   11  C6  UNL     1      29.644   7.319  -3.046  1.00  0.00     0.122 C 
BRANCH  11  12
HETATM   12  C7  UNL     1      30.656   6.641  -3.969  1.00  0.00     0.132 C 
BRANCH  12  13
HETATM   13  N2  UNL     1      30.534   7.059  -5.350  1.00  0.00    -0.358 N 
HETATM   14  C8  UNL     1      31.638   7.530  -6.036  1.00  0.00     0.247 C 
HETATM   15  O3  UNL     1      32.714   7.724  -5.484  1.00  0.00    -0.271 OA
HETATM   16  H13 UNL     1      29.820   6.576  -5.892  1.00  0.00     0.162 HD
BRANCH  14  17
HETATM   17  C9  UNL     1      31.411   7.770  -7.536  1.00  0.00     0.219 C 
BRANCH  17  18
HETATM   18  C10 UNL     1      31.990   6.664  -8.458  1.00  0.00     0.009 C 
HETATM   19  C11 UNL     1      33.276   7.116  -9.165  1.00  0.00     0.020 C 
HETATM   20  C12 UNL     1      32.308   5.379  -7.668  1.00  0.00     0.020 C 
BRANCH  18  21
HETATM   21  C13 UNL     1      30.887   6.371  -9.515  1.00  0.00     0.192 C 
BRANCH  21  22
HETATM   22  O4  UNL     1      30.171   5.186  -9.232  1.00  0.00    -0.296 OA
BRANCH  22  23
HETATM   23  P1  UNL     1      28.604   5.023  -9.530  1.00  0.00     0.401 P 
HETATM   24  O5  UNL     1      28.127   3.605  -9.538  1.00  0.00    -0.631 OA
BRANCH  23  25
HETATM   25  O6  UNL     1      28.306   5.816 -10.899  1.00  0.00    -0.307 OA
HETATM   26  H23 UNL     1      29.020   6.426 -11.126  1.00  0.00     0.222 HD
ENDBRANCH  23  25
BRANCH  23  27
HETATM   27  O7  UNL     1      27.884   5.962  -8.467  1.00  0.00    -0.195 OA
BRANCH  27  28
HETATM   28  P2  UNL     1      27.640   5.409  -6.992  1.00  0.00     0.401 P 
HETATM   29  O8  UNL     1      26.432   4.557  -6.780  1.00  0.00    -0.631 OA
BRANCH  28  30
HETATM   30  O9  UNL     1      29.019   4.684  -6.640  1.00  0.00    -0.307 OA
HETATM   31  H24 UNL     1      29.245   3.934  -7.242  1.00  0.00     0.222 HD
ENDBRANCH  28  30
BRANCH  28  32
HETATM   32  O10 UNL     1      27.748   6.709  -6.070  1.00  0.00    -0.294 OA
BRANCH  32  33
HETATM   33  C14 UNL     1      26.898   7.803  -6.296  1.00  0.00     0.215 C 
BRANCH  33  34
HETATM   34  C15 UNL     1      27.449   8.952  -5.454  1.00  0.00     0.180 C 
HETATM   35  C16 UNL     1      26.359   9.991  -5.224  1.00  0.00     0.197 C 
HETATM   36  C17 UNL     1      26.883  11.251  -5.885  1.00  0.00     0.199 C 
HETATM   37  C18 UNL     1      28.397  11.032  -5.843  1.00  0.00     0.262 C 
HETATM   38  O11 UNL     1      28.559   9.615  -6.070  1.00  0.00    -0.353 OA
BRANCH  35  39
HETATM   39  O13 UNL     1      26.192  10.151  -3.819  1.00  0.00    -0.286 OA
BRANCH  39  40
HETATM   40  P3  UNL     1      24.829   9.571  -3.216  1.00  0.00     0.391 P 
HETATM   41  O14 UNL     1      25.029   8.469  -2.226  1.00  0.00    -0.632 OA
BRANCH  40  42
HETATM   42  O15 UNL     1      24.031   9.225  -4.559  1.00  0.00    -0.307 OA
HETATM   43  H36 UNL     1      23.880  10.040  -5.094  1.00  0.00     0.222 HD
ENDBRANCH  40  42
BRANCH  40  44
HETATM   44  O16 UNL     1      24.120  10.900  -2.706  1.00  0.00    -0.307 OA
HETATM   45  H37 UNL     1      24.049  11.578  -3.397  1.00  0.00     0.222 HD
ENDBRANCH  40  44
ENDBRANCH  39  40
ENDBRANCH  35  39
BRANCH  36  46
HETATM   46  O12 UNL     1      26.368  12.409  -5.222  1.00  0.00    -0.388 OA
HETATM   47  H35 UNL     1      26.663  12.346  -4.283  1.00  0.00     0.210 HD
ENDBRANCH  36  46
BRANCH  37  48
HETATM   48  N3  UNL     1      29.093  11.755  -6.888  1.00  0.00    -0.297 N 
HETATM   49  C19 UNL     1      29.838  12.903  -6.751  1.00  0.00     0.188 A 
HETATM   50  N4  UNL     1      30.446  13.239  -7.868  1.00  0.00    -0.346 N 
HETATM   51  C20 UNL     1      30.081  12.258  -8.773  1.00  0.00     0.116 A 
HETATM   52  H4  UNL     1      31.052  14.044  -8.031  1.00  0.00     0.167 HD
HETATM   53  C21 UNL     1      30.427  12.024 -10.115  1.00  0.00     0.109 A 
HETATM   54  C23 UNL     1      29.212  11.354  -8.190  1.00  0.00     0.142 A 
HETATM   55  N5  UNL     1      29.882  10.956 -10.748  1.00  0.00    -0.341 N 
HETATM   56  C22 UNL     1      29.029  10.173 -10.060  1.00  0.00     0.183 A 
HETATM   57  H5  UNL     1      30.112  10.752 -11.721  1.00  0.00     0.167 HD
HETATM   58  N6  UNL     1      28.632  10.292  -8.776  1.00  0.00    -0.336 N 
HETATM   59  H6  UNL     1      27.979   9.661  -8.312  1.00  0.00     0.168 HD
BRANCH  53  60
HETATM   60  N7  UNL     1      31.292  12.835 -10.832  1.00  0.00    -0.287 NA
HETATM   61  H33 UNL     1      32.157  13.059 -10.345  1.00  0.00     0.125 HD
HETATM   62  H34 UNL     1      30.821  13.599 -11.298  1.00  0.00     0.125 HD
ENDBRANCH  53  60
ENDBRANCH  37  48
ENDBRANCH  33  34
ENDBRANCH  32  33
ENDBRANCH  28  32
ENDBRANCH  27  28
ENDBRANCH  23  27
ENDBRANCH  22  23
ENDBRANCH  21  22
ENDBRANCH  18  21
ENDBRANCH  17  18
BRANCH  17  63
HETATM   63  O17 UNL     1      30.011   7.901  -7.807  1.00  0.00    -0.385 OA
HETATM   64  H38 UNL     1      29.812   7.399  -8.615  1.00  0.00     0.210 HD
ENDBRANCH  17  63
ENDBRANCH  14  17
ENDBRANCH  12  13
ENDBRANCH  11  12
ENDBRANCH   8  11
ENDBRANCH   6   7
ENDBRANCH   5   6
ENDBRANCH   4   5
ENDBRANCH   2   4
TORSDOF 27
ENDMDL
MODEL 7
REMARK VINA RESULT:      -2.7     15.439     18.178
REMARK  27 active torsions:
REMARK  status: ('A' for Active; 'I' for Inactive)
REMARK    1  A    between atoms: C2_2  and  S1_4 
REMARK    2  A    between atoms: S1_4  and  C3_5 
REMARK    3  A    between atoms: C3_5  and  C4_6 
REMARK    4  A    between atoms: C4_6  and  N1_7 
REMARK       I    between atoms: N1_7  and  C5_8 
REMARK    5  A    between atoms: C5_8  and  C6_10 
REMARK    6  A    between atoms: C6_10  and  C7_11 
REMARK    7  A    between atoms: C7_11  and  N2_12 
REMARK       I    between atoms: N2_12  and  C8_13 
REMARK    8  A    between atoms: C8_13  and  C9_15 
REMARK    9  A    between atoms: C9_15  and  C10_16 
REMARK   10  A    between atoms: C9_15  and  O17_54 
REMARK   11  A    between atoms: C10_16  and  C13_19 
REMARK   12  A    between atoms: C13_19  and  O4_20 
REMARK   13  A    between atoms: O4_20  and  P1_21 
REMARK   14  A    between atoms: P1_21  and  O6_23 
REMARK   15  A    between atoms: P1_21  and  O7_24 
REMARK   16  A    between atoms: O7_24  and  P2_25 
REMARK   17  A    between atoms: P2_25  and  O9_27 
REMARK   18  A    between atoms: P2_25  and  O10_28 
REMARK   19  A    between atoms: O10_28  and  C14_29 
REMARK   20  A    between atoms: C14_29  and  C15_30 
REMARK   21  A    between atoms: C16_31  and  O13_49 
REMARK   22  A    between atoms: C17_32  and  O12_48 
REMARK   23  A    between atoms: C18_33  and  N3_35 
REMARK   24  A    between atoms: C21_40  and  N7_47 
REMARK   25  A    between atoms: O13_49  and  P3_50 
REMARK   26  A    between atoms: P3_50  and  O15_52 
REMARK   27  A    between atoms: P3_50  and  O16_53 
ROOT
HETATM    1  C1  UNL     1      14.235  23.010  -8.051  1.00  0.00     0.104 C 
HETATM    2  C2  UNL     1      14.203  21.663  -8.705  1.00  0.00     0.182 C 
HETATM    3  O1  UNL     1      15.184  21.147  -9.235  1.00  0.00    -0.286 OA
ENDROOT
BRANCH   2   4
HETATM    4  S1  UNL     1      12.625  20.887  -8.690  1.00  0.00    -0.091 SA
BRANCH   4   5
HETATM    5  C3  UNL     1      12.789  19.791 -10.136  1.00  0.00     0.102 C 
BRANCH   5   6
HETATM    6  C4  UNL     1      13.074  18.345  -9.726  1.00  0.00     0.133 C 
BRANCH   6   7
HETATM    7  N1  UNL     1      14.478  18.105  -9.460  1.00  0.00    -0.360 N 
HETATM    8  C5  UNL     1      14.940  17.847  -8.190  1.00  0.00     0.219 C 
HETATM    9  O2  UNL     1      14.214  17.883  -7.204  1.00  0.00    -0.274 OA
HETATM   10  H8  UNL     1      15.130  18.122 -10.233  1.00  0.00     0.162 HD
BRANCH   8  11
HETATM   11  C6  UNL     1      16.427  17.570  -8.139  1.00  0.00     0.122 C 
BRANCH  11  12
HETATM   12  C7  UNL     1      16.731  16.074  -8.197  1.00  0.00     0.132 C 
BRANCH  12  13
HETATM   13  N2  UNL     1      15.612  15.250  -7.793  1.00  0.00    -0.358 N 
HETATM   14  C8  UNL     1      15.750  13.877  -7.713  1.00  0.00     0.247 C 
HETATM   15  O3  UNL     1      16.763  13.301  -8.087  1.00  0.00    -0.271 OA
HETATM   16  H13 UNL     1      14.953  15.690  -7.153  1.00  0.00     0.162 HD
BRANCH  14  17
HETATM   17  C9  UNL     1      14.546  13.143  -7.103  1.00  0.00     0.219 C 
BRANCH  17  18
HETATM   18  C10 UNL     1      13.768  12.244  -8.100  1.00  0.00     0.009 C 
HETATM   19  C11 UNL     1      13.468  12.970  -9.420  1.00  0.00     0.020 C 
HETATM   20  C12 UNL     1      14.553  10.959  -8.433  1.00  0.00     0.020 C 
BRANCH  18  21
HETATM   21  C13 UNL     1      12.434  11.875  -7.391  1.00  0.00     0.192 C 
BRANCH  21  22
HETATM   22  O4  UNL     1      12.567  10.752  -6.544  1.00  0.00    -0.296 OA
BRANCH  22  23
HETATM   23  P1  UNL     1      11.764  10.601  -5.164  1.00  0.00     0.401 P 
HETATM   24  O5  UNL     1      12.633  10.328  -3.977  1.00  0.00    -0.631 OA
BRANCH  23  25
HETATM   25  O6  UNL     1      10.627   9.488  -5.407  1.00  0.00    -0.307 OA
HETATM   26  H23 UNL     1      10.950   8.596  -5.225  1.00  0.00     0.222 HD
ENDBRANCH  23  25
BRANCH  23  27
HETATM   27  O7  UNL     1      10.884  11.922  -5.055  1.00  0.00    -0.195 OA
BRANCH  27  28
HETATM   28  P2  UNL     1       9.975  12.138  -3.764  1.00  0.00     0.401 P 
HETATM   29  O8  UNL     1       8.496  12.157  -3.974  1.00  0.00    -0.631 OA
BRANCH  28  30
HETATM   30  O9  UNL     1      10.477  10.996  -2.768  1.00  0.00    -0.307 OA
HETATM   31  H24 UNL     1      10.436  10.083  -3.146  1.00  0.00     0.222 HD
ENDBRANCH  28  30
BRANCH  28  32
HETATM   32  O10 UNL     1      10.598  13.432  -3.065  1.00  0.00    -0.294 OA
BRANCH  32  33
HETATM   33  C14 UNL     1      10.700  13.494  -1.667  1.00  0.00     0.215 C 
BRANCH  33  34
HETATM   34  C15 UNL     1      12.139  13.905  -1.362  1.00  0.00     0.180 C 
HETATM   35  C16 UNL     1      12.960  13.900  -2.645  1.00  0.00     0.197 C 
HETATM   36  C17 UNL     1      14.030  12.851  -2.412  1.00  0.00     0.199 C 
HETATM   37  C18 UNL     1      14.140  12.835  -0.885  1.00  0.00     0.262 C 
HETATM   38  O11 UNL     1      12.784  13.031  -0.428  1.00  0.00    -0.353 OA
BRANCH  35  39
HETATM   39  O13 UNL     1      13.512  15.200  -2.821  1.00  0.00    -0.286 OA
BRANCH  39  40
HETATM   40  P3  UNL     1      13.202  15.896  -4.227  1.00  0.00     0.391 P 
HETATM   41  O14 UNL     1      12.574  17.246  -4.105  1.00  0.00    -0.632 OA
BRANCH  40  42
HETATM   42  O15 UNL     1      12.355  14.747  -4.949  1.00  0.00    -0.307 OA
HETATM   43  H36 UNL     1      12.758  13.861  -4.785  1.00  0.00     0.222 HD
ENDBRANCH  40  42
BRANCH  40  44
HETATM   44  O16 UNL     1      14.619  15.804  -4.942  1.00  0.00    -0.307 OA
HETATM   45  H37 UNL     1      14.569  15.414  -5.829  1.00  0.00     0.222 HD
ENDBRANCH  40  44
ENDBRANCH  39  40
ENDBRANCH  35  39
BRANCH  36  46
HETATM   46  O12 UNL     1      15.211  13.174  -3.152  1.00  0.00    -0.388 OA
HETATM   47  H35 UNL     1      15.116  12.736  -4.031  1.00  0.00     0.210 HD
ENDBRANCH  36  46
BRANCH  37  48
HETATM   48  N3  UNL     1      14.626  11.568  -0.376  1.00  0.00    -0.297 N 
HETATM   49  C19 UNL     1      15.866  11.307   0.158  1.00  0.00     0.188 A 
HETATM   50  N4  UNL     1      15.952  10.089   0.647  1.00  0.00    -0.346 N 
HETATM   51  C20 UNL     1      14.704   9.535   0.424  1.00  0.00     0.116 A 
HETATM   52  H4  UNL     1      16.759   9.651   1.092  1.00  0.00     0.167 HD
HETATM   53  C21 UNL     1      14.145   8.287   0.748  1.00  0.00     0.109 A 
HETATM   54  C23 UNL     1      13.885  10.427  -0.244  1.00  0.00     0.142 A 
HETATM   55  N5  UNL     1      12.866   8.032   0.376  1.00  0.00    -0.341 N 
HETATM   56  C22 UNL     1      12.194   8.990  -0.293  1.00  0.00     0.183 A 
HETATM   57  H5  UNL     1      12.425   7.139   0.596  1.00  0.00     0.167 HD
HETATM   58  N6  UNL     1      12.620  10.219  -0.649  1.00  0.00    -0.336 N 
HETATM   59  H6  UNL     1      12.057  10.901  -1.158  1.00  0.00     0.168 HD
BRANCH  53  60
HETATM   60  N7  UNL     1      14.836   7.293   1.423  1.00  0.00    -0.287 NA
HETATM   61  H33 UNL     1      15.707   7.604   1.848  1.00  0.00     0.125 HD
HETATM   62  H34 UNL     1      14.863   6.418   0.917  1.00  0.00     0.125 HD
ENDBRANCH  53  60
ENDBRANCH  37  48
ENDBRANCH  33  34
ENDBRANCH  32  33
ENDBRANCH  28  32
ENDBRANCH  27  28
ENDBRANCH  23  27
ENDBRANCH  22  23
ENDBRANCH  21  22
ENDBRANCH  18  21
ENDBRANCH  17  18
BRANCH  17  63
HETATM   63  O17 UNL     1      14.968  12.336  -5.998  1.00  0.00    -0.385 OA
HETATM   64  H38 UNL     1      15.593  12.856  -5.466  1.00  0.00     0.210 HD
ENDBRANCH  17  63
ENDBRANCH  14  17
ENDBRANCH  12  13
ENDBRANCH  11  12
ENDBRANCH   8  11
ENDBRANCH   6   7
ENDBRANCH   5   6
ENDBRANCH   4   5
ENDBRANCH   2   4
TORSDOF 27
ENDMDL
MODEL 8
REMARK VINA RESULT:      -2.7     13.235     17.304
REMARK  27 active torsions:
REMARK  status: ('A' for Active; 'I' for Inactive)
REMARK    1  A    between atoms: C2_2  and  S1_4 
REMARK    2  A    between atoms: S1_4  and  C3_5 
REMARK    3  A    between atoms: C3_5  and  C4_6 
REMARK    4  A    between atoms: C4_6  and  N1_7 
REMARK       I    between atoms: N1_7  and  C5_8 
REMARK    5  A    between atoms: C5_8  and  C6_10 
REMARK    6  A    between atoms: C6_10  and  C7_11 
REMARK    7  A    between atoms: C7_11  and  N2_12 
REMARK       I    between atoms: N2_12  and  C8_13 
REMARK    8  A    between atoms: C8_13  and  C9_15 
REMARK    9  A    between atoms: C9_15  and  C10_16 
REMARK   10  A    between atoms: C9_15  and  O17_54 
REMARK   11  A    between atoms: C10_16  and  C13_19 
REMARK   12  A    between atoms: C13_19  and  O4_20 
REMARK   13  A    between atoms: O4_20  and  P1_21 
REMARK   14  A    between atoms: P1_21  and  O6_23 
REMARK   15  A    between atoms: P1_21  and  O7_24 
REMARK   16  A    between atoms: O7_24  and  P2_25 
REMARK   17  A    between atoms: P2_25  and  O9_27 
REMARK   18  A    between atoms: P2_25  and  O10_28 
REMARK   19  A    between atoms: O10_28  and  C14_29 
REMARK   20  A    between atoms: C14_29  and  C15_30 
REMARK   21  A    between atoms: C16_31  and  O13_49 
REMARK   22  A    between atoms: C17_32  and  O12_48 
REMARK   23  A    between atoms: C18_33  and  N3_35 
REMARK   24  A    between atoms: C21_40  and  N7_47 
REMARK   25  A    between atoms: O13_49  and  P3_50 
REMARK   26  A    between atoms: P3_50  and  O15_52 
REMARK   27  A    between atoms: P3_50  and  O16_53 
ROOT
HETATM    1  C1  UNL     1      18.812  17.206   1.038  1.00  0.00     0.104 C 
HETATM    2  C2  UNL     1      19.650  16.044   0.600  1.00  0.00     0.182 C 
HETATM    3  O1  UNL     1      20.822  15.892   0.937  1.00  0.00    -0.286 OA
ENDROOT
BRANCH   2   4
HETATM    4  S1  UNL     1      18.829  14.923  -0.477  1.00  0.00    -0.091 SA
BRANCH   4   5
HETATM    5  C3  UNL     1      20.170  13.729  -0.786  1.00  0.00     0.102 C 
BRANCH   5   6
HETATM    6  C4  UNL     1      19.633  12.317  -1.028  1.00  0.00     0.133 C 
BRANCH   6   7
HETATM    7  N1  UNL     1      18.205  12.217  -0.809  1.00  0.00    -0.360 N 
HETATM    8  C5  UNL     1      17.474  11.149  -1.274  1.00  0.00     0.219 C 
HETATM    9  O2  UNL     1      17.966  10.264  -1.965  1.00  0.00    -0.274 OA
HETATM   10  H8  UNL     1      17.739  12.952  -0.293  1.00  0.00     0.162 HD
BRANCH   8  11
HETATM   11  C6  UNL     1      16.011  11.211  -0.890  1.00  0.00     0.122 C 
BRANCH  11  12
HETATM   12  C7  UNL     1      15.359  12.519  -1.335  1.00  0.00     0.132 C 
BRANCH  12  13
HETATM   13  N2  UNL     1      14.152  12.830  -0.600  1.00  0.00    -0.358 N 
HETATM   14  C8  UNL     1      14.180  13.758   0.426  1.00  0.00     0.247 C 
HETATM   15  O3  UNL     1      15.224  14.255   0.826  1.00  0.00    -0.271 OA
HETATM   16  H13 UNL     1      13.284  12.743  -1.125  1.00  0.00     0.162 HD
BRANCH  14  17
HETATM   17  C9  UNL     1      12.803  14.123   1.001  1.00  0.00     0.219 C 
BRANCH  17  18
HETATM   18  C10 UNL     1      12.219  13.076   1.985  1.00  0.00     0.009 C 
HETATM   19  C11 UNL     1      13.318  12.268   2.690  1.00  0.00     0.020 C 
HETATM   20  C12 UNL     1      11.349  13.742   3.070  1.00  0.00     0.020 C 
BRANCH  18  21
HETATM   21  C13 UNL     1      11.342  12.123   1.122  1.00  0.00     0.192 C 
BRANCH  21  22
HETATM   22  O4  UNL     1      10.951  12.712  -0.102  1.00  0.00    -0.296 OA
BRANCH  22  23
HETATM   23  P1  UNL     1      10.641  11.854  -1.421  1.00  0.00     0.401 P 
HETATM   24  O5  UNL     1       9.318  12.158  -2.051  1.00  0.00    -0.631 OA
BRANCH  23  25
HETATM   25  O6  UNL     1      10.832  10.306  -1.025  1.00  0.00    -0.307 OA
HETATM   26  H23 UNL     1      11.454  10.193  -0.294  1.00  0.00     0.222 HD
ENDBRANCH  23  25
BRANCH  23  27
HETATM   27  O7  UNL     1      11.898  12.088  -2.368  1.00  0.00    -0.195 OA
BRANCH  27  28
HETATM   28  P2  UNL     1      12.346  10.921  -3.355  1.00  0.00     0.401 P 
HETATM   29  O8  UNL     1      13.073   9.765  -2.750  1.00  0.00    -0.631 OA
BRANCH  28  30
HETATM   30  O9  UNL     1      10.987  10.522  -4.092  1.00  0.00    -0.307 OA
HETATM   31  H24 UNL     1      11.094   9.831  -4.790  1.00  0.00     0.222 HD
ENDBRANCH  28  30
BRANCH  28  32
HETATM   32  O10 UNL     1      13.107  11.683  -4.534  1.00  0.00    -0.294 OA
BRANCH  32  33
HETATM   33  C14 UNL     1      12.947  13.068  -4.693  1.00  0.00     0.215 C 
BRANCH  33  34
HETATM   34  C15 UNL     1      13.247  13.367  -6.161  1.00  0.00     0.180 C 
HETATM   35  C16 UNL     1      13.516  12.067  -6.907  1.00  0.00     0.197 C 
HETATM   36  C17 UNL     1      14.948  12.192  -7.393  1.00  0.00     0.199 C 
HETATM   37  C18 UNL     1      15.133  13.709  -7.467  1.00  0.00     0.262 C 
HETATM   38  O11 UNL     1      14.389  14.215  -6.336  1.00  0.00    -0.353 OA
BRANCH  35  39
HETATM   39  O13 UNL     1      12.589  11.977  -7.984  1.00  0.00    -0.286 OA
BRANCH  39  40
HETATM   40  P3  UNL     1      11.677  10.665  -8.000  1.00  0.00     0.391 P 
HETATM   41  O14 UNL     1      10.699  10.597  -6.871  1.00  0.00    -0.632 OA
BRANCH  40  42
HETATM   42  O15 UNL     1      12.794   9.523  -8.081  1.00  0.00    -0.307 OA
HETATM   43  H36 UNL     1      12.666   8.858  -7.364  1.00  0.00     0.222 HD
ENDBRANCH  40  42
BRANCH  40  44
HETATM   44  O16 UNL     1      11.093  10.705  -9.478  1.00  0.00    -0.307 OA
HETATM   45  H37 UNL     1      10.584  11.510  -9.661  1.00  0.00     0.222 HD
ENDBRANCH  40  44
ENDBRANCH  39  40
ENDBRANCH  35  39
BRANCH  36  46
HETATM   46  O12 UNL     1      15.128  11.448  -8.602  1.00  0.00    -0.388 OA
HETATM   47  H35 UNL     1      15.173  12.111  -9.331  1.00  0.00     0.210 HD
ENDBRANCH  36  46
BRANCH  37  48
HETATM   48  N3  UNL     1      16.519  14.108  -7.329  1.00  0.00    -0.297 N 
HETATM   49  C19 UNL     1      17.305  14.723  -8.275  1.00  0.00     0.188 A 
HETATM   50  N4  UNL     1      18.481  15.069  -7.798  1.00  0.00    -0.346 N 
HETATM   51  C20 UNL     1      18.454  14.664  -6.475  1.00  0.00     0.116 A 
HETATM   52  H4  UNL     1      19.243  15.533  -8.292  1.00  0.00     0.167 HD
HETATM   53  C21 UNL     1      19.379  14.781  -5.424  1.00  0.00     0.109 A 
HETATM   54  C23 UNL     1      17.259  14.031  -6.182  1.00  0.00     0.142 A 
HETATM   55  N5  UNL     1      19.056  14.260  -4.214  1.00  0.00    -0.341 N 
HETATM   56  C22 UNL     1      17.862  13.649  -4.081  1.00  0.00     0.183 A 
HETATM   57  H5  UNL     1      19.701  14.329  -3.427  1.00  0.00     0.167 HD
HETATM   58  N6  UNL     1      16.897  13.485  -5.008  1.00  0.00    -0.336 N 
HETATM   59  H6  UNL     1      16.010  13.009  -4.841  1.00  0.00     0.168 HD
BRANCH  53  60
HETATM   60  N7  UNL     1      20.614  15.395  -5.560  1.00  0.00    -0.287 NA
HETATM   61  H33 UNL     1      21.051  15.657  -4.679  1.00  0.00     0.125 HD
HETATM   62  H34 UNL     1      20.633  16.084  -6.300  1.00  0.00     0.125 HD
ENDBRANCH  53  60
ENDBRANCH  37  48
ENDBRANCH  33  34
ENDBRANCH  32  33
ENDBRANCH  28  32
ENDBRANCH  27  28
ENDBRANCH  23  27
ENDBRANCH  22  23
ENDBRANCH  21  22
ENDBRANCH  18  21
ENDBRANCH  17  18
BRANCH  17  63
HETATM   63  O17 UNL     1      12.869  15.388   1.670  1.00  0.00    -0.385 OA
HETATM   64  H38 UNL     1      13.343  15.261   2.509  1.00  0.00     0.210 HD
ENDBRANCH  17  63
ENDBRANCH  14  17
ENDBRANCH  12  13
ENDBRANCH  11  12
ENDBRANCH   8  11
ENDBRANCH   6   7
ENDBRANCH   5   6
ENDBRANCH   4   5
ENDBRANCH   2   4
TORSDOF 27
ENDMDL
MODEL 9
REMARK VINA RESULT:      -2.7      6.465      8.756
REMARK  27 active torsions:
REMARK  status: ('A' for Active; 'I' for Inactive)
REMARK    1  A    between atoms: C2_2  and  S1_4 
REMARK    2  A    between atoms: S1_4  and  C3_5 
REMARK    3  A    between atoms: C3_5  and  C4_6 
REMARK    4  A    between atoms: C4_6  and  N1_7 
REMARK       I    between atoms: N1_7  and  C5_8 
REMARK    5  A    between atoms: C5_8  and  C6_10 
REMARK    6  A    between atoms: C6_10  and  C7_11 
REMARK    7  A    between atoms: C7_11  and  N2_12 
REMARK       I    between atoms: N2_12  and  C8_13 
REMARK    8  A    between atoms: C8_13  and  C9_15 
REMARK    9  A    between atoms: C9_15  and  C10_16 
REMARK   10  A    between atoms: C9_15  and  O17_54 
REMARK   11  A    between atoms: C10_16  and  C13_19 
REMARK   12  A    between atoms: C13_19  and  O4_20 
REMARK   13  A    between atoms: O4_20  and  P1_21 
REMARK   14  A    between atoms: P1_21  and  O6_23 
REMARK   15  A    between atoms: P1_21  and  O7_24 
REMARK   16  A    between atoms: O7_24  and  P2_25 
REMARK   17  A    between atoms: P2_25  and  O9_27 
REMARK   18  A    between atoms: P2_25  and  O10_28 
REMARK   19  A    between atoms: O10_28  and  C14_29 
REMARK   20  A    between atoms: C14_29  and  C15_30 
REMARK   21  A    between atoms: C16_31  and  O13_49 
REMARK   22  A    between atoms: C17_32  and  O12_48 
REMARK   23  A    between atoms: C18_33  and  N3_35 
REMARK   24  A    between atoms: C21_40  and  N7_47 
REMARK   25  A    between atoms: O13_49  and  P3_50 
REMARK   26  A    between atoms: P3_50  and  O15_52 
REMARK   27  A    between atoms: P3_50  and  O16_53 
ROOT
HETATM    1  C1  UNL     1      32.684   3.236  -6.797  1.00  0.00     0.104 C 
HETATM    2  C2  UNL     1      33.171   4.223  -7.813  1.00  0.00     0.182 C 
HETATM    3  O1  UNL     1      33.784   3.900  -8.827  1.00  0.00    -0.286 OA
ENDROOT
BRANCH   2   4
HETATM    4  S1  UNL     1      32.829   5.902  -7.415  1.00  0.00    -0.091 SA
BRANCH   4   5
HETATM    5  C3  UNL     1      32.097   6.464  -8.987  1.00  0.00     0.102 C 
BRANCH   5   6
HETATM    6  C4  UNL     1      30.777   5.751  -9.287  1.00  0.00     0.133 C 
BRANCH   6   7
HETATM    7  N1  UNL     1      29.640   6.394  -8.662  1.00  0.00    -0.360 N 
HETATM    8  C5  UNL     1      28.660   7.014  -9.404  1.00  0.00     0.219 C 
HETATM    9  O2  UNL     1      28.729   7.130 -10.622  1.00  0.00    -0.274 OA
HETATM   10  H8  UNL     1      29.565   6.378  -7.654  1.00  0.00     0.162 HD
BRANCH   8  11
HETATM   11  C6  UNL     1      27.534   7.573  -8.561  1.00  0.00     0.122 C 
BRANCH  11  12
HETATM   12  C7  UNL     1      28.049   8.213  -7.272  1.00  0.00     0.132 C 
BRANCH  12  13
HETATM   13  N2  UNL     1      27.177   7.987  -6.139  1.00  0.00    -0.358 N 
HETATM   14  C8  UNL     1      26.294   8.971  -5.733  1.00  0.00     0.247 C 
HETATM   15  O3  UNL     1      26.296  10.092  -6.225  1.00  0.00    -0.271 OA
HETATM   16  H13 UNL     1      26.899   7.020  -5.986  1.00  0.00     0.162 HD
BRANCH  14  17
HETATM   17  C9  UNL     1      25.308   8.539  -4.637  1.00  0.00     0.219 C 
BRANCH  17  18
HETATM   18  C10 UNL     1      25.861   8.654  -3.192  1.00  0.00     0.009 C 
HETATM   19  C11 UNL     1      26.470   7.333  -2.700  1.00  0.00     0.020 C 
HETATM   20  C12 UNL     1      26.946   9.745  -3.088  1.00  0.00     0.020 C 
BRANCH  18  21
HETATM   21  C13 UNL     1      24.646   9.034  -2.299  1.00  0.00     0.192 C 
BRANCH  21  22
HETATM   22  O4  UNL     1      24.011   7.900  -1.743  1.00  0.00    -0.296 OA
BRANCH  22  23
HETATM   23  P1  UNL     1      22.481   7.526  -2.041  1.00  0.00     0.401 P 
HETATM   24  O5  UNL     1      21.763   8.521  -2.897  1.00  0.00    -0.631 OA
BRANCH  23  25
HETATM   25  O6  UNL     1      21.778   7.269  -0.615  1.00  0.00    -0.307 OA
HETATM   26  H23 UNL     1      21.899   6.360  -0.312  1.00  0.00     0.222 HD
ENDBRANCH  23  25
BRANCH  23  27
HETATM   27  O7  UNL     1      22.527   6.050  -2.633  1.00  0.00    -0.195 OA
BRANCH  27  28
HETATM   28  P2  UNL     1      21.268   5.097  -2.425  1.00  0.00     0.401 P 
HETATM   29  O8  UNL     1      21.265   4.237  -1.203  1.00  0.00    -0.631 OA
BRANCH  28  30
HETATM   30  O9  UNL     1      20.029   6.100  -2.518  1.00  0.00    -0.307 OA
HETATM   31  H24 UNL     1      20.227   6.941  -2.997  1.00  0.00     0.222 HD
ENDBRANCH  28  30
BRANCH  28  32
HETATM   32  O10 UNL     1      21.130   4.329  -3.818  1.00  0.00    -0.294 OA
BRANCH  32  33
HETATM   33  C14 UNL     1      22.263   4.117  -4.619  1.00  0.00     0.215 C 
BRANCH  33  34
HETATM   34  C15 UNL     1      22.323   2.614  -4.884  1.00  0.00     0.180 C 
HETATM   35  C16 UNL     1      22.739   2.361  -6.327  1.00  0.00     0.197 C 
HETATM   36  C17 UNL     1      21.558   1.637  -6.946  1.00  0.00     0.199 C 
HETATM   37  C18 UNL     1      20.903   0.985  -5.725  1.00  0.00     0.262 C 
HETATM   38  O11 UNL     1      21.068   1.958  -4.670  1.00  0.00    -0.353 OA
BRANCH  35  39
HETATM   39  O13 UNL     1      23.914   1.557  -6.313  1.00  0.00    -0.286 OA
BRANCH  39  40
HETATM   40  P3  UNL     1      25.160   2.145  -7.124  1.00  0.00     0.391 P 
HETATM   41  O14 UNL     1      26.324   1.211  -7.199  1.00  0.00    -0.632 OA
BRANCH  40  42
HETATM   42  O15 UNL     1      25.376   3.540  -6.372  1.00  0.00    -0.307 OA
HETATM   43  H36 UNL     1      25.188   4.296  -6.977  1.00  0.00     0.222 HD
ENDBRANCH  40  42
BRANCH  40  44
HETATM   44  O16 UNL     1      24.471   2.575  -8.492  1.00  0.00    -0.307 OA
HETATM   45  H37 UNL     1      24.614   3.510  -8.707  1.00  0.00     0.222 HD
ENDBRANCH  40  44
ENDBRANCH  39  40
ENDBRANCH  35  39
BRANCH  36  46
HETATM   46  O12 UNL     1      22.001   0.772  -7.994  1.00  0.00    -0.388 OA
HETATM   47  H35 UNL     1      21.188   0.460  -8.460  1.00  0.00     0.210 HD
ENDBRANCH  36  46
BRANCH  37  48
HETATM   48  N3  UNL     1      19.488   0.740  -5.917  1.00  0.00    -0.297 N 
HETATM   49  C19 UNL     1      18.890  -0.445  -6.277  1.00  0.00     0.188 A 
HETATM   50  N4  UNL     1      17.578  -0.372  -6.244  1.00  0.00    -0.346 N 
HETATM   51  C20 UNL     1      17.311   0.923  -5.838  1.00  0.00     0.116 A 
HETATM   52  H4  UNL     1      16.906  -1.106  -6.467  1.00  0.00     0.167 HD
HETATM   53  C21 UNL     1      16.114   1.611  -5.570  1.00  0.00     0.109 A 
HETATM   54  C23 UNL     1      18.484   1.635  -5.670  1.00  0.00     0.142 A 
HETATM   55  N5  UNL     1      16.182   2.910  -5.190  1.00  0.00    -0.341 N 
HETATM   56  C22 UNL     1      17.399   3.482  -5.091  1.00  0.00     0.183 A 
HETATM   57  H5  UNL     1      15.336   3.440  -4.984  1.00  0.00     0.167 HD
HETATM   58  N6  UNL     1      18.607   2.925  -5.311  1.00  0.00    -0.336 N 
HETATM   59  H6  UNL     1      19.496   3.417  -5.218  1.00  0.00     0.168 HD
BRANCH  53  60
HETATM   60  N7  UNL     1      14.860   1.031  -5.685  1.00  0.00    -0.287 NA
HETATM   61  H33 UNL     1      14.205   1.560  -6.256  1.00  0.00     0.125 HD
HETATM   62  H34 UNL     1      14.511   0.669  -4.808  1.00  0.00     0.125 HD
ENDBRANCH  53  60
ENDBRANCH  37  48
ENDBRANCH  33  34
ENDBRANCH  32  33
ENDBRANCH  28  32
ENDBRANCH  27  28
ENDBRANCH  23  27
ENDBRANCH  22  23
ENDBRANCH  21  22
ENDBRANCH  18  21
ENDBRANCH  17  18
BRANCH  17  63
HETATM   63  O17 UNL     1      24.105   9.310  -4.725  1.00  0.00    -0.385 OA
HETATM   64  H38 UNL     1      23.705   9.349  -3.840  1.00  0.00     0.210 HD
ENDBRANCH  17  63
ENDBRANCH  14  17
ENDBRANCH  12  13
ENDBRANCH  11  12
ENDBRANCH   8  11
ENDBRANCH   6   7
ENDBRANCH   5   6
ENDBRANCH   4   5
ENDBRANCH   2   4
TORSDOF 27
ENDMDL
MODEL 10
REMARK VINA RESULT:      -2.6      3.236      6.677
REMARK  27 active torsions:
REMARK  status: ('A' for Active; 'I' for Inactive)
REMARK    1  A    between atoms: C2_2  and  S1_4 
REMARK    2  A    between atoms: S1_4  and  C3_5 
REMARK    3  A    between atoms: C3_5  and  C4_6 
REMARK    4  A    between atoms: C4_6  and  N1_7 
REMARK       I    between atoms: N1_7  and  C5_8 
REMARK    5  A    between atoms: C5_8  and  C6_10 
REMARK    6  A    between atoms: C6_10  and  C7_11 
REMARK    7  A    between atoms: C7_11  and  N2_12 
REMARK       I    between atoms: N2_12  and  C8_13 
REMARK    8  A    between atoms: C8_13  and  C9_15 
REMARK    9  A    between atoms: C9_15  and  C10_16 
REMARK   10  A    between atoms: C9_15  and  O17_54 
REMARK   11  A    between atoms: C10_16  and  C13_19 
REMARK   12  A    between atoms: C13_19  and  O4_20 
REMARK   13  A    between atoms: O4_20  and  P1_21 
REMARK   14  A    between atoms: P1_21  and  O6_23 
REMARK   15  A    between atoms: P1_21  and  O7_24 
REMARK   16  A    between atoms: O7_24  and  P2_25 
REMARK   17  A    between atoms: P2_25  and  O9_27 
REMARK   18  A    between atoms: P2_25  and  O10_28 
REMARK   19  A    between atoms: O10_28  and  C14_29 
REMARK   20  A    between atoms: C14_29  and  C15_30 
REMARK   21  A    between atoms: C16_31  and  O13_49 
REMARK   22  A    between atoms: C17_32  and  O12_48 
REMARK   23  A    between atoms: C18_33  and  N3_35 
REMARK   24  A    between atoms: C21_40  and  N7_47 
REMARK   25  A    between atoms: O13_49  and  P3_50 
REMARK   26  A    between atoms: P3_50  and  O15_52 
REMARK   27  A    between atoms: P3_50  and  O16_53 
ROOT
HETATM    1  C1  UNL     1      32.840   5.699   3.498  1.00  0.00     0.104 C 
HETATM    2  C2  UNL     1      31.708   5.688   2.516  1.00  0.00     0.182 C 
HETATM    3  O1  UNL     1      30.691   5.015   2.666  1.00  0.00    -0.286 OA
ENDROOT
BRANCH   2   4
HETATM    4  S1  UNL     1      31.969   6.693   1.097  1.00  0.00    -0.091 SA
BRANCH   4   5
HETATM    5  C3  UNL     1      31.537   5.512  -0.221  1.00  0.00     0.102 C 
BRANCH   5   6
HETATM    6  C4  UNL     1      31.121   6.223  -1.510  1.00  0.00     0.133 C 
BRANCH   6   7
HETATM    7  N1  UNL     1      30.915   5.307  -2.613  1.00  0.00    -0.360 N 
HETATM    8  C5  UNL     1      30.386   5.724  -3.812  1.00  0.00     0.219 C 
HETATM    9  O2  UNL     1      29.983   6.868  -3.993  1.00  0.00    -0.274 OA
HETATM   10  H8  UNL     1      31.177   4.337  -2.495  1.00  0.00     0.162 HD
BRANCH   8  11
HETATM   11  C6  UNL     1      30.306   4.624  -4.848  1.00  0.00     0.122 C 
BRANCH  11  12
HETATM   12  C7  UNL     1      31.178   4.923  -6.067  1.00  0.00     0.132 C 
BRANCH  12  13
HETATM   13  N2  UNL     1      30.732   6.081  -6.812  1.00  0.00    -0.358 N 
HETATM   14  C8  UNL     1      30.298   5.945  -8.118  1.00  0.00     0.247 C 
HETATM   15  O3  UNL     1      30.381   4.885  -8.725  1.00  0.00    -0.271 OA
HETATM   16  H13 UNL     1      30.313   6.825  -6.257  1.00  0.00     0.162 HD
BRANCH  14  17
HETATM   17  C9  UNL     1      29.689   7.215  -8.730  1.00  0.00     0.219 C 
BRANCH  17  18
HETATM   18  C10 UNL     1      28.138   7.233  -8.763  1.00  0.00     0.009 C 
HETATM   19  C11 UNL     1      27.585   6.910 -10.160  1.00  0.00     0.020 C 
HETATM   20  C12 UNL     1      27.540   6.217  -7.769  1.00  0.00     0.020 C 
BRANCH  18  21
HETATM   21  C13 UNL     1      27.719   8.674  -8.356  1.00  0.00     0.192 C 
BRANCH  21  22
HETATM   22  O4  UNL     1      27.369   8.768  -6.990  1.00  0.00    -0.296 OA
BRANCH  22  23
HETATM   23  P1  UNL     1      26.917  10.142  -6.299  1.00  0.00     0.401 P 
HETATM   24  O5  UNL     1      26.353   9.979  -4.923  1.00  0.00    -0.631 OA
BRANCH  23  25
HETATM   25  O6  UNL     1      25.919  10.874  -7.327  1.00  0.00    -0.307 OA
HETATM   26  H23 UNL     1      25.167  10.315  -7.562  1.00  0.00     0.222 HD
ENDBRANCH  23  25
BRANCH  23  27
HETATM   27  O7  UNL     1      28.196  11.085  -6.385  1.00  0.00    -0.195 OA
BRANCH  27  28
HETATM   28  P2  UNL     1      29.435  10.792  -5.427  1.00  0.00     0.401 P 
HETATM   29  O8  UNL     1      29.511  11.579  -4.160  1.00  0.00    -0.631 OA
BRANCH  28  30
HETATM   30  O9  UNL     1      29.364   9.212  -5.209  1.00  0.00    -0.307 OA
HETATM   31  H24 UNL     1      28.489   8.888  -4.883  1.00  0.00     0.222 HD
ENDBRANCH  28  30
BRANCH  28  32
HETATM   32  O10 UNL     1      30.703  10.898  -6.392  1.00  0.00    -0.294 OA
BRANCH  32  33
HETATM   33  C14 UNL     1      31.636  11.931  -6.214  1.00  0.00     0.215 C 
BRANCH  33  34
HETATM   34  C15 UNL     1      31.932  12.485  -7.607  1.00  0.00     0.180 C 
HETATM   35  C16 UNL     1      30.738  12.243  -8.522  1.00  0.00     0.197 C 
HETATM   36  C17 UNL     1      31.269  11.338  -9.616  1.00  0.00     0.199 C 
HETATM   37  C18 UNL     1      32.764  11.667  -9.612  1.00  0.00     0.262 C 
HETATM   38  O11 UNL     1      33.078  11.879  -8.217  1.00  0.00    -0.353 OA
BRANCH  35  39
HETATM   39  O13 UNL     1      30.309  13.503  -9.028  1.00  0.00    -0.286 OA
BRANCH  39  40
HETATM   40  P3  UNL     1      28.944  14.064  -8.413  1.00  0.00     0.391 P 
HETATM   41  O14 UNL     1      29.091  14.635  -7.040  1.00  0.00    -0.632 OA
BRANCH  40  42
HETATM   42  O15 UNL     1      27.991  12.791  -8.588  1.00  0.00    -0.307 OA
HETATM   43  H36 UNL     1      27.525  12.821  -9.457  1.00  0.00     0.222 HD
ENDBRANCH  40  42
BRANCH  40  44
HETATM   44  O16 UNL     1      28.456  15.042  -9.568  1.00  0.00    -0.307 OA
HETATM   45  H37 UNL     1      29.151  15.652  -9.863  1.00  0.00     0.222 HD
ENDBRANCH  40  44
ENDBRANCH  39  40
ENDBRANCH  35  39
BRANCH  36  46
HETATM   46  O12 UNL     1      30.552  11.558 -10.834  1.00  0.00    -0.388 OA
HETATM   47  H35 UNL     1      30.924  12.381 -11.231  1.00  0.00     0.210 HD
ENDBRANCH  36  46
BRANCH  37  48
HETATM   48  N3  UNL     1      33.576  10.576 -10.112  1.00  0.00    -0.297 N 
HETATM   49  C19 UNL     1      34.368  10.578 -11.236  1.00  0.00     0.188 A 
HETATM   50  N4  UNL     1      35.078   9.476 -11.347  1.00  0.00    -0.346 N 
HETATM   51  C20 UNL     1      34.732   8.725 -10.237  1.00  0.00     0.116 A 
HETATM   52  H4  UNL     1      35.736   9.230 -12.086  1.00  0.00     0.167 HD
HETATM   53  C21 UNL     1      35.167   7.477  -9.758  1.00  0.00     0.109 A 
HETATM   54  C23 UNL     1      33.773   9.378  -9.485  1.00  0.00     0.142 A 
HETATM   55  N5  UNL     1      34.616   6.992  -8.618  1.00  0.00    -0.341 N 
HETATM   56  C22 UNL     1      33.672   7.730  -8.001  1.00  0.00     0.183 A 
HETATM   57  H5  UNL     1      34.909   6.092  -8.238  1.00  0.00     0.167 HD
HETATM   58  N6  UNL     1      33.184   8.935  -8.360  1.00  0.00    -0.336 N 
HETATM   59  H6  UNL     1      32.464   9.444  -7.846  1.00  0.00     0.168 HD
BRANCH  53  60
HETATM   60  N7  UNL     1      36.127   6.708 -10.396  1.00  0.00    -0.287 NA
HETATM   61  H33 UNL     1      36.916   6.449  -9.807  1.00  0.00     0.125 HD
HETATM   62  H34 UNL     1      36.342   7.038 -11.327  1.00  0.00     0.125 HD
ENDBRANCH  53  60
ENDBRANCH  37  48
ENDBRANCH  33  34
ENDBRANCH  32  33
ENDBRANCH  28  32
ENDBRANCH  27  28
ENDBRANCH  23  27
ENDBRANCH  22  23
ENDBRANCH  21  22
ENDBRANCH  18  21
ENDBRANCH  17  18
BRANCH  17  63
HETATM   63  O17 UNL     1      30.141   8.371  -8.018  1.00  0.00    -0.385 OA
HETATM   64  H38 UNL     1      30.577   8.072  -7.202  1.00  0.00     0.210 HD
ENDBRANCH  17  63
ENDBRANCH  14  17
ENDBRANCH  12  13
ENDBRANCH  11  12
ENDBRANCH   8  11
ENDBRANCH   6   7
ENDBRANCH   5   6
ENDBRANCH   4   5
ENDBRANCH   2   4
TORSDOF 27
ENDMDL
MODEL 11
REMARK VINA RESULT:      -2.6     15.786     19.536
REMARK  27 active torsions:
REMARK  status: ('A' for Active; 'I' for Inactive)
REMARK    1  A    between atoms: C2_2  and  S1_4 
REMARK    2  A    between atoms: S1_4  and  C3_5 
REMARK    3  A    between atoms: C3_5  and  C4_6 
REMARK    4  A    between atoms: C4_6  and  N1_7 
REMARK       I    between atoms: N1_7  and  C5_8 
REMARK    5  A    between atoms: C5_8  and  C6_10 
REMARK    6  A    between atoms: C6_10  and  C7_11 
REMARK    7  A    between atoms: C7_11  and  N2_12 
REMARK       I    between atoms: N2_12  and  C8_13 
REMARK    8  A    between atoms: C8_13  and  C9_15 
REMARK    9  A    between atoms: C9_15  and  C10_16 
REMARK   10  A    between atoms: C9_15  and  O17_54 
REMARK   11  A    between atoms: C10_16  and  C13_19 
REMARK   12  A    between atoms: C13_19  and  O4_20 
REMARK   13  A    between atoms: O4_20  and  P1_21 
REMARK   14  A    between atoms: P1_21  and  O6_23 
REMARK   15  A    between atoms: P1_21  and  O7_24 
REMARK   16  A    between atoms: O7_24  and  P2_25 
REMARK   17  A    between atoms: P2_25  and  O9_27 
REMARK   18  A    between atoms: P2_25  and  O10_28 
REMARK   19  A    between atoms: O10_28  and  C14_29 
REMARK   20  A    between atoms: C14_29  and  C15_30 
REMARK   21  A    between atoms: C16_31  and  O13_49 
REMARK   22  A    between atoms: C17_32  and  O12_48 
REMARK   23  A    between atoms: C18_33  and  N3_35 
REMARK   24  A    between atoms: C21_40  and  N7_47 
REMARK   25  A    between atoms: O13_49  and  P3_50 
REMARK   26  A    between atoms: P3_50  and  O15_52 
REMARK   27  A    between atoms: P3_50  and  O16_53 
ROOT
HETATM    1  C1  UNL     1      11.958  12.186  -7.834  1.00  0.00     0.104 C 
HETATM    2  C2  UNL     1      10.546  11.849  -7.464  1.00  0.00     0.182 C 
HETATM    3  O1  UNL     1       9.919  10.920  -7.968  1.00  0.00    -0.286 OA
ENDROOT
BRANCH   2   4
HETATM    4  S1  UNL     1       9.834  12.924  -6.268  1.00  0.00    -0.091 SA
BRANCH   4   5
HETATM    5  C3  UNL     1       9.388  11.719  -4.976  1.00  0.00     0.102 C 
BRANCH   5   6
HETATM    6  C4  UNL     1      10.612  10.966  -4.451  1.00  0.00     0.133 C 
BRANCH   6   7
HETATM    7  N1  UNL     1      11.364  11.730  -3.477  1.00  0.00    -0.360 N 
HETATM    8  C5  UNL     1      12.671  12.097  -3.698  1.00  0.00     0.219 C 
HETATM    9  O2  UNL     1      13.301  11.737  -4.686  1.00  0.00    -0.274 OA
HETATM   10  H8  UNL     1      10.909  12.003  -2.617  1.00  0.00     0.162 HD
BRANCH   8  11
HETATM   11  C6  UNL     1      13.254  12.937  -2.582  1.00  0.00     0.122 C 
BRANCH  11  12
HETATM   12  C7  UNL     1      13.419  12.136  -1.291  1.00  0.00     0.132 C 
BRANCH  12  13
HETATM   13  N2  UNL     1      14.783  12.112  -0.808  1.00  0.00    -0.358 N 
HETATM   14  C8  UNL     1      15.078  12.545   0.472  1.00  0.00     0.247 C 
HETATM   15  O3  UNL     1      14.237  13.067   1.193  1.00  0.00    -0.271 OA
HETATM   16  H13 UNL     1      15.373  11.380  -1.199  1.00  0.00     0.162 HD
BRANCH  14  17
HETATM   17  C9  UNL     1      16.527  12.300   0.917  1.00  0.00     0.219 C 
BRANCH  17  18
HETATM   18  C10 UNL     1      16.694  11.177   1.974  1.00  0.00     0.009 C 
HETATM   19  C11 UNL     1      18.139  10.663   2.048  1.00  0.00     0.020 C 
HETATM   20  C12 UNL     1      16.289  11.659   3.381  1.00  0.00     0.020 C 
BRANCH  18  21
HETATM   21  C13 UNL     1      15.752  10.023   1.523  1.00  0.00     0.192 C 
BRANCH  21  22
HETATM   22  O4  UNL     1      16.437   9.020   0.801  1.00  0.00    -0.296 OA
BRANCH  22  23
HETATM   23  P1  UNL     1      16.066   8.627  -0.709  1.00  0.00     0.401 P 
HETATM   24  O5  UNL     1      16.501   7.252  -1.107  1.00  0.00    -0.631 OA
BRANCH  23  25
HETATM   25  O6  UNL     1      16.653   9.792  -1.651  1.00  0.00    -0.307 OA
HETATM   26  H23 UNL     1      17.244  10.384  -1.168  1.00  0.00     0.222 HD
ENDBRANCH  23  25
BRANCH  23  27
HETATM   27  O7  UNL     1      14.502   8.890  -0.829  1.00  0.00    -0.195 OA
BRANCH  27  28
HETATM   28  P2  UNL     1      13.495   7.685  -0.563  1.00  0.00     0.401 P 
HETATM   29  O8  UNL     1      13.116   6.847  -1.741  1.00  0.00    -0.631 OA
BRANCH  28  30
HETATM   30  O9  UNL     1      14.201   6.870   0.614  1.00  0.00    -0.307 OA
HETATM   31  H24 UNL     1      15.059   6.452   0.358  1.00  0.00     0.222 HD
ENDBRANCH  28  30
BRANCH  28  32
HETATM   32  O10 UNL     1      12.285   8.360   0.231  1.00  0.00    -0.294 OA
BRANCH  32  33
HETATM   33  C14 UNL     1      11.678   9.522  -0.270  1.00  0.00     0.215 C 
BRANCH  33  34
HETATM   34  C15 UNL     1      10.380   9.698   0.516  1.00  0.00     0.180 C 
HETATM   35  C16 UNL     1      10.447  10.974   1.344  1.00  0.00     0.197 C 
HETATM   36  C17 UNL     1      10.345  10.505   2.783  1.00  0.00     0.199 C 
HETATM   37  C18 UNL     1       9.600   9.176   2.636  1.00  0.00     0.262 C 
HETATM   38  O11 UNL     1      10.116   8.611   1.411  1.00  0.00    -0.353 OA
BRANCH  35  39
HETATM   39  O13 UNL     1       9.350  11.801   0.969  1.00  0.00    -0.286 OA
BRANCH  39  40
HETATM   40  P3  UNL     1       9.734  13.151   0.203  1.00  0.00     0.391 P 
HETATM   41  O14 UNL     1      11.000  13.779   0.687  1.00  0.00    -0.632 OA
BRANCH  40  42
HETATM   42  O15 UNL     1       8.380  13.986   0.371  1.00  0.00    -0.307 OA
HETATM   43  H36 UNL     1       8.080  14.342  -0.499  1.00  0.00     0.222 HD
ENDBRANCH  40  42
BRANCH  40  44
HETATM   44  O16 UNL     1       9.681  12.677  -1.315  1.00  0.00    -0.307 OA
HETATM   45  H37 UNL     1       9.603  13.417  -1.937  1.00  0.00     0.222 HD
ENDBRANCH  40  44
ENDBRANCH  39  40
ENDBRANCH  35  39
BRANCH  36  46
HETATM   46  O12 UNL     1       9.734  11.514   3.591  1.00  0.00    -0.388 OA
HETATM   47  H35 UNL     1      10.321  12.305   3.539  1.00  0.00     0.210 HD
ENDBRANCH  36  46
BRANCH  37  48
HETATM   48  N3  UNL     1       9.878   8.260   3.725  1.00  0.00    -0.297 N 
HETATM   49  C19 UNL     1       8.991   7.794   4.666  1.00  0.00     0.188 A 
HETATM   50  N4  UNL     1       9.524   6.876   5.443  1.00  0.00    -0.346 N 
HETATM   51  C20 UNL     1      10.820   6.737   4.979  1.00  0.00     0.116 A 
HETATM   52  H4  UNL     1       9.081   6.378   6.215  1.00  0.00     0.167 HD
HETATM   53  C21 UNL     1      11.881   5.894   5.354  1.00  0.00     0.109 A 
HETATM   54  C23 UNL     1      11.065   7.616   3.940  1.00  0.00     0.142 A 
HETATM   55  N5  UNL     1      13.062   6.006   4.699  1.00  0.00    -0.341 N 
HETATM   56  C22 UNL     1      13.163   6.927   3.720  1.00  0.00     0.183 A 
HETATM   57  H5  UNL     1      13.853   5.410   4.941  1.00  0.00     0.167 HD
HETATM   58  N6  UNL     1      12.219   7.779   3.270  1.00  0.00    -0.336 N 
HETATM   59  H6  UNL     1      12.361   8.456   2.520  1.00  0.00     0.168 HD
BRANCH  53  60
HETATM   60  N7  UNL     1      11.786   4.956   6.370  1.00  0.00    -0.287 NA
HETATM   61  H33 UNL     1      12.391   5.140   7.168  1.00  0.00     0.125 HD
HETATM   62  H34 UNL     1      11.761   4.005   6.027  1.00  0.00     0.125 HD
ENDBRANCH  53  60
ENDBRANCH  37  48
ENDBRANCH  33  34
ENDBRANCH  32  33
ENDBRANCH  28  32
ENDBRANCH  27  28
ENDBRANCH  23  27
ENDBRANCH  22  23
ENDBRANCH  21  22
ENDBRANCH  18  21
ENDBRANCH  17  18
BRANCH  17  63
HETATM   63  O17 UNL     1      17.344  11.984  -0.215  1.00  0.00    -0.385 OA
HETATM   64  H38 UNL     1      16.833  11.402  -0.803  1.00  0.00     0.210 HD
ENDBRANCH  17  63
ENDBRANCH  14  17
ENDBRANCH  12  13
ENDBRANCH  11  12
ENDBRANCH   8  11
ENDBRANCH   6   7
ENDBRANCH   5   6
ENDBRANCH   4   5
ENDBRANCH   2   4
TORSDOF 27
ENDMDL
MODEL 12
REMARK VINA RESULT:      -2.6      4.361      8.401
REMARK  27 active torsions:
REMARK  status: ('A' for Active; 'I' for Inactive)
REMARK    1  A    between atoms: C2_2  and  S1_4 
REMARK    2  A    between atoms: S1_4  and  C3_5 
REMARK    3  A    between atoms: C3_5  and  C4_6 
REMARK    4  A    between atoms: C4_6  and  N1_7 
REMARK       I    between atoms: N1_7  and  C5_8 
REMARK    5  A    between atoms: C5_8  and  C6_10 
REMARK    6  A    between atoms: C6_10  and  C7_11 
REMARK    7  A    between atoms: C7_11  and  N2_12 
REMARK       I    between atoms: N2_12  and  C8_13 
REMARK    8  A    between atoms: C8_13  and  C9_15 
REMARK    9  A    between atoms: C9_15  and  C10_16 
REMARK   10  A    between atoms: C9_15  and  O17_54 
REMARK   11  A    between atoms: C10_16  and  C13_19 
REMARK   12  A    between atoms: C13_19  and  O4_20 
REMARK   13  A    between atoms: O4_20  and  P1_21 
REMARK   14  A    between atoms: P1_21  and  O6_23 
REMARK   15  A    between atoms: P1_21  and  O7_24 
REMARK   16  A    between atoms: O7_24  and  P2_25 
REMARK   17  A    between atoms: P2_25  and  O9_27 
REMARK   18  A    between atoms: P2_25  and  O10_28 
REMARK   19  A    between atoms: O10_28  and  C14_29 
REMARK   20  A    between atoms: C14_29  and  C15_30 
REMARK   21  A    between atoms: C16_31  and  O13_49 
REMARK   22  A    between atoms: C17_32  and  O12_48 
REMARK   23  A    between atoms: C18_33  and  N3_35 
REMARK   24  A    between atoms: C21_40  and  N7_47 
REMARK   25  A    between atoms: O13_49  and  P3_50 
REMARK   26  A    between atoms: P3_50  and  O15_52 
REMARK   27  A    between atoms: P3_50  and  O16_53 
ROOT
HETATM    1  C1  UNL     1      18.722   9.980   0.890  1.00  0.00     0.104 C 
HETATM    2  C2  UNL     1      19.342   8.916   0.036  1.00  0.00     0.182 C 
HETATM    3  O1  UNL     1      19.617   7.793   0.451  1.00  0.00    -0.286 OA
ENDROOT
BRANCH   2   4
HETATM    4  S1  UNL     1      19.686   9.420  -1.613  1.00  0.00    -0.091 SA
BRANCH   4   5
HETATM    5  C3  UNL     1      20.103  11.171  -1.336  1.00  0.00     0.102 C 
BRANCH   5   6
HETATM    6  C4  UNL     1      21.595  11.441  -1.540  1.00  0.00     0.133 C 
BRANCH   6   7
HETATM    7  N1  UNL     1      22.395  10.234  -1.481  1.00  0.00    -0.360 N 
HETATM    8  C5  UNL     1      23.638  10.160  -2.066  1.00  0.00     0.219 C 
HETATM    9  O2  UNL     1      24.108  11.073  -2.735  1.00  0.00    -0.274 OA
HETATM   10  H8  UNL     1      22.027   9.431  -0.990  1.00  0.00     0.162 HD
BRANCH   8  11
HETATM   11  C6  UNL     1      24.328   8.832  -1.841  1.00  0.00     0.122 C 
BRANCH  11  12
HETATM   12  C7  UNL     1      25.070   8.356  -3.089  1.00  0.00     0.132 C 
BRANCH  12  13
HETATM   13  N2  UNL     1      26.171   9.220  -3.459  1.00  0.00    -0.358 N 
HETATM   14  C8  UNL     1      26.772   9.091  -4.697  1.00  0.00     0.247 C 
HETATM   15  O3  UNL     1      26.487   8.184  -5.469  1.00  0.00    -0.271 OA
HETATM   16  H13 UNL     1      26.158  10.149  -3.042  1.00  0.00     0.162 HD
BRANCH  14  17
HETATM   17  C9  UNL     1      27.803  10.181  -5.030  1.00  0.00     0.219 C 
BRANCH  17  18
HETATM   18  C10 UNL     1      27.346  11.187  -6.118  1.00  0.00     0.009 C 
HETATM   19  C11 UNL     1      27.047  10.495  -7.456  1.00  0.00     0.020 C 
HETATM   20  C12 UNL     1      26.079  11.952  -5.685  1.00  0.00     0.020 C 
BRANCH  18  21
HETATM   21  C13 UNL     1      28.526  12.185  -6.299  1.00  0.00     0.192 C 
BRANCH  21  22
HETATM   22  O4  UNL     1      28.345  13.372  -5.554  1.00  0.00    -0.296 OA
BRANCH  22  23
HETATM   23  P1  UNL     1      28.762  14.819  -6.106  1.00  0.00     0.401 P 
HETATM   24  O5  UNL     1      27.876  15.930  -5.639  1.00  0.00    -0.631 OA
BRANCH  23  25
HETATM   25  O6  UNL     1      28.859  14.695  -7.708  1.00  0.00    -0.307 OA
HETATM   26  H23 UNL     1      29.664  15.101  -8.054  1.00  0.00     0.222 HD
ENDBRANCH  23  25
BRANCH  23  27
HETATM   27  O7  UNL     1      30.295  14.981  -5.715  1.00  0.00    -0.195 OA
BRANCH  27  28
HETATM   28  P2  UNL     1      31.384  15.045  -6.876  1.00  0.00     0.401 P 
HETATM   29  O8  UNL     1      31.293  16.194  -7.826  1.00  0.00    -0.631 OA
BRANCH  28  30
HETATM   30  O9  UNL     1      32.768  14.961  -6.086  1.00  0.00    -0.307 OA
HETATM   31  H24 UNL     1      33.340  15.761  -6.188  1.00  0.00     0.222 HD
ENDBRANCH  28  30
BRANCH  28  32
HETATM   32  O10 UNL     1      31.332  13.591  -7.534  1.00  0.00    -0.294 OA
BRANCH  32  33
HETATM   33  C14 UNL     1      32.365  12.672  -7.288  1.00  0.00     0.215 C 
BRANCH  33  34
HETATM   34  C15 UNL     1      32.318  11.662  -8.433  1.00  0.00     0.180 C 
HETATM   35  C16 UNL     1      31.263  12.081  -9.448  1.00  0.00     0.197 C 
HETATM   36  C17 UNL     1      30.251  10.951  -9.441  1.00  0.00     0.199 C 
HETATM   37  C18 UNL     1      31.095   9.765  -8.968  1.00  0.00     0.262 C 
HETATM   38  O11 UNL     1      31.998  10.336  -7.996  1.00  0.00    -0.353 OA
BRANCH  35  39
HETATM   39  O13 UNL     1      31.900  12.223 -10.714  1.00  0.00    -0.286 OA
BRANCH  39  40
HETATM   40  P3  UNL     1      32.321  13.713 -11.111  1.00  0.00     0.391 P 
HETATM   41  O14 UNL     1      33.721  14.068 -10.724  1.00  0.00    -0.632 OA
BRANCH  40  42
HETATM   42  O15 UNL     1      31.133  14.549 -10.439  1.00  0.00    -0.307 OA
HETATM   43  H36 UNL     1      31.193  15.502 -10.687  1.00  0.00     0.222 HD
ENDBRANCH  40  42
BRANCH  40  44
HETATM   44  O16 UNL     1      31.955  13.743 -12.658  1.00  0.00    -0.307 OA
HETATM   45  H37 UNL     1      31.010  13.898 -12.818  1.00  0.00     0.222 HD
ENDBRANCH  40  44
ENDBRANCH  39  40
ENDBRANCH  35  39
BRANCH  36  46
HETATM   46  O12 UNL     1      29.622  10.841 -10.720  1.00  0.00    -0.388 OA
HETATM   47  H35 UNL     1      30.224  11.282 -11.365  1.00  0.00     0.210 HD
ENDBRANCH  36  46
BRANCH  37  48
HETATM   48  N3  UNL     1      30.301   8.740  -8.321  1.00  0.00    -0.297 N 
HETATM   49  C19 UNL     1      30.254   8.449  -6.978  1.00  0.00     0.188 A 
HETATM   50  N4  UNL     1      29.339   7.547  -6.695  1.00  0.00    -0.346 N 
HETATM   51  C20 UNL     1      28.761   7.242  -7.914  1.00  0.00     0.116 A 
HETATM   52  H4  UNL     1      29.107   7.159  -5.781  1.00  0.00     0.167 HD
HETATM   53  C21 UNL     1      27.705   6.390  -8.282  1.00  0.00     0.109 A 
HETATM   54  C23 UNL     1      29.374   7.945  -8.936  1.00  0.00     0.142 A 
HETATM   55  N5  UNL     1      27.371   6.298  -9.592  1.00  0.00    -0.341 N 
HETATM   56  C22 UNL     1      28.074   7.026 -10.482  1.00  0.00     0.183 A 
HETATM   57  H5  UNL     1      26.608   5.693  -9.896  1.00  0.00     0.167 HD
HETATM   58  N6  UNL     1      29.093   7.878 -10.249  1.00  0.00    -0.336 N 
HETATM   59  H6  UNL     1      29.586   8.402 -10.973  1.00  0.00     0.168 HD
BRANCH  53  60
HETATM   60  N7  UNL     1      26.989   5.628  -7.372  1.00  0.00    -0.287 NA
HETATM   61  H33 UNL     1      27.391   4.712  -7.185  1.00  0.00     0.125 HD
HETATM   62  H34 UNL     1      25.990   5.665  -7.526  1.00  0.00     0.125 HD
ENDBRANCH  53  60
ENDBRANCH  37  48
ENDBRANCH  33  34
ENDBRANCH  32  33
ENDBRANCH  28  32
ENDBRANCH  27  28
ENDBRANCH  23  27
ENDBRANCH  22  23
ENDBRANCH  21  22
ENDBRANCH  18  21
ENDBRANCH  17  18
BRANCH  17  63
HETATM   63  O17 UNL     1      28.144  10.913  -3.848  1.00  0.00    -0.385 OA
HETATM   64  H38 UNL     1      28.891  10.464  -3.419  1.00  0.00     0.210 HD
ENDBRANCH  17  63
ENDBRANCH  14  17
ENDBRANCH  12  13
ENDBRANCH  11  12
ENDBRANCH   8  11
ENDBRANCH   6   7
ENDBRANCH   5   6
ENDBRANCH   4   5
ENDBRANCH   2   4
TORSDOF 27
ENDMDL
MODEL 13
REMARK VINA RESULT:      -2.6      7.112     11.368
REMARK  27 active torsions:
REMARK  status: ('A' for Active; 'I' for Inactive)
REMARK    1  A    between atoms: C2_2  and  S1_4 
REMARK    2  A    between atoms: S1_4  and  C3_5 
REMARK    3  A    between atoms: C3_5  and  C4_6 
REMARK    4  A    between atoms: C4_6  and  N1_7 
REMARK       I    between atoms: N1_7  and  C5_8 
REMARK    5  A    between atoms: C5_8  and  C6_10 
REMARK    6  A    between atoms: C6_10  and  C7_11 
REMARK    7  A    between atoms: C7_11  and  N2_12 
REMARK       I    between atoms: N2_12  and  C8_13 
REMARK    8  A    between atoms: C8_13  and  C9_15 
REMARK    9  A    between atoms: C9_15  and  C10_16 
REMARK   10  A    between atoms: C9_15  and  O17_54 
REMARK   11  A    between atoms: C10_16  and  C13_19 
REMARK   12  A    between atoms: C13_19  and  O4_20 
REMARK   13  A    between atoms: O4_20  and  P1_21 
REMARK   14  A    between atoms: P1_21  and  O6_23 
REMARK   15  A    between atoms: P1_21  and  O7_24 
REMARK   16  A    between atoms: O7_24  and  P2_25 
REMARK   17  A    between atoms: P2_25  and  O9_27 
REMARK   18  A    between atoms: P2_25  and  O10_28 
REMARK   19  A    between atoms: O10_28  and  C14_29 
REMARK   20  A    between atoms: C14_29  and  C15_30 
REMARK   21  A    between atoms: C16_31  and  O13_49 
REMARK   22  A    between atoms: C17_32  and  O12_48 
REMARK   23  A    between atoms: C18_33  and  N3_35 
REMARK   24  A    between atoms: C21_40  and  N7_47 
REMARK   25  A    between atoms: O13_49  and  P3_50 
REMARK   26  A    between atoms: P3_50  and  O15_52 
REMARK   27  A    between atoms: P3_50  and  O16_53 
ROOT
HETATM    1  C1  UNL     1      19.727   1.878  -0.686  1.00  0.00     0.104 C 
HETATM    2  C2  UNL     1      20.829   1.585  -1.658  1.00  0.00     0.182 C 
HETATM    3  O1  UNL     1      20.830   0.607  -2.402  1.00  0.00    -0.286 OA
ENDROOT
BRANCH   2   4
HETATM    4  S1  UNL     1      22.153   2.741  -1.623  1.00  0.00    -0.091 SA
BRANCH   4   5
HETATM    5  C3  UNL     1      21.223   4.293  -1.409  1.00  0.00     0.102 C 
BRANCH   5   6
HETATM    6  C4  UNL     1      20.937   4.976  -2.747  1.00  0.00     0.133 C 
BRANCH   6   7
HETATM    7  N1  UNL     1      20.032   4.214  -3.583  1.00  0.00    -0.360 N 
HETATM    8  C5  UNL     1      18.703   4.547  -3.702  1.00  0.00     0.219 C 
HETATM    9  O2  UNL     1      18.188   5.450  -3.053  1.00  0.00    -0.274 OA
HETATM   10  H8  UNL     1      20.395   3.421  -4.095  1.00  0.00     0.162 HD
BRANCH   8  11
HETATM   11  C6  UNL     1      17.947   3.658  -4.665  1.00  0.00     0.122 C 
BRANCH  11  12
HETATM   12  C7  UNL     1      17.677   2.275  -4.074  1.00  0.00     0.132 C 
BRANCH  12  13
HETATM   13  N2  UNL     1      18.642   1.280  -4.493  1.00  0.00    -0.358 N 
HETATM   14  C8  UNL     1      18.522   0.670  -5.728  1.00  0.00     0.247 C 
HETATM   15  O3  UNL     1      17.551   0.851  -6.453  1.00  0.00    -0.271 OA
HETATM   16  H13 UNL     1      19.582   1.399  -4.122  1.00  0.00     0.162 HD
BRANCH  14  17
HETATM   17  C9  UNL     1      19.704  -0.229  -6.120  1.00  0.00     0.219 C 
BRANCH  17  18
HETATM   18  C10 UNL     1      20.687   0.409  -7.137  1.00  0.00     0.009 C 
HETATM   19  C11 UNL     1      20.482  -0.135  -8.559  1.00  0.00     0.020 C 
HETATM   20  C12 UNL     1      20.532   1.942  -7.187  1.00  0.00     0.020 C 
BRANCH  18  21
HETATM   21  C13 UNL     1      22.114   0.042  -6.638  1.00  0.00     0.192 C 
BRANCH  21  22
HETATM   22  O4  UNL     1      23.023   1.117  -6.770  1.00  0.00    -0.296 OA
BRANCH  22  23
HETATM   23  P1  UNL     1      24.301   1.062  -7.736  1.00  0.00     0.401 P 
HETATM   24  O5  UNL     1      23.977   1.218  -9.189  1.00  0.00    -0.631 OA
BRANCH  23  25
HETATM   25  O6  UNL     1      25.090  -0.297  -7.389  1.00  0.00    -0.307 OA
HETATM   26  H23 UNL     1      25.498  -0.689  -8.172  1.00  0.00     0.222 HD
ENDBRANCH  23  25
BRANCH  23  27
HETATM   27  O7  UNL     1      25.301   2.156  -7.157  1.00  0.00    -0.195 OA
BRANCH  27  28
HETATM   28  P2  UNL     1      26.870   1.902  -7.271  1.00  0.00     0.401 P 
HETATM   29  O8  UNL     1      27.475   0.953  -6.289  1.00  0.00    -0.631 OA
BRANCH  28  30
HETATM   30  O9  UNL     1      27.061   1.472  -8.796  1.00  0.00    -0.307 OA
HETATM   31  H24 UNL     1      26.814   2.173  -9.448  1.00  0.00     0.222 HD
ENDBRANCH  28  30
BRANCH  28  32
HETATM   32  O10 UNL     1      27.497   3.371  -7.299  1.00  0.00    -0.294 OA
BRANCH  32  33
HETATM   33  C14 UNL     1      26.746   4.446  -7.798  1.00  0.00     0.215 C 
BRANCH  33  34
HETATM   34  C15 UNL     1      27.578   5.062  -8.921  1.00  0.00     0.180 C 
HETATM   35  C16 UNL     1      29.061   4.887  -8.620  1.00  0.00     0.197 C 
HETATM   36  C17 UNL     1      29.598   6.300  -8.498  1.00  0.00     0.199 C 
HETATM   37  C18 UNL     1      28.605   7.098  -9.346  1.00  0.00     0.262 C 
HETATM   38  O11 UNL     1      27.332   6.462  -9.096  1.00  0.00    -0.353 OA
BRANCH  35  39
HETATM   39  O13 UNL     1      29.651   4.180  -9.707  1.00  0.00    -0.286 OA
BRANCH  39  40
HETATM   40  P3  UNL     1      30.442   2.848  -9.314  1.00  0.00     0.391 P 
HETATM   41  O14 UNL     1      29.935   1.621 -10.001  1.00  0.00    -0.632 OA
BRANCH  40  42
HETATM   42  O15 UNL     1      30.340   2.899  -7.718  1.00  0.00    -0.307 OA
HETATM   43  H36 UNL     1      30.260   3.830  -7.404  1.00  0.00     0.222 HD
ENDBRANCH  40  42
BRANCH  40  44
HETATM   44  O16 UNL     1      31.946   3.280  -9.595  1.00  0.00    -0.307 OA
HETATM   45  H37 UNL     1      32.590   2.616  -9.301  1.00  0.00     0.222 HD
ENDBRANCH  40  44
ENDBRANCH  39  40
ENDBRANCH  35  39
BRANCH  36  46
HETATM   46  O12 UNL     1      30.974   6.342  -8.884  1.00  0.00    -0.388 OA
HETATM   47  H35 UNL     1      30.988   6.608  -9.835  1.00  0.00     0.210 HD
ENDBRANCH  36  46
BRANCH  37  48
HETATM   48  N3  UNL     1      28.520   8.487  -8.943  1.00  0.00    -0.297 N 
HETATM   49  C19 UNL     1      29.021   9.579  -9.612  1.00  0.00     0.188 A 
HETATM   50  N4  UNL     1      28.668  10.714  -9.050  1.00  0.00    -0.346 N 
HETATM   51  C20 UNL     1      27.894  10.340  -7.965  1.00  0.00     0.116 A 
HETATM   52  H4  UNL     1      28.909  11.660  -9.347  1.00  0.00     0.167 HD
HETATM   53  C21 UNL     1      27.191  11.077  -6.996  1.00  0.00     0.109 A 
HETATM   54  C23 UNL     1      27.827   8.962  -7.864  1.00  0.00     0.142 A 
HETATM   55  N5  UNL     1      26.519  10.405  -6.030  1.00  0.00    -0.341 N 
HETATM   56  C22 UNL     1      26.561   9.058  -6.043  1.00  0.00     0.183 A 
HETATM   57  H5  UNL     1      25.994  10.905  -5.313  1.00  0.00     0.167 HD
HETATM   58  N6  UNL     1      27.190   8.248  -6.920  1.00  0.00    -0.336 N 
HETATM   59  H6  UNL     1      27.183   7.229  -6.873  1.00  0.00     0.168 HD
BRANCH  53  60
HETATM   60  N7  UNL     1      27.156  12.463  -6.970  1.00  0.00    -0.287 NA
HETATM   61  H33 UNL     1      27.917  12.910  -7.476  1.00  0.00     0.125 HD
HETATM   62  H34 UNL     1      26.936  12.834  -6.056  1.00  0.00     0.125 HD
ENDBRANCH  53  60
ENDBRANCH  37  48
ENDBRANCH  33  34
ENDBRANCH  32  33
ENDBRANCH  28  32
ENDBRANCH  27  28
ENDBRANCH  23  27
ENDBRANCH  22  23
ENDBRANCH  21  22
ENDBRANCH  18  21
ENDBRANCH  17  18
BRANCH  17  63
HETATM   63  O17 UNL     1      20.441  -0.611  -4.954  1.00  0.00    -0.385 OA
HETATM   64  H38 UNL     1      19.869  -0.479  -4.179  1.00  0.00     0.210 HD
ENDBRANCH  17  63
ENDBRANCH  14  17
ENDBRANCH  12  13
ENDBRANCH  11  12
ENDBRANCH   8  11
ENDBRANCH   6   7
ENDBRANCH   5   6
ENDBRANCH   4   5
ENDBRANCH   2   4
TORSDOF 27
ENDMDL
MODEL 14
REMARK VINA RESULT:      -2.6     10.966     14.403
REMARK  27 active torsions:
REMARK  status: ('A' for Active; 'I' for Inactive)
REMARK    1  A    between atoms: C2_2  and  S1_4 
REMARK    2  A    between atoms: S1_4  and  C3_5 
REMARK    3  A    between atoms: C3_5  and  C4_6 
REMARK    4  A    between atoms: C4_6  and  N1_7 
REMARK       I    between atoms: N1_7  and  C5_8 
REMARK    5  A    between atoms: C5_8  and  C6_10 
REMARK    6  A    between atoms: C6_10  and  C7_11 
REMARK    7  A    between atoms: C7_11  and  N2_12 
REMARK       I    between atoms: N2_12  and  C8_13 
REMARK    8  A    between atoms: C8_13  and  C9_15 
REMARK    9  A    between atoms: C9_15  and  C10_16 
REMARK   10  A    between atoms: C9_15  and  O17_54 
REMARK   11  A    between atoms: C10_16  and  C13_19 
REMARK   12  A    between atoms: C13_19  and  O4_20 
REMARK   13  A    between atoms: O4_20  and  P1_21 
REMARK   14  A    between atoms: P1_21  and  O6_23 
REMARK   15  A    between atoms: P1_21  and  O7_24 
REMARK   16  A    between atoms: O7_24  and  P2_25 
REMARK   17  A    between atoms: P2_25  and  O9_27 
REMARK   18  A    between atoms: P2_25  and  O10_28 
REMARK   19  A    between atoms: O10_28  and  C14_29 
REMARK   20  A    between atoms: C14_29  and  C15_30 
REMARK   21  A    between atoms: C16_31  and  O13_49 
REMARK   22  A    between atoms: C17_32  and  O12_48 
REMARK   23  A    between atoms: C18_33  and  N3_35 
REMARK   24  A    between atoms: C21_40  and  N7_47 
REMARK   25  A    between atoms: O13_49  and  P3_50 
REMARK   26  A    between atoms: P3_50  and  O15_52 
REMARK   27  A    between atoms: P3_50  and  O16_53 
ROOT
HETATM    1  C1  UNL     1      15.316   7.434  -1.723  1.00  0.00     0.104 C 
HETATM    2  C2  UNL     1      14.836   7.914  -0.388  1.00  0.00     0.182 C 
HETATM    3  O1  UNL     1      15.496   7.812   0.643  1.00  0.00    -0.286 OA
ENDROOT
BRANCH   2   4
HETATM    4  S1  UNL     1      13.219   8.606  -0.405  1.00  0.00    -0.091 SA
BRANCH   4   5
HETATM    5  C3  UNL     1      13.614  10.358  -0.097  1.00  0.00     0.102 C 
BRANCH   5   6
HETATM    6  C4  UNL     1      12.700  11.296  -0.888  1.00  0.00     0.133 C 
BRANCH   6   7
HETATM    7  N1  UNL     1      12.854  11.150  -2.321  1.00  0.00    -0.360 N 
HETATM    8  C5  UNL     1      11.777  10.923  -3.145  1.00  0.00     0.219 C 
HETATM    9  O2  UNL     1      10.642  10.751  -2.716  1.00  0.00    -0.274 OA
HETATM   10  H8  UNL     1      13.780  11.226  -2.721  1.00  0.00     0.162 HD
BRANCH   8  11
HETATM   11  C6  UNL     1      12.147  10.858  -4.611  1.00  0.00     0.122 C 
BRANCH  11  12
HETATM   12  C7  UNL     1      12.737  12.177  -5.110  1.00  0.00     0.132 C 
BRANCH  12  13
HETATM   13  N2  UNL     1      13.593  12.014  -6.266  1.00  0.00    -0.358 N 
HETATM   14  C8  UNL     1      13.289  12.653  -7.454  1.00  0.00     0.247 C 
HETATM   15  O3  UNL     1      12.244  13.272  -7.612  1.00  0.00    -0.271 OA
HETATM   16  H13 UNL     1      14.577  11.854  -6.063  1.00  0.00     0.162 HD
BRANCH  14  17
HETATM   17  C9  UNL     1      14.368  12.541  -8.541  1.00  0.00     0.219 C 
BRANCH  17  18
HETATM   18  C10 UNL     1      15.165  13.848  -8.794  1.00  0.00     0.009 C 
HETATM   19  C11 UNL     1      16.376  13.619  -9.709  1.00  0.00     0.020 C 
HETATM   20  C12 UNL     1      14.280  14.933  -9.439  1.00  0.00     0.020 C 
BRANCH  18  21
HETATM   21  C13 UNL     1      15.649  14.329  -7.396  1.00  0.00     0.192 C 
BRANCH  21  22
HETATM   22  O4  UNL     1      16.766  13.597  -6.932  1.00  0.00    -0.296 OA
BRANCH  22  23
HETATM   23  P1  UNL     1      17.218  13.580  -5.394  1.00  0.00     0.401 P 
HETATM   24  O5  UNL     1      18.132  14.701  -5.012  1.00  0.00    -0.631 OA
BRANCH  23  25
HETATM   25  O6  UNL     1      17.827  12.118  -5.104  1.00  0.00    -0.307 OA
HETATM   26  H23 UNL     1      18.417  11.826  -5.810  1.00  0.00     0.222 HD
ENDBRANCH  23  25
BRANCH  23  27
HETATM   27  O7  UNL     1      15.860  13.518  -4.568  1.00  0.00    -0.195 OA
BRANCH  27  28
HETATM   28  P2  UNL     1      15.803  14.197  -3.127  1.00  0.00     0.401 P 
HETATM   29  O8  UNL     1      15.887  15.688  -3.078  1.00  0.00    -0.631 OA
BRANCH  28  30
HETATM   30  O9  UNL     1      14.466  13.598  -2.492  1.00  0.00    -0.307 OA
HETATM   31  H24 UNL     1      14.460  13.584  -1.504  1.00  0.00     0.222 HD
ENDBRANCH  28  30
BRANCH  28  32
HETATM   32  O10 UNL     1      16.907  13.408  -2.285  1.00  0.00    -0.294 OA
BRANCH  32  33
HETATM   33  C14 UNL     1      16.993  13.589  -0.896  1.00  0.00     0.215 C 
BRANCH  33  34
HETATM   34  C15 UNL     1      18.478  13.517  -0.547  1.00  0.00     0.180 C 
HETATM   35  C16 UNL     1      19.297  14.205  -1.632  1.00  0.00     0.197 C 
HETATM   36  C17 UNL     1      20.173  13.108  -2.206  1.00  0.00     0.199 C 
HETATM   37  C18 UNL     1      20.267  12.124  -1.037  1.00  0.00     0.262 C 
HETATM   38  O11 UNL     1      18.959  12.174  -0.424  1.00  0.00    -0.353 OA
BRANCH  35  39
HETATM   39  O13 UNL     1      20.062  15.238  -1.019  1.00  0.00    -0.286 OA
BRANCH  39  40
HETATM   40  P3  UNL     1      19.936  16.681  -1.695  1.00  0.00     0.391 P 
HETATM   41  O14 UNL     1      21.176  17.126  -2.401  1.00  0.00    -0.632 OA
BRANCH  40  42
HETATM   42  O15 UNL     1      19.440  17.553  -0.448  1.00  0.00    -0.307 OA
HETATM   43  H36 UNL     1      18.485  17.784  -0.542  1.00  0.00     0.222 HD
ENDBRANCH  40  42
BRANCH  40  44
HETATM   44  O16 UNL     1      18.615  16.508  -2.564  1.00  0.00    -0.307 OA
HETATM   45  H37 UNL     1      18.216  17.357  -2.815  1.00  0.00     0.222 HD
ENDBRANCH  40  44
ENDBRANCH  39  40
ENDBRANCH  35  39
BRANCH  36  46
HETATM   46  O12 UNL     1      21.397  13.658  -2.700  1.00  0.00    -0.388 OA
HETATM   47  H35 UNL     1      21.817  14.128  -1.940  1.00  0.00     0.210 HD
ENDBRANCH  36  46
BRANCH  37  48
HETATM   48  N3  UNL     1      20.527  10.767  -1.471  1.00  0.00    -0.297 N 
HETATM   49  C19 UNL     1      19.600   9.783  -1.725  1.00  0.00     0.188 A 
HETATM   50  N4  UNL     1      20.149   8.698  -2.226  1.00  0.00    -0.346 N 
HETATM   51  C20 UNL     1      21.498   8.994  -2.306  1.00  0.00     0.116 A 
HETATM   52  H4  UNL     1      19.684   7.831  -2.496  1.00  0.00     0.167 HD
HETATM   53  C21 UNL     1      22.605   8.276  -2.790  1.00  0.00     0.109 A 
HETATM   54  C23 UNL     1      21.752  10.258  -1.805  1.00  0.00     0.142 A 
HETATM   55  N5  UNL     1      23.832   8.848  -2.720  1.00  0.00    -0.341 N 
HETATM   56  C22 UNL     1      23.931  10.080  -2.183  1.00  0.00     0.183 A 
HETATM   57  H5  UNL     1      24.658   8.358  -3.064  1.00  0.00     0.167 HD
HETATM   58  N6  UNL     1      22.947  10.864  -1.697  1.00  0.00    -0.336 N 
HETATM   59  H6  UNL     1      23.091  11.794  -1.302  1.00  0.00     0.168 HD
BRANCH  53  60
HETATM   60  N7  UNL     1      22.510   7.002  -3.329  1.00  0.00    -0.287 NA
HETATM   61  H33 UNL     1      21.563   6.631  -3.362  1.00  0.00     0.125 HD
HETATM   62  H34 UNL     1      23.233   6.378  -2.997  1.00  0.00     0.125 HD
ENDBRANCH  53  60
ENDBRANCH  37  48
ENDBRANCH  33  34
ENDBRANCH  32  33
ENDBRANCH  28  32
ENDBRANCH  27  28
ENDBRANCH  23  27
ENDBRANCH  22  23
ENDBRANCH  21  22
ENDBRANCH  18  21
ENDBRANCH  17  18
BRANCH  17  63
HETATM   63  O17 UNL     1      15.294  11.500  -8.210  1.00  0.00    -0.385 OA
HETATM   64  H38 UNL     1      14.905  10.652  -8.481  1.00  0.00     0.210 HD
ENDBRANCH  17  63
ENDBRANCH  14  17
ENDBRANCH  12  13
ENDBRANCH  11  12
ENDBRANCH   8  11
ENDBRANCH   6   7
ENDBRANCH   5   6
ENDBRANCH   4   5
ENDBRANCH   2   4
TORSDOF 27
ENDMDL
MODEL 15
REMARK VINA RESULT:      -2.6     11.381     15.062
REMARK  27 active torsions:
REMARK  status: ('A' for Active; 'I' for Inactive)
REMARK    1  A    between atoms: C2_2  and  S1_4 
REMARK    2  A    between atoms: S1_4  and  C3_5 
REMARK    3  A    between atoms: C3_5  and  C4_6 
REMARK    4  A    between atoms: C4_6  and  N1_7 
REMARK       I    between atoms: N1_7  and  C5_8 
REMARK    5  A    between atoms: C5_8  and  C6_10 
REMARK    6  A    between atoms: C6_10  and  C7_11 
REMARK    7  A    between atoms: C7_11  and  N2_12 
REMARK       I    between atoms: N2_12  and  C8_13 
REMARK    8  A    between atoms: C8_13  and  C9_15 
REMARK    9  A    between atoms: C9_15  and  C10_16 
REMARK   10  A    between atoms: C9_15  and  O17_54 
REMARK   11  A    between atoms: C10_16  and  C13_19 
REMARK   12  A    between atoms: C13_19  and  O4_20 
REMARK   13  A    between atoms: O4_20  and  P1_21 
REMARK   14  A    between atoms: P1_21  and  O6_23 
REMARK   15  A    between atoms: P1_21  and  O7_24 
REMARK   16  A    between atoms: O7_24  and  P2_25 
REMARK   17  A    between atoms: P2_25  and  O9_27 
REMARK   18  A    between atoms: P2_25  and  O10_28 
REMARK   19  A    between atoms: O10_28  and  C14_29 
REMARK   20  A    between atoms: C14_29  and  C15_30 
REMARK   21  A    between atoms: C16_31  and  O13_49 
REMARK   22  A    between atoms: C17_32  and  O12_48 
REMARK   23  A    between atoms: C18_33  and  N3_35 
REMARK   24  A    between atoms: C21_40  and  N7_47 
REMARK   25  A    between atoms: O13_49  and  P3_50 
REMARK   26  A    between atoms: P3_50  and  O15_52 
REMARK   27  A    between atoms: P3_50  and  O16_53 
ROOT
HETATM    1  C1  UNL     1      22.010   7.627  -0.840  1.00  0.00     0.104 C 
HETATM    2  C2  UNL     1      21.427   8.351  -2.015  1.00  0.00     0.182 C 
HETATM    3  O1  UNL     1      22.031   8.517  -3.072  1.00  0.00    -0.286 OA
ENDROOT
BRANCH   2   4
HETATM    4  S1  UNL     1      19.810   8.986  -1.745  1.00  0.00    -0.091 SA
BRANCH   4   5
HETATM    5  C3  UNL     1      20.214  10.587  -0.976  1.00  0.00     0.102 C 
BRANCH   5   6
HETATM    6  C4  UNL     1      18.985  11.243  -0.345  1.00  0.00     0.133 C 
BRANCH   6   7
HETATM    7  N1  UNL     1      18.788  12.608  -0.790  1.00  0.00    -0.360 N 
HETATM    8  C5  UNL     1      18.056  12.904  -1.916  1.00  0.00     0.219 C 
HETATM    9  O2  UNL     1      17.597  12.038  -2.651  1.00  0.00    -0.274 OA
HETATM   10  H8  UNL     1      19.197  13.359  -0.249  1.00  0.00     0.162 HD
BRANCH   8  11
HETATM   11  C6  UNL     1      17.926  14.390  -2.172  1.00  0.00     0.122 C 
BRANCH  11  12
HETATM   12  C7  UNL     1      17.014  14.686  -3.362  1.00  0.00     0.132 C 
BRANCH  12  13
HETATM   13  N2  UNL     1      17.620  15.570  -4.336  1.00  0.00    -0.358 N 
HETATM   14  C8  UNL     1      18.506  15.071  -5.273  1.00  0.00     0.247 C 
HETATM   15  O3  UNL     1      18.899  13.912  -5.246  1.00  0.00    -0.271 OA
HETATM   16  H13 UNL     1      17.057  16.373  -4.608  1.00  0.00     0.162 HD
BRANCH  14  17
HETATM   17  C9  UNL     1      18.935  16.076  -6.352  1.00  0.00     0.219 C 
BRANCH  17  18
HETATM   18  C10 UNL     1      20.303  16.759  -6.087  1.00  0.00     0.009 C 
HETATM   19  C11 UNL     1      20.587  16.921  -4.586  1.00  0.00     0.020 C 
HETATM   20  C12 UNL     1      21.465  15.956  -6.706  1.00  0.00     0.020 C 
BRANCH  18  21
HETATM   21  C13 UNL     1      20.217  18.160  -6.757  1.00  0.00     0.192 C 
BRANCH  21  22
HETATM   22  O4  UNL     1      20.302  18.089  -8.166  1.00  0.00    -0.296 OA
BRANCH  22  23
HETATM   23  P1  UNL     1      19.208  18.744  -9.139  1.00  0.00     0.401 P 
HETATM   24  O5  UNL     1      18.715  20.084  -8.691  1.00  0.00    -0.631 OA
BRANCH  23  25
HETATM   25  O6  UNL     1      18.041  17.652  -9.328  1.00  0.00    -0.307 OA
HETATM   26  H23 UNL     1      17.170  18.063  -9.405  1.00  0.00     0.222 HD
ENDBRANCH  23  25
BRANCH  23  27
HETATM   27  O7  UNL     1      19.880  18.730 -10.581  1.00  0.00    -0.195 OA
BRANCH  27  28
HETATM   28  P2  UNL     1      20.808  17.501 -10.986  1.00  0.00     0.401 P 
HETATM   29  O8  UNL     1      22.285  17.706 -10.886  1.00  0.00    -0.631 OA
BRANCH  28  30
HETATM   30  O9  UNL     1      20.254  16.308 -10.081  1.00  0.00    -0.307 OA
HETATM   31  H24 UNL     1      19.452  15.862 -10.448  1.00  0.00     0.222 HD
ENDBRANCH  28  30
BRANCH  28  32
HETATM   32  O10 UNL     1      20.261  17.060 -12.420  1.00  0.00    -0.294 OA
BRANCH  32  33
HETATM   33  C14 UNL     1      18.937  17.349 -12.786  1.00  0.00     0.215 C 
BRANCH  33  34
HETATM   34  C15 UNL     1      18.205  16.009 -12.833  1.00  0.00     0.180 C 
HETATM   35  C16 UNL     1      16.887  16.168 -13.580  1.00  0.00     0.197 C 
HETATM   36  C17 UNL     1      15.821  15.833 -12.554  1.00  0.00     0.199 C 
HETATM   37  C18 UNL     1      16.580  14.923 -11.585  1.00  0.00     0.262 C 
HETATM   38  O11 UNL     1      17.909  15.488 -11.533  1.00  0.00    -0.353 OA
BRANCH  35  39
HETATM   39  O13 UNL     1      16.886  15.255 -14.672  1.00  0.00    -0.286 OA
BRANCH  39  40
HETATM   40  P3  UNL     1      16.584  15.896 -16.106  1.00  0.00     0.391 P 
HETATM   41  O14 UNL     1      17.480  15.394 -17.191  1.00  0.00    -0.632 OA
BRANCH  40  42
HETATM   42  O15 UNL     1      16.646  17.456 -15.755  1.00  0.00    -0.307 OA
HETATM   43  H36 UNL     1      16.825  17.590 -14.794  1.00  0.00     0.222 HD
ENDBRANCH  40  42
BRANCH  40  44
HETATM   44  O16 UNL     1      15.024  15.620 -16.251  1.00  0.00    -0.307 OA
HETATM   45  H37 UNL     1      14.650  15.162 -15.483  1.00  0.00     0.222 HD
ENDBRANCH  40  44
ENDBRANCH  39  40
ENDBRANCH  35  39
BRANCH  36  46
HETATM   46  O12 UNL     1      14.666  15.288 -13.198  1.00  0.00    -0.388 OA
HETATM   47  H35 UNL     1      14.493  14.417 -12.768  1.00  0.00     0.210 HD
ENDBRANCH  36  46
BRANCH  37  48
HETATM   48  N3  UNL     1      16.015  14.936 -10.251  1.00  0.00    -0.297 N 
HETATM   49  C19 UNL     1      14.966  15.703  -9.800  1.00  0.00     0.188 A 
HETATM   50  N4  UNL     1      14.610  15.389  -8.573  1.00  0.00    -0.346 N 
HETATM   51  C20 UNL     1      15.468  14.365  -8.212  1.00  0.00     0.116 A 
HETATM   52  H4  UNL     1      13.868  15.807  -8.012  1.00  0.00     0.167 HD
HETATM   53  C21 UNL     1      15.577  13.577  -7.053  1.00  0.00     0.109 A 
HETATM   54  C23 UNL     1      16.369  14.101  -9.228  1.00  0.00     0.142 A 
HETATM   55  N5  UNL     1      16.552  12.637  -6.997  1.00  0.00    -0.341 N 
HETATM   56  C22 UNL     1      17.375  12.507  -8.056  1.00  0.00     0.183 A 
HETATM   57  H5  UNL     1      16.660  12.044  -6.174  1.00  0.00     0.167 HD
HETATM   58  N6  UNL     1      17.362  13.194  -9.216  1.00  0.00    -0.336 N 
HETATM   59  H6  UNL     1      18.018  13.046  -9.984  1.00  0.00     0.168 HD
BRANCH  53  60
HETATM   60  N7  UNL     1      14.743  13.717  -5.955  1.00  0.00    -0.287 NA
HETATM   61  H33 UNL     1      14.219  14.589  -5.936  1.00  0.00     0.125 HD
HETATM   62  H34 UNL     1      15.178  13.427  -5.090  1.00  0.00     0.125 HD
ENDBRANCH  53  60
ENDBRANCH  37  48
ENDBRANCH  33  34
ENDBRANCH  32  33
ENDBRANCH  28  32
ENDBRANCH  27  28
ENDBRANCH  23  27
ENDBRANCH  22  23
ENDBRANCH  21  22
ENDBRANCH  18  21
ENDBRANCH  17  18
BRANCH  17  63
HETATM   63  O17 UNL     1      18.988  15.434  -7.631  1.00  0.00    -0.385 OA
HETATM   64  H38 UNL     1      19.447  16.028  -8.248  1.00  0.00     0.210 HD
ENDBRANCH  17  63
ENDBRANCH  14  17
ENDBRANCH  12  13
ENDBRANCH  11  12
ENDBRANCH   8  11
ENDBRANCH   6   7
ENDBRANCH   5   6
ENDBRANCH   4   5
ENDBRANCH   2   4
TORSDOF 27
ENDMDL
MODEL 16
REMARK VINA RESULT:      -2.6      4.572      9.023
REMARK  27 active torsions:
REMARK  status: ('A' for Active; 'I' for Inactive)
REMARK    1  A    between atoms: C2_2  and  S1_4 
REMARK    2  A    between atoms: S1_4  and  C3_5 
REMARK    3  A    between atoms: C3_5  and  C4_6 
REMARK    4  A    between atoms: C4_6  and  N1_7 
REMARK       I    between atoms: N1_7  and  C5_8 
REMARK    5  A    between atoms: C5_8  and  C6_10 
REMARK    6  A    between atoms: C6_10  and  C7_11 
REMARK    7  A    between atoms: C7_11  and  N2_12 
REMARK       I    between atoms: N2_12  and  C8_13 
REMARK    8  A    between atoms: C8_13  and  C9_15 
REMARK    9  A    between atoms: C9_15  and  C10_16 
REMARK   10  A    between atoms: C9_15  and  O17_54 
REMARK   11  A    between atoms: C10_16  and  C13_19 
REMARK   12  A    between atoms: C13_19  and  O4_20 
REMARK   13  A    between atoms: O4_20  and  P1_21 
REMARK   14  A    between atoms: P1_21  and  O6_23 
REMARK   15  A    between atoms: P1_21  and  O7_24 
REMARK   16  A    between atoms: O7_24  and  P2_25 
REMARK   17  A    between atoms: P2_25  and  O9_27 
REMARK   18  A    between atoms: P2_25  and  O10_28 
REMARK   19  A    between atoms: O10_28  and  C14_29 
REMARK   20  A    between atoms: C14_29  and  C15_30 
REMARK   21  A    between atoms: C16_31  and  O13_49 
REMARK   22  A    between atoms: C17_32  and  O12_48 
REMARK   23  A    between atoms: C18_33  and  N3_35 
REMARK   24  A    between atoms: C21_40  and  N7_47 
REMARK   25  A    between atoms: O13_49  and  P3_50 
REMARK   26  A    between atoms: P3_50  and  O15_52 
REMARK   27  A    between atoms: P3_50  and  O16_53 
ROOT
HETATM    1  C1  UNL     1      25.235   9.609   2.653  1.00  0.00     0.104 C 
HETATM    2  C2  UNL     1      24.235   9.204   1.613  1.00  0.00     0.182 C 
HETATM    3  O1  UNL     1      24.320   8.163   0.966  1.00  0.00    -0.286 OA
ENDROOT
BRANCH   2   4
HETATM    4  S1  UNL     1      22.939  10.365   1.362  1.00  0.00    -0.091 SA
BRANCH   4   5
HETATM    5  C3  UNL     1      23.447  11.076  -0.237  1.00  0.00     0.102 C 
BRANCH   5   6
HETATM    6  C4  UNL     1      22.673  10.462  -1.405  1.00  0.00     0.133 C 
BRANCH   6   7
HETATM    7  N1  UNL     1      22.837   9.026  -1.491  1.00  0.00    -0.360 N 
HETATM    8  C5  UNL     1      21.966   8.240  -2.210  1.00  0.00     0.219 C 
HETATM    9  O2  UNL     1      20.962   8.690  -2.749  1.00  0.00    -0.274 OA
HETATM   10  H8  UNL     1      23.618   8.596  -1.015  1.00  0.00     0.162 HD
BRANCH   8  11
HETATM   11  C6  UNL     1      22.347   6.775  -2.217  1.00  0.00     0.122 C 
BRANCH  11  12
HETATM   12  C7  UNL     1      23.173   6.407  -3.449  1.00  0.00     0.132 C 
BRANCH  12  13
HETATM   13  N2  UNL     1      24.417   5.742  -3.121  1.00  0.00    -0.358 N 
HETATM   14  C8  UNL     1      24.692   4.487  -3.633  1.00  0.00     0.247 C 
HETATM   15  O3  UNL     1      23.866   3.848  -4.272  1.00  0.00    -0.271 OA
HETATM   16  H13 UNL     1      25.209   6.357  -2.944  1.00  0.00     0.162 HD
BRANCH  14  17
HETATM   17  C9  UNL     1      26.113   3.975  -3.352  1.00  0.00     0.219 C 
BRANCH  17  18
HETATM   18  C10 UNL     1      26.952   3.679  -4.623  1.00  0.00     0.009 C 
HETATM   19  C11 UNL     1      28.461   3.700  -4.338  1.00  0.00     0.020 C 
HETATM   20  C12 UNL     1      26.601   2.303  -5.225  1.00  0.00     0.020 C 
BRANCH  18  21
HETATM   21  C13 UNL     1      26.597   4.802  -5.640  1.00  0.00     0.192 C 
BRANCH  21  22
HETATM   22  O4  UNL     1      26.281   4.291  -6.919  1.00  0.00    -0.296 OA
BRANCH  22  23
HETATM   23  P1  UNL     1      27.161   4.603  -8.223  1.00  0.00     0.401 P 
HETATM   24  O5  UNL     1      26.742   3.842  -9.440  1.00  0.00    -0.631 OA
BRANCH  23  25
HETATM   25  O6  UNL     1      28.700   4.375  -7.811  1.00  0.00    -0.307 OA
HETATM   26  H23 UNL     1      29.046   3.540  -8.152  1.00  0.00     0.222 HD
ENDBRANCH  23  25
BRANCH  23  27
HETATM   27  O7  UNL     1      27.115   6.186  -8.380  1.00  0.00    -0.195 OA
BRANCH  27  28
HETATM   28  P2  UNL     1      27.871   6.860  -9.609  1.00  0.00     0.401 P 
HETATM   29  O8  UNL     1      29.312   6.511  -9.791  1.00  0.00    -0.631 OA
BRANCH  28  30
HETATM   30  O9  UNL     1      26.948   6.487 -10.857  1.00  0.00    -0.307 OA
HETATM   31  H24 UNL     1      26.751   5.522 -10.938  1.00  0.00     0.222 HD
ENDBRANCH  28  30
BRANCH  28  32
HETATM   32  O10 UNL     1      27.545   8.416  -9.457  1.00  0.00    -0.294 OA
BRANCH  32  33
HETATM   33  C14 UNL     1      28.578   9.328  -9.190  1.00  0.00     0.215 C 
BRANCH  33  34
HETATM   34  C15 UNL     1      27.900  10.619  -8.735  1.00  0.00     0.180 C 
HETATM   35  C16 UNL     1      28.953  11.619  -8.275  1.00  0.00     0.197 C 
HETATM   36  C17 UNL     1      28.644  11.855  -6.809  1.00  0.00     0.199 C 
HETATM   37  C18 UNL     1      27.151  11.525  -6.737  1.00  0.00     0.262 C 
HETATM   38  O11 UNL     1      26.986  10.419  -7.652  1.00  0.00    -0.353 OA
BRANCH  35  39
HETATM   39  O13 UNL     1      28.807  12.803  -9.052  1.00  0.00    -0.286 OA
BRANCH  39  40
HETATM   40  P3  UNL     1      29.946  13.055 -10.145  1.00  0.00     0.391 P 
HETATM   41  O14 UNL     1      30.914  11.925 -10.278  1.00  0.00    -0.632 OA
BRANCH  40  42
HETATM   42  O15 UNL     1      30.519  14.468  -9.659  1.00  0.00    -0.307 OA
HETATM   43  H36 UNL     1      30.732  15.042 -10.433  1.00  0.00     0.222 HD
ENDBRANCH  40  42
BRANCH  40  44
HETATM   44  O16 UNL     1      29.078  13.436 -11.422  1.00  0.00    -0.307 OA
HETATM   45  H37 UNL     1      29.622  13.697 -12.182  1.00  0.00     0.222 HD
ENDBRANCH  40  44
ENDBRANCH  39  40
ENDBRANCH  35  39
BRANCH  36  46
HETATM   46  O12 UNL     1      29.044  13.173  -6.423  1.00  0.00    -0.388 OA
HETATM   47  H35 UNL     1      29.848  13.066  -5.861  1.00  0.00     0.210 HD
ENDBRANCH  36  46
BRANCH  37  48
HETATM   48  N3  UNL     1      26.738  11.101  -5.414  1.00  0.00    -0.297 N 
HETATM   49  C19 UNL     1      25.868  11.748  -4.567  1.00  0.00     0.188 A 
HETATM   50  N4  UNL     1      25.602  11.041  -3.491  1.00  0.00    -0.346 N 
HETATM   51  C20 UNL     1      26.331   9.876  -3.649  1.00  0.00     0.116 A 
HETATM   52  H4  UNL     1      24.993  11.295  -2.712  1.00  0.00     0.167 HD
HETATM   53  C21 UNL     1      26.443   8.709  -2.873  1.00  0.00     0.109 A 
HETATM   54  C23 UNL     1      27.070   9.917  -4.817  1.00  0.00     0.142 A 
HETATM   55  N5  UNL     1      27.268   7.722  -3.301  1.00  0.00    -0.341 N 
HETATM   56  C22 UNL     1      27.946   7.911  -4.450  1.00  0.00     0.183 A 
HETATM   57  H5  UNL     1      27.373   6.860  -2.767  1.00  0.00     0.167 HD
HETATM   58  N6  UNL     1      27.913   8.975  -5.278  1.00  0.00    -0.336 N 
HETATM   59  H6  UNL     1      28.455   9.056  -6.139  1.00  0.00     0.168 HD
BRANCH  53  60
HETATM   60  N7  UNL     1      25.760   8.516  -1.683  1.00  0.00    -0.287 NA
HETATM   61  H33 UNL     1      26.121   9.057  -0.900  1.00  0.00     0.125 HD
HETATM   62  H34 UNL     1      25.544   7.545  -1.505  1.00  0.00     0.125 HD
ENDBRANCH  53  60
ENDBRANCH  37  48
ENDBRANCH  33  34
ENDBRANCH  32  33
ENDBRANCH  28  32
ENDBRANCH  27  28
ENDBRANCH  23  27
ENDBRANCH  22  23
ENDBRANCH  21  22
ENDBRANCH  18  21
ENDBRANCH  17  18
BRANCH  17  63
HETATM   63  O17 UNL     1      26.827   4.918  -2.546  1.00  0.00    -0.385 OA
HETATM   64  H38 UNL     1      27.740   4.601  -2.448  1.00  0.00     0.210 HD
ENDBRANCH  17  63
ENDBRANCH  14  17
ENDBRANCH  12  13
ENDBRANCH  11  12
ENDBRANCH   8  11
ENDBRANCH   6   7
ENDBRANCH   5   6
ENDBRANCH   4   5
ENDBRANCH   2   4
TORSDOF 27
ENDMDL
MODEL 17
REMARK VINA RESULT:      -2.5      4.283      8.443
REMARK  27 active torsions:
REMARK  status: ('A' for Active; 'I' for Inactive)
REMARK    1  A    between atoms: C2_2  and  S1_4 
REMARK    2  A    between atoms: S1_4  and  C3_5 
REMARK    3  A    between atoms: C3_5  and  C4_6 
REMARK    4  A    between atoms: C4_6  and  N1_7 
REMARK       I    between atoms: N1_7  and  C5_8 
REMARK    5  A    between atoms: C5_8  and  C6_10 
REMARK    6  A    between atoms: C6_10  and  C7_11 
REMARK    7  A    between atoms: C7_11  and  N2_12 
REMARK       I    between atoms: N2_12  and  C8_13 
REMARK    8  A    between atoms: C8_13  and  C9_15 
REMARK    9  A    between atoms: C9_15  and  C10_16 
REMARK   10  A    between atoms: C9_15  and  O17_54 
REMARK   11  A    between atoms: C10_16  and  C13_19 
REMARK   12  A    between atoms: C13_19  and  O4_20 
REMARK   13  A    between atoms: O4_20  and  P1_21 
REMARK   14  A    between atoms: P1_21  and  O6_23 
REMARK   15  A    between atoms: P1_21  and  O7_24 
REMARK   16  A    between atoms: O7_24  and  P2_25 
REMARK   17  A    between atoms: P2_25  and  O9_27 
REMARK   18  A    between atoms: P2_25  and  O10_28 
REMARK   19  A    between atoms: O10_28  and  C14_29 
REMARK   20  A    between atoms: C14_29  and  C15_30 
REMARK   21  A    between atoms: C16_31  and  O13_49 
REMARK   22  A    between atoms: C17_32  and  O12_48 
REMARK   23  A    between atoms: C18_33  and  N3_35 
REMARK   24  A    between atoms: C21_40  and  N7_47 
REMARK   25  A    between atoms: O13_49  and  P3_50 
REMARK   26  A    between atoms: P3_50  and  O15_52 
REMARK   27  A    between atoms: P3_50  and  O16_53 
ROOT
HETATM    1  C1  UNL     1      28.562   0.179  -8.410  1.00  0.00     0.104 C 
HETATM    2  C2  UNL     1      29.425   0.827  -7.370  1.00  0.00     0.182 C 
HETATM    3  O1  UNL     1      29.533   2.045  -7.247  1.00  0.00    -0.286 OA
ENDROOT
BRANCH   2   4
HETATM    4  S1  UNL     1      30.312  -0.303  -6.357  1.00  0.00    -0.091 SA
BRANCH   4   5
HETATM    5  C3  UNL     1      30.689   0.768  -4.932  1.00  0.00     0.102 C 
BRANCH   5   6
HETATM    6  C4  UNL     1      32.105   1.342  -5.010  1.00  0.00     0.133 C 
BRANCH   6   7
HETATM    7  N1  UNL     1      32.187   2.515  -5.856  1.00  0.00    -0.360 N 
HETATM    8  C5  UNL     1      33.233   2.706  -6.729  1.00  0.00     0.219 C 
HETATM    9  O2  UNL     1      34.192   1.945  -6.787  1.00  0.00    -0.274 OA
HETATM   10  H8  UNL     1      31.449   3.205  -5.804  1.00  0.00     0.162 HD
BRANCH   8  11
HETATM   11  C6  UNL     1      33.098   3.964  -7.559  1.00  0.00     0.122 C 
BRANCH  11  12
HETATM   12  C7  UNL     1      32.316   3.718  -8.848  1.00  0.00     0.132 C 
BRANCH  12  13
HETATM   13  N2  UNL     1      30.930   4.128  -8.759  1.00  0.00    -0.358 N 
HETATM   14  C8  UNL     1      30.553   5.398  -9.153  1.00  0.00     0.247 C 
HETATM   15  O3  UNL     1      31.371   6.251  -9.474  1.00  0.00    -0.271 OA
HETATM   16  H13 UNL     1      30.245   3.383  -8.869  1.00  0.00     0.162 HD
BRANCH  14  17
HETATM   17  C9  UNL     1      29.037   5.642  -9.175  1.00  0.00     0.219 C 
BRANCH  17  18
HETATM   18  C10 UNL     1      28.409   5.912  -7.782  1.00  0.00     0.009 C 
HETATM   19  C11 UNL     1      27.517   4.753  -7.315  1.00  0.00     0.020 C 
HETATM   20  C12 UNL     1      29.493   6.139  -6.708  1.00  0.00     0.020 C 
BRANCH  18  21
HETATM   21  C13 UNL     1      27.551   7.200  -7.942  1.00  0.00     0.192 C 
BRANCH  21  22
HETATM   22  O4  UNL     1      28.239   8.361  -7.523  1.00  0.00    -0.296 OA
BRANCH  22  23
HETATM   23  P1  UNL     1      27.912   9.822  -8.097  1.00  0.00     0.401 P 
HETATM   24  O5  UNL     1      26.654  10.424  -7.556  1.00  0.00    -0.631 OA
BRANCH  23  25
HETATM   25  O6  UNL     1      27.940   9.708  -9.703  1.00  0.00    -0.307 OA
HETATM   26  H23 UNL     1      27.228  10.214 -10.113  1.00  0.00     0.222 HD
ENDBRANCH  23  25
BRANCH  23  27
HETATM   27  O7  UNL     1      29.228  10.674  -7.825  1.00  0.00    -0.195 OA
BRANCH  27  28
HETATM   28  P2  UNL     1      30.649   9.997  -8.072  1.00  0.00     0.401 P 
HETATM   29  O8  UNL     1      31.347   9.433  -6.878  1.00  0.00    -0.631 OA
BRANCH  28  30
HETATM   30  O9  UNL     1      30.350   8.926  -9.218  1.00  0.00    -0.307 OA
HETATM   31  H24 UNL     1      30.964   8.980  -9.991  1.00  0.00     0.222 HD
ENDBRANCH  28  30
BRANCH  28  32
HETATM   32  O10 UNL     1      31.461  11.095  -8.901  1.00  0.00    -0.294 OA
BRANCH  32  33
HETATM   33  C14 UNL     1      30.901  11.655 -10.060  1.00  0.00     0.215 C 
BRANCH  33  34
HETATM   34  C15 UNL     1      31.233  13.146 -10.016  1.00  0.00     0.180 C 
HETATM   35  C16 UNL     1      30.774  13.737  -8.689  1.00  0.00     0.197 C 
HETATM   36  C17 UNL     1      29.733  14.773  -9.070  1.00  0.00     0.199 C 
HETATM   37  C18 UNL     1      30.147  15.137 -10.498  1.00  0.00     0.262 C 
HETATM   38  O11 UNL     1      30.605  13.890 -11.066  1.00  0.00    -0.353 OA
BRANCH  35  39
HETATM   39  O13 UNL     1      31.905  14.322  -8.052  1.00  0.00    -0.286 OA
BRANCH  39  40
HETATM   40  P3  UNL     1      32.128  13.905  -6.525  1.00  0.00     0.391 P 
HETATM   41  O14 UNL     1      33.560  13.677  -6.166  1.00  0.00    -0.632 OA
BRANCH  40  42
HETATM   42  O15 UNL     1      31.128  12.662  -6.406  1.00  0.00    -0.307 OA
HETATM   43  H36 UNL     1      31.551  11.839  -6.749  1.00  0.00     0.222 HD
ENDBRANCH  40  42
BRANCH  40  44
HETATM   44  O16 UNL     1      31.353  15.067  -5.764  1.00  0.00    -0.307 OA
HETATM   45  H37 UNL     1      30.800  14.737  -5.038  1.00  0.00     0.222 HD
ENDBRANCH  40  44
ENDBRANCH  39  40
ENDBRANCH  35  39
BRANCH  36  46
HETATM   46  O12 UNL     1      29.706  15.827  -8.105  1.00  0.00    -0.388 OA
HETATM   47  H35 UNL     1      28.785  16.182  -8.106  1.00  0.00     0.210 HD
ENDBRANCH  36  46
BRANCH  37  48
HETATM   48  N3  UNL     1      29.039  15.631 -11.290  1.00  0.00    -0.297 N 
HETATM   49  C19 UNL     1      27.890  16.232 -10.830  1.00  0.00     0.188 A 
HETATM   50  N4  UNL     1      27.136  16.682 -11.808  1.00  0.00    -0.346 N 
HETATM   51  C20 UNL     1      27.832  16.361 -12.961  1.00  0.00     0.116 A 
HETATM   52  H4  UNL     1      26.239  17.161 -11.735  1.00  0.00     0.167 HD
HETATM   53  C21 UNL     1      27.583  16.604 -14.323  1.00  0.00     0.109 A 
HETATM   54  C23 UNL     1      28.993  15.675 -12.656  1.00  0.00     0.142 A 
HETATM   55  N5  UNL     1      28.471  16.142 -15.237  1.00  0.00    -0.341 N 
HETATM   56  C22 UNL     1      29.550  15.467 -14.794  1.00  0.00     0.183 A 
HETATM   57  H5  UNL     1      28.326  16.302 -16.234  1.00  0.00     0.167 HD
HETATM   58  N6  UNL     1      29.896  15.183 -13.522  1.00  0.00    -0.336 N 
HETATM   59  H6  UNL     1      30.732  14.664 -13.252  1.00  0.00     0.168 HD
BRANCH  53  60
HETATM   60  N7  UNL     1      26.467  17.285 -14.784  1.00  0.00    -0.287 NA
HETATM   61  H33 UNL     1      25.935  16.785 -15.493  1.00  0.00     0.125 HD
HETATM   62  H34 UNL     1      26.646  18.265 -14.955  1.00  0.00     0.125 HD
ENDBRANCH  53  60
ENDBRANCH  37  48
ENDBRANCH  33  34
ENDBRANCH  32  33
ENDBRANCH  28  32
ENDBRANCH  27  28
ENDBRANCH  23  27
ENDBRANCH  22  23
ENDBRANCH  21  22
ENDBRANCH  18  21
ENDBRANCH  17  18
BRANCH  17  63
HETATM   63  O17 UNL     1      28.727   6.745 -10.034  1.00  0.00    -0.385 OA
HETATM   64  H38 UNL     1      28.317   7.442  -9.495  1.00  0.00     0.210 HD
ENDBRANCH  17  63
ENDBRANCH  14  17
ENDBRANCH  12  13
ENDBRANCH  11  12
ENDBRANCH   8  11
ENDBRANCH   6   7
ENDBRANCH   5   6
ENDBRANCH   4   5
ENDBRANCH   2   4
TORSDOF 27
ENDMDL
MODEL 18
REMARK VINA RESULT:      -2.5     12.307     15.617
REMARK  27 active torsions:
REMARK  status: ('A' for Active; 'I' for Inactive)
REMARK    1  A    between atoms: C2_2  and  S1_4 
REMARK    2  A    between atoms: S1_4  and  C3_5 
REMARK    3  A    between atoms: C3_5  and  C4_6 
REMARK    4  A    between atoms: C4_6  and  N1_7 
REMARK       I    between atoms: N1_7  and  C5_8 
REMARK    5  A    between atoms: C5_8  and  C6_10 
REMARK    6  A    between atoms: C6_10  and  C7_11 
REMARK    7  A    between atoms: C7_11  and  N2_12 
REMARK       I    between atoms: N2_12  and  C8_13 
REMARK    8  A    between atoms: C8_13  and  C9_15 
REMARK    9  A    between atoms: C9_15  and  C10_16 
REMARK   10  A    between atoms: C9_15  and  O17_54 
REMARK   11  A    between atoms: C10_16  and  C13_19 
REMARK   12  A    between atoms: C13_19  and  O4_20 
REMARK   13  A    between atoms: O4_20  and  P1_21 
REMARK   14  A    between atoms: P1_21  and  O6_23 
REMARK   15  A    between atoms: P1_21  and  O7_24 
REMARK   16  A    between atoms: O7_24  and  P2_25 
REMARK   17  A    between atoms: P2_25  and  O9_27 
REMARK   18  A    between atoms: P2_25  and  O10_28 
REMARK   19  A    between atoms: O10_28  and  C14_29 
REMARK   20  A    between atoms: C14_29  and  C15_30 
REMARK   21  A    between atoms: C16_31  and  O13_49 
REMARK   22  A    between atoms: C17_32  and  O12_48 
REMARK   23  A    between atoms: C18_33  and  N3_35 
REMARK   24  A    between atoms: C21_40  and  N7_47 
REMARK   25  A    between atoms: O13_49  and  P3_50 
REMARK   26  A    between atoms: P3_50  and  O15_52 
REMARK   27  A    between atoms: P3_50  and  O16_53 
ROOT
HETATM    1  C1  UNL     1      16.247   7.829  -1.443  1.00  0.00     0.104 C 
HETATM    2  C2  UNL     1      15.006   8.063  -0.637  1.00  0.00     0.182 C 
HETATM    3  O1  UNL     1      14.909   7.768   0.552  1.00  0.00    -0.286 OA
ENDROOT
BRANCH   2   4
HETATM    4  S1  UNL     1      13.673   8.764  -1.544  1.00  0.00    -0.091 SA
BRANCH   4   5
HETATM    5  C3  UNL     1      13.331  10.239  -0.530  1.00  0.00     0.102 C 
BRANCH   5   6
HETATM    6  C4  UNL     1      12.455  11.250  -1.271  1.00  0.00     0.133 C 
BRANCH   6   7
HETATM    7  N1  UNL     1      12.541  11.115  -2.711  1.00  0.00    -0.360 N 
HETATM    8  C5  UNL     1      11.417  11.007  -3.496  1.00  0.00     0.219 C 
HETATM    9  O2  UNL     1      10.287  10.938  -3.026  1.00  0.00    -0.274 OA
HETATM   10  H8  UNL     1      13.454  11.107  -3.145  1.00  0.00     0.162 HD
BRANCH   8  11
HETATM   11  C6  UNL     1      11.725  10.932  -4.976  1.00  0.00     0.122 C 
BRANCH  11  12
HETATM   12  C7  UNL     1      12.747  11.986  -5.401  1.00  0.00     0.132 C 
BRANCH  12  13
HETATM   13  N2  UNL     1      13.537  11.582  -6.545  1.00  0.00    -0.358 N 
HETATM   14  C8  UNL     1      13.944  12.519  -7.477  1.00  0.00     0.247 C 
HETATM   15  O3  UNL     1      13.562  13.682  -7.441  1.00  0.00    -0.271 OA
HETATM   16  H13 UNL     1      14.144  10.779  -6.396  1.00  0.00     0.162 HD
BRANCH  14  17
HETATM   17  C9  UNL     1      14.920  11.990  -8.538  1.00  0.00     0.219 C 
BRANCH  17  18
HETATM   18  C10 UNL     1      16.356  12.567  -8.435  1.00  0.00     0.009 C 
HETATM   19  C11 UNL     1      16.612  13.243  -7.080  1.00  0.00     0.020 C 
HETATM   20  C12 UNL     1      17.421  11.469  -8.627  1.00  0.00     0.020 C 
BRANCH  18  21
HETATM   21  C13 UNL     1      16.476  13.619  -9.575  1.00  0.00     0.192 C 
BRANCH  21  22
HETATM   22  O4  UNL     1      16.784  14.909  -9.086  1.00  0.00    -0.296 OA
BRANCH  22  23
HETATM   23  P1  UNL     1      17.608  15.990  -9.938  1.00  0.00     0.401 P 
HETATM   24  O5  UNL     1      16.796  17.164 -10.385  1.00  0.00    -0.631 OA
BRANCH  23  25
HETATM   25  O6  UNL     1      18.314  15.191 -11.143  1.00  0.00    -0.307 OA
HETATM   26  H23 UNL     1      18.560  14.292 -10.887  1.00  0.00     0.222 HD
ENDBRANCH  23  25
BRANCH  23  27
HETATM   27  O7  UNL     1      18.863  16.356  -9.032  1.00  0.00    -0.195 OA
BRANCH  27  28
HETATM   28  P2  UNL     1      20.198  16.866  -9.736  1.00  0.00     0.401 P 
HETATM   29  O8  UNL     1      21.084  15.826 -10.341  1.00  0.00    -0.631 OA
BRANCH  28  30
HETATM   30  O9  UNL     1      19.670  17.956 -10.776  1.00  0.00    -0.307 OA
HETATM   31  H24 UNL     1      18.702  18.144 -10.708  1.00  0.00     0.222 HD
ENDBRANCH  28  30
BRANCH  28  32
HETATM   32  O10 UNL     1      20.877  17.808  -8.641  1.00  0.00    -0.294 OA
BRANCH  32  33
HETATM   33  C14 UNL     1      20.081  18.647  -7.845  1.00  0.00     0.215 C 
BRANCH  33  34
HETATM   34  C15 UNL     1      20.395  18.283  -6.395  1.00  0.00     0.180 C 
HETATM   35  C16 UNL     1      21.212  16.999  -6.351  1.00  0.00     0.197 C 
HETATM   36  C17 UNL     1      20.341  16.015  -5.594  1.00  0.00     0.199 C 
HETATM   37  C18 UNL     1      19.467  16.943  -4.746  1.00  0.00     0.262 C 
HETATM   38  O11 UNL     1      19.220  18.080  -5.602  1.00  0.00    -0.353 OA
BRANCH  35  39
HETATM   39  O13 UNL     1      22.430  17.274  -5.666  1.00  0.00    -0.286 OA
BRANCH  39  40
HETATM   40  P3  UNL     1      23.767  16.911  -6.465  1.00  0.00     0.391 P 
HETATM   41  O14 UNL     1      25.017  17.111  -5.671  1.00  0.00    -0.632 OA
BRANCH  40  42
HETATM   42  O15 UNL     1      23.577  17.797  -7.784  1.00  0.00    -0.307 OA
HETATM   43  H36 UNL     1      23.155  18.661  -7.565  1.00  0.00     0.222 HD
ENDBRANCH  40  42
BRANCH  40  44
HETATM   44  O16 UNL     1      23.442  15.438  -6.969  1.00  0.00    -0.307 OA
HETATM   45  H37 UNL     1      24.209  15.001  -7.373  1.00  0.00     0.222 HD
ENDBRANCH  40  44
ENDBRANCH  39  40
ENDBRANCH  35  39
BRANCH  36  46
HETATM   46  O12 UNL     1      21.153  15.064  -4.901  1.00  0.00    -0.388 OA
HETATM   47  H35 UNL     1      21.571  14.499  -5.593  1.00  0.00     0.210 HD
ENDBRANCH  36  46
BRANCH  37  48
HETATM   48  N3  UNL     1      18.197  16.341  -4.391  1.00  0.00    -0.297 N 
HETATM   49  C19 UNL     1      17.874  15.719  -3.208  1.00  0.00     0.188 A 
HETATM   50  N4  UNL     1      16.602  15.391  -3.149  1.00  0.00    -0.346 N 
HETATM   51  C20 UNL     1      16.073  15.827  -4.351  1.00  0.00     0.116 A 
HETATM   52  H4  UNL     1      16.113  14.921  -2.387  1.00  0.00     0.167 HD
HETATM   53  C21 UNL     1      14.770  15.813  -4.880  1.00  0.00     0.109 A 
HETATM   54  C23 UNL     1      17.059  16.382  -5.146  1.00  0.00     0.142 A 
HETATM   55  N5  UNL     1      14.569  16.317  -6.122  1.00  0.00    -0.341 N 
HETATM   56  C22 UNL     1      15.631  16.805  -6.792  1.00  0.00     0.183 A 
HETATM   57  H5  UNL     1      13.637  16.327  -6.537  1.00  0.00     0.167 HD
HETATM   58  N6  UNL     1      16.915  16.880  -6.387  1.00  0.00    -0.336 N 
HETATM   59  H6  UNL     1      17.677  17.263  -6.947  1.00  0.00     0.168 HD
BRANCH  53  60
HETATM   60  N7  UNL     1      13.677  15.299  -4.201  1.00  0.00    -0.287 NA
HETATM   61  H33 UNL     1      12.789  15.422  -4.682  1.00  0.00     0.125 HD
HETATM   62  H34 UNL     1      13.693  15.509  -3.212  1.00  0.00     0.125 HD
ENDBRANCH  53  60
ENDBRANCH  37  48
ENDBRANCH  33  34
ENDBRANCH  32  33
ENDBRANCH  28  32
ENDBRANCH  27  28
ENDBRANCH  23  27
ENDBRANCH  22  23
ENDBRANCH  21  22
ENDBRANCH  18  21
ENDBRANCH  17  18
BRANCH  17  63
HETATM   63  O17 UNL     1      14.997  10.562  -8.469  1.00  0.00    -0.385 OA
HETATM   64  H38 UNL     1      15.615  10.260  -9.156  1.00  0.00     0.210 HD
ENDBRANCH  17  63
ENDBRANCH  14  17
ENDBRANCH  12  13
ENDBRANCH  11  12
ENDBRANCH   8  11
ENDBRANCH   6   7
ENDBRANCH   5   6
ENDBRANCH   4   5
ENDBRANCH   2   4
TORSDOF 27
ENDMDL
MODEL 19
REMARK VINA RESULT:      -2.5      6.177     10.441
REMARK  27 active torsions:
REMARK  status: ('A' for Active; 'I' for Inactive)
REMARK    1  A    between atoms: C2_2  and  S1_4 
REMARK    2  A    between atoms: S1_4  and  C3_5 
REMARK    3  A    between atoms: C3_5  and  C4_6 
REMARK    4  A    between atoms: C4_6  and  N1_7 
REMARK       I    between atoms: N1_7  and  C5_8 
REMARK    5  A    between atoms: C5_8  and  C6_10 
REMARK    6  A    between atoms: C6_10  and  C7_11 
REMARK    7  A    between atoms: C7_11  and  N2_12 
REMARK       I    between atoms: N2_12  and  C8_13 
REMARK    8  A    between atoms: C8_13  and  C9_15 
REMARK    9  A    between atoms: C9_15  and  C10_16 
REMARK   10  A    between atoms: C9_15  and  O17_54 
REMARK   11  A    between atoms: C10_16  and  C13_19 
REMARK   12  A    between atoms: C13_19  and  O4_20 
REMARK   13  A    between atoms: O4_20  and  P1_21 
REMARK   14  A    between atoms: P1_21  and  O6_23 
REMARK   15  A    between atoms: P1_21  and  O7_24 
REMARK   16  A    between atoms: O7_24  and  P2_25 
REMARK   17  A    between atoms: P2_25  and  O9_27 
REMARK   18  A    between atoms: P2_25  and  O10_28 
REMARK   19  A    between atoms: O10_28  and  C14_29 
REMARK   20  A    between atoms: C14_29  and  C15_30 
REMARK   21  A    between atoms: C16_31  and  O13_49 
REMARK   22  A    between atoms: C17_32  and  O12_48 
REMARK   23  A    between atoms: C18_33  and  N3_35 
REMARK   24  A    between atoms: C21_40  and  N7_47 
REMARK   25  A    between atoms: O13_49  and  P3_50 
REMARK   26  A    between atoms: P3_50  and  O15_52 
REMARK   27  A    between atoms: P3_50  and  O16_53 
ROOT
HETATM    1  C1  UNL     1      19.464  13.272   5.463  1.00  0.00     0.104 C 
HETATM    2  C2  UNL     1      20.628  12.389   5.132  1.00  0.00     0.182 C 
HETATM    3  O1  UNL     1      20.506  11.247   4.697  1.00  0.00    -0.286 OA
ENDROOT
BRANCH   2   4
HETATM    4  S1  UNL     1      22.199  13.109   5.455  1.00  0.00    -0.091 SA
BRANCH   4   5
HETATM    5  C3  UNL     1      23.032  12.797   3.864  1.00  0.00     0.102 C 
BRANCH   5   6
HETATM    6  C4  UNL     1      22.496  13.701   2.753  1.00  0.00     0.133 C 
BRANCH   6   7
HETATM    7  N1  UNL     1      22.126  12.965   1.562  1.00  0.00    -0.360 N 
HETATM    8  C5  UNL     1      22.907  12.979   0.430  1.00  0.00     0.219 C 
HETATM    9  O2  UNL     1      23.913  13.672   0.331  1.00  0.00    -0.274 OA
HETATM   10  H8  UNL     1      21.272  12.422   1.571  1.00  0.00     0.162 HD
BRANCH   8  11
HETATM   11  C6  UNL     1      22.370  12.101  -0.680  1.00  0.00     0.122 C 
BRANCH  11  12
HETATM   12  C7  UNL     1      21.689  10.846  -0.136  1.00  0.00     0.132 C 
BRANCH  12  13
HETATM   13  N2  UNL     1      22.606   9.744   0.065  1.00  0.00    -0.358 N 
HETATM   14  C8  UNL     1      22.873   9.283   1.341  1.00  0.00     0.247 C 
HETATM   15  O3  UNL     1      22.450   9.850   2.340  1.00  0.00    -0.271 OA
HETATM   16  H13 UNL     1      22.649   9.066  -0.693  1.00  0.00     0.162 HD
BRANCH  14  17
HETATM   17  C9  UNL     1      23.720   8.002   1.399  1.00  0.00     0.219 C 
BRANCH  17  18
HETATM   18  C10 UNL     1      22.917   6.691   1.195  1.00  0.00     0.009 C 
HETATM   19  C11 UNL     1      23.397   5.568   2.125  1.00  0.00     0.020 C 
HETATM   20  C12 UNL     1      21.411   6.905   1.447  1.00  0.00     0.020 C 
BRANCH  18  21
HETATM   21  C13 UNL     1      23.147   6.276  -0.287  1.00  0.00     0.192 C 
BRANCH  21  22
HETATM   22  O4  UNL     1      22.170   6.814  -1.155  1.00  0.00    -0.296 OA
BRANCH  22  23
HETATM   23  P1  UNL     1      22.540   7.602  -2.501  1.00  0.00     0.401 P 
HETATM   24  O5  UNL     1      21.576   8.688  -2.860  1.00  0.00    -0.631 OA
BRANCH  23  25
HETATM   25  O6  UNL     1      22.727   6.493  -3.653  1.00  0.00    -0.307 OA
HETATM   26  H23 UNL     1      23.028   5.648  -3.295  1.00  0.00     0.222 HD
ENDBRANCH  23  25
BRANCH  23  27
HETATM   27  O7  UNL     1      24.041   8.088  -2.294  1.00  0.00    -0.195 OA
BRANCH  27  28
HETATM   28  P2  UNL     1      24.927   8.421  -3.575  1.00  0.00     0.401 P 
HETATM   29  O8  UNL     1      25.658   7.281  -4.207  1.00  0.00    -0.631 OA
BRANCH  28  30
HETATM   30  O9  UNL     1      23.899   9.156  -4.550  1.00  0.00    -0.307 OA
HETATM   31  H24 UNL     1      24.251   9.984  -4.958  1.00  0.00     0.222 HD
ENDBRANCH  28  30
BRANCH  28  32
HETATM   32  O10 UNL     1      25.827   9.656  -3.112  1.00  0.00    -0.294 OA
BRANCH  32  33
HETATM   33  C14 UNL     1      27.226   9.546  -3.117  1.00  0.00     0.215 C 
BRANCH  33  34
HETATM   34  C15 UNL     1      27.743  10.710  -3.959  1.00  0.00     0.180 C 
HETATM   35  C16 UNL     1      26.588  11.632  -4.329  1.00  0.00     0.197 C 
HETATM   36  C17 UNL     1      26.523  11.579  -5.843  1.00  0.00     0.199 C 
HETATM   37  C18 UNL     1      27.960  11.203  -6.215  1.00  0.00     0.262 C 
HETATM   38  O11 UNL     1      28.368  10.286  -5.176  1.00  0.00    -0.353 OA
BRANCH  35  39
HETATM   39  O13 UNL     1      26.895  12.937  -3.850  1.00  0.00    -0.286 OA
BRANCH  39  40
HETATM   40  P3  UNL     1      25.788  13.603  -2.908  1.00  0.00     0.391 P 
HETATM   41  O14 UNL     1      25.854  15.096  -2.863  1.00  0.00    -0.632 OA
BRANCH  40  42
HETATM   42  O15 UNL     1      26.039  12.809  -1.542  1.00  0.00    -0.307 OA
HETATM   43  H36 UNL     1      26.076  13.433  -0.778  1.00  0.00     0.222 HD
ENDBRANCH  40  42
BRANCH  40  44
HETATM   44  O16 UNL     1      24.456  12.942  -3.471  1.00  0.00    -0.307 OA
HETATM   45  H37 UNL     1      23.803  13.598  -3.763  1.00  0.00     0.222 HD
ENDBRANCH  40  44
ENDBRANCH  39  40
ENDBRANCH  35  39
BRANCH  36  46
HETATM   46  O12 UNL     1      26.012  12.810  -6.361  1.00  0.00    -0.388 OA
HETATM   47  H35 UNL     1      25.148  12.964  -5.909  1.00  0.00     0.210 HD
ENDBRANCH  36  46
BRANCH  37  48
HETATM   48  N3  UNL     1      28.045  10.527  -7.494  1.00  0.00    -0.297 N 
HETATM   49  C19 UNL     1      28.485  11.054  -8.685  1.00  0.00     0.188 A 
HETATM   50  N4  UNL     1      28.560  10.146  -9.634  1.00  0.00    -0.346 N 
HETATM   51  C20 UNL     1      28.153   8.972  -9.027  1.00  0.00     0.116 A 
HETATM   52  H4  UNL     1      28.854  10.278 -10.602  1.00  0.00     0.167 HD
HETATM   53  C21 UNL     1      28.051   7.647  -9.486  1.00  0.00     0.109 A 
HETATM   54  C23 UNL     1      27.793   9.201  -7.712  1.00  0.00     0.142 A 
HETATM   55  N5  UNL     1      27.597   6.697  -8.632  1.00  0.00    -0.341 N 
HETATM   56  C22 UNL     1      27.260   7.071  -7.382  1.00  0.00     0.183 A 
HETATM   57  H5  UNL     1      27.514   5.725  -8.928  1.00  0.00     0.167 HD
HETATM   58  N6  UNL     1      27.323   8.300  -6.830  1.00  0.00    -0.336 N 
HETATM   59  H6  UNL     1      27.050   8.518  -5.871  1.00  0.00     0.168 HD
BRANCH  53  60
HETATM   60  N7  UNL     1      28.383   7.259 -10.775  1.00  0.00    -0.287 NA
HETATM   61  H33 UNL     1      29.140   7.796 -11.192  1.00  0.00     0.125 HD
HETATM   62  H34 UNL     1      27.573   7.087 -11.356  1.00  0.00     0.125 HD
ENDBRANCH  53  60
ENDBRANCH  37  48
ENDBRANCH  33  34
ENDBRANCH  32  33
ENDBRANCH  28  32
ENDBRANCH  27  28
ENDBRANCH  23  27
ENDBRANCH  22  23
ENDBRANCH  21  22
ENDBRANCH  18  21
ENDBRANCH  17  18
BRANCH  17  63
HETATM   63  O17 UNL     1      24.762   8.055   0.419  1.00  0.00    -0.385 OA
HETATM   64  H38 UNL     1      25.550   7.627   0.792  1.00  0.00     0.210 HD
ENDBRANCH  17  63
ENDBRANCH  14  17
ENDBRANCH  12  13
ENDBRANCH  11  12
ENDBRANCH   8  11
ENDBRANCH   6   7
ENDBRANCH   5   6
ENDBRANCH   4   5
ENDBRANCH   2   4
TORSDOF 27
ENDMDL
MODEL 20
REMARK VINA RESULT:      -2.5     14.746     18.213
REMARK  27 active torsions:
REMARK  status: ('A' for Active; 'I' for Inactive)
REMARK    1  A    between atoms: C2_2  and  S1_4 
REMARK    2  A    between atoms: S1_4  and  C3_5 
REMARK    3  A    between atoms: C3_5  and  C4_6 
REMARK    4  A    between atoms: C4_6  and  N1_7 
REMARK       I    between atoms: N1_7  and  C5_8 
REMARK    5  A    between atoms: C5_8  and  C6_10 
REMARK    6  A    between atoms: C6_10  and  C7_11 
REMARK    7  A    between atoms: C7_11  and  N2_12 
REMARK       I    between atoms: N2_12  and  C8_13 
REMARK    8  A    between atoms: C8_13  and  C9_15 
REMARK    9  A    between atoms: C9_15  and  C10_16 
REMARK   10  A    between atoms: C9_15  and  O17_54 
REMARK   11  A    between atoms: C10_16  and  C13_19 
REMARK   12  A    between atoms: C13_19  and  O4_20 
REMARK   13  A    between atoms: O4_20  and  P1_21 
REMARK   14  A    between atoms: P1_21  and  O6_23 
REMARK   15  A    between atoms: P1_21  and  O7_24 
REMARK   16  A    between atoms: O7_24  and  P2_25 
REMARK   17  A    between atoms: P2_25  and  O9_27 
REMARK   18  A    between atoms: P2_25  and  O10_28 
REMARK   19  A    between atoms: O10_28  and  C14_29 
REMARK   20  A    between atoms: C14_29  and  C15_30 
REMARK   21  A    between atoms: C16_31  and  O13_49 
REMARK   22  A    between atoms: C17_32  and  O12_48 
REMARK   23  A    between atoms: C18_33  and  N3_35 
REMARK   24  A    between atoms: C21_40  and  N7_47 
REMARK   25  A    between atoms: O13_49  and  P3_50 
REMARK   26  A    between atoms: P3_50  and  O15_52 
REMARK   27  A    between atoms: P3_50  and  O16_53 
ROOT
HETATM    1  C1  UNL     1      14.334  22.960  -6.550  1.00  0.00     0.104 C 
HETATM    2  C2  UNL     1      14.189  21.634  -7.232  1.00  0.00     0.182 C 
HETATM    3  O1  UNL     1      15.140  20.899  -7.488  1.00  0.00    -0.286 OA
ENDROOT
BRANCH   2   4
HETATM    4  S1  UNL     1      12.538  21.225  -7.678  1.00  0.00    -0.091 SA
BRANCH   4   5
HETATM    5  C3  UNL     1      12.839  19.768  -8.730  1.00  0.00     0.102 C 
BRANCH   5   6
HETATM    6  C4  UNL     1      12.611  18.459  -7.970  1.00  0.00     0.133 C 
BRANCH   6   7
HETATM    7  N1  UNL     1      13.753  18.072  -7.168  1.00  0.00    -0.360 N 
HETATM    8  C5  UNL     1      13.612  17.328  -6.020  1.00  0.00     0.219 C 
HETATM    9  O2  UNL     1      12.517  17.018  -5.564  1.00  0.00    -0.274 OA
HETATM   10  H8  UNL     1      14.676  18.352  -7.469  1.00  0.00     0.162 HD
BRANCH   8  11
HETATM   11  C6  UNL     1      14.931  16.984  -5.363  1.00  0.00     0.122 C 
BRANCH  11  12
HETATM   12  C7  UNL     1      15.360  15.547  -5.661  1.00  0.00     0.132 C 
BRANCH  12  13
HETATM   13  N2  UNL     1      14.264  14.707  -6.095  1.00  0.00    -0.358 N 
HETATM   14  C8  UNL     1      14.428  13.336  -6.179  1.00  0.00     0.247 C 
HETATM   15  O3  UNL     1      15.515  12.798  -6.009  1.00  0.00    -0.271 OA
HETATM   16  H13 UNL     1      13.332  15.051  -5.872  1.00  0.00     0.162 HD
BRANCH  14  17
HETATM   17  C9  UNL     1      13.142  12.551  -6.479  1.00  0.00     0.219 C 
BRANCH  17  18
HETATM   18  C10 UNL     1      13.073  11.953  -7.909  1.00  0.00     0.009 C 
HETATM   19  C11 UNL     1      13.816  12.821  -8.935  1.00  0.00     0.020 C 
HETATM   20  C12 UNL     1      13.679  10.535  -7.958  1.00  0.00     0.020 C 
BRANCH  18  21
HETATM   21  C13 UNL     1      11.562  11.891  -8.273  1.00  0.00     0.192 C 
BRANCH  21  22
HETATM   22  O4  UNL     1      10.950  10.697  -7.829  1.00  0.00    -0.296 OA
BRANCH  22  23
HETATM   23  P1  UNL     1       9.985  10.637  -6.550  1.00  0.00     0.401 P 
HETATM   24  O5  UNL     1      10.400   9.638  -5.517  1.00  0.00    -0.631 OA
BRANCH  23  25
HETATM   25  O6  UNL     1       8.490  10.415  -7.105  1.00  0.00    -0.307 OA
HETATM   26  H23 UNL     1       7.826  10.548  -6.417  1.00  0.00     0.222 HD
ENDBRANCH  23  25
BRANCH  23  27
HETATM   27  O7  UNL     1       9.901  12.137  -6.028  1.00  0.00    -0.195 OA
BRANCH  27  28
HETATM   28  P2  UNL     1       9.346  12.412  -4.560  1.00  0.00     0.401 P 
HETATM   29  O8  UNL     1       8.664  13.721  -4.328  1.00  0.00    -0.631 OA
BRANCH  28  30
HETATM   30  O9  UNL     1       8.427  11.139  -4.272  1.00  0.00    -0.307 OA
HETATM   31  H24 UNL     1       7.496  11.232  -4.591  1.00  0.00     0.222 HD
ENDBRANCH  28  30
BRANCH  28  32
HETATM   32  O10 UNL     1      10.591  12.096  -3.611  1.00  0.00    -0.294 OA
BRANCH  32  33
HETATM   33  C14 UNL     1      10.411  11.336  -2.445  1.00  0.00     0.215 C 
BRANCH  33  34
HETATM   34  C15 UNL     1      11.497  11.786  -1.470  1.00  0.00     0.180 C 
HETATM   35  C16 UNL     1      12.456  12.739  -2.170  1.00  0.00     0.197 C 
HETATM   36  C17 UNL     1      13.798  12.033  -2.128  1.00  0.00     0.199 C 
HETATM   37  C18 UNL     1      13.647  11.124  -0.907  1.00  0.00     0.262 C 
HETATM   38  O11 UNL     1      12.267  10.696  -0.949  1.00  0.00    -0.353 OA
BRANCH  35  39
HETATM   39  O13 UNL     1      12.470  13.963  -1.444  1.00  0.00    -0.286 OA
BRANCH  39  40
HETATM   40  P3  UNL     1      12.296  15.288  -2.322  1.00  0.00     0.391 P 
HETATM   41  O14 UNL     1      11.196  16.183  -1.851  1.00  0.00    -0.632 OA
BRANCH  40  42
HETATM   42  O15 UNL     1      12.164  14.660  -3.788  1.00  0.00    -0.307 OA
HETATM   43  H36 UNL     1      11.801  13.744  -3.743  1.00  0.00     0.222 HD
ENDBRANCH  40  42
BRANCH  40  44
HETATM   44  O16 UNL     1      13.776  15.871  -2.310  1.00  0.00    -0.307 OA
HETATM   45  H37 UNL     1      14.274  15.616  -1.517  1.00  0.00     0.222 HD
ENDBRANCH  40  44
ENDBRANCH  39  40
ENDBRANCH  35  39
BRANCH  36  46
HETATM   46  O12 UNL     1      14.861  12.990  -2.107  1.00  0.00    -0.388 OA
HETATM   47  H35 UNL     1      15.590  12.584  -1.580  1.00  0.00     0.210 HD
ENDBRANCH  36  46
BRANCH  37  48
HETATM   48  N3  UNL     1      14.499   9.954  -0.975  1.00  0.00    -0.297 N 
HETATM   49  C19 UNL     1      14.138   8.683  -1.356  1.00  0.00     0.188 A 
HETATM   50  N4  UNL     1      15.171   7.873  -1.434  1.00  0.00    -0.346 N 
HETATM   51  C20 UNL     1      16.257   8.659  -1.090  1.00  0.00     0.116 A 
HETATM   52  H4  UNL     1      15.172   6.886  -1.690  1.00  0.00     0.167 HD
HETATM   53  C21 UNL     1      17.637   8.400  -1.023  1.00  0.00     0.109 A 
HETATM   54  C23 UNL     1      15.850   9.940  -0.765  1.00  0.00     0.142 A 
HETATM   55  N5  UNL     1      18.466   9.399  -0.633  1.00  0.00    -0.341 N 
HETATM   56  C22 UNL     1      17.924  10.594  -0.323  1.00  0.00     0.183 A 
HETATM   57  H5  UNL     1      19.474   9.250  -0.576  1.00  0.00     0.167 HD
HETATM   58  N6  UNL     1      16.627  10.960  -0.358  1.00  0.00    -0.336 N 
HETATM   59  H6  UNL     1      16.280  11.886  -0.109  1.00  0.00     0.168 HD
BRANCH  53  60
HETATM   60  N7  UNL     1      18.198   7.170  -1.326  1.00  0.00    -0.287 NA
HETATM   61  H33 UNL     1      17.519   6.424  -1.469  1.00  0.00     0.125 HD
HETATM   62  H34 UNL     1      19.001   6.950  -0.753  1.00  0.00     0.125 HD
ENDBRANCH  53  60
ENDBRANCH  37  48
ENDBRANCH  33  34
ENDBRANCH  32  33
ENDBRANCH  28  32
ENDBRANCH  27  28
ENDBRANCH  23  27
ENDBRANCH  22  23
ENDBRANCH  21  22
ENDBRANCH  18  21
ENDBRANCH  17  18
BRANCH  17  63
HETATM   63  O17 UNL     1      12.982  11.488  -5.533  1.00  0.00    -0.385 OA
HETATM   64  H38 UNL     1      13.361  10.680  -5.920  1.00  0.00     0.210 HD
ENDBRANCH  17  63
ENDBRANCH  14  17
ENDBRANCH  12  13
ENDBRANCH  11  12
ENDBRANCH   8  11
ENDBRANCH   6   7
ENDBRANCH   5   6
ENDBRANCH   4   5
ENDBRANCH   2   4
TORSDOF 27
ENDMDL
