MODEL 1
REMARK VINA RESULT:      -4.4      0.000      0.000
REMARK  2 active torsions:
REMARK  status: ('A' for Active; 'I' for Inactive)
REMARK    1  A    between atoms: C3_3  and  O1_8 
REMARK    2  A    between atoms: C6_6  and  N1_7 
ROOT
HETATM    1  C1  UNL     1      -4.886   3.182  -2.577  1.00  0.00     0.026 A 
HETATM    2  C2  UNL     1      -3.712   3.907  -2.363  1.00  0.00     0.038 A 
HETATM    3  C3  UNL     1      -2.577   3.258  -1.898  1.00  0.00     0.065 A 
HETATM    4  C4  UNL     1      -2.593   1.888  -1.659  1.00  0.00     0.038 A 
HETATM    5  C5  UNL     1      -3.772   1.169  -1.875  1.00  0.00     0.026 A 
HETATM    6  C6  UNL     1      -4.942   1.815  -2.286  1.00  0.00     0.005 A 
ENDROOT
BRANCH   6   7
HETATM    7  N1  UNL     1      -6.081   1.071  -2.613  1.00  0.00    -0.303 NA
HETATM    8  H5  UNL     1      -6.102   0.760  -3.579  1.00  0.00     0.124 HD
HETATM    9  H6  UNL     1      -6.952   1.506  -2.328  1.00  0.00     0.124 HD
ENDBRANCH   6   7
BRANCH   3  10
HETATM   10  O1  UNL     1      -1.451   4.000  -1.705  1.00  0.00    -0.361 OA
HETATM   11  H7  UNL     1      -1.127   4.303  -2.568  1.00  0.00     0.217 HD
ENDBRANCH   3  10
TORSDOF 2
ENDMDL
MODEL 2
REMARK VINA RESULT:      -4.4      2.781      3.265
REMARK  2 active torsions:
REMARK  status: ('A' for Active; 'I' for Inactive)
REMARK    1  A    between atoms: C3_3  and  O1_8 
REMARK    2  A    between atoms: C6_6  and  N1_7 
ROOT
HETATM    1  C1  UNL     1      -3.875   3.861  -2.270  1.00  0.00     0.026 A 
HETATM    2  C2  UNL     1      -5.044   3.113  -2.426  1.00  0.00     0.038 A 
HETATM    3  C3  UNL     1      -5.001   1.733  -2.284  1.00  0.00     0.065 A 
HETATM    4  C4  UNL     1      -3.808   1.090  -1.972  1.00  0.00     0.038 A 
HETATM    5  C5  UNL     1      -2.642   1.846  -1.820  1.00  0.00     0.026 A 
HETATM    6  C6  UNL     1      -2.653   3.231  -2.016  1.00  0.00     0.005 A 
ENDROOT
BRANCH   6   7
HETATM    7  N1  UNL     1      -1.510   3.990  -1.745  1.00  0.00    -0.303 NA
HETATM    8  H5  UNL     1      -1.396   4.790  -2.360  1.00  0.00     0.124 HD
HETATM    9  H6  UNL     1      -0.661   3.441  -1.664  1.00  0.00     0.124 HD
ENDBRANCH   6   7
BRANCH   3  10
HETATM   10  O1  UNL     1      -6.163   1.039  -2.441  1.00  0.00    -0.361 OA
HETATM   11  H7  UNL     1      -6.013   0.323  -3.079  1.00  0.00     0.217 HD
ENDBRANCH   3  10
TORSDOF 2
ENDMDL
MODEL 3
REMARK VINA RESULT:      -3.9     12.935     13.929
REMARK  2 active torsions:
REMARK  status: ('A' for Active; 'I' for Inactive)
REMARK    1  A    between atoms: C3_3  and  O1_8 
REMARK    2  A    between atoms: C6_6  and  N1_7 
ROOT
HETATM    1  C1  UNL     1      -0.006  15.625  -5.909  1.00  0.00     0.026 A 
HETATM    2  C2  UNL     1      -0.140  14.345  -5.367  1.00  0.00     0.038 A 
HETATM    3  C3  UNL     1       0.784  13.361  -5.690  1.00  0.00     0.065 A 
HETATM    4  C4  UNL     1       1.852  13.643  -6.535  1.00  0.00     0.038 A 
HETATM    5  C5  UNL     1       1.979  14.927  -7.075  1.00  0.00     0.026 A 
HETATM    6  C6  UNL     1       1.025  15.914  -6.808  1.00  0.00     0.005 A 
ENDROOT
BRANCH   6   7
HETATM    7  N1  UNL     1       1.225  17.226  -7.255  1.00  0.00    -0.303 NA
HETATM    8  H5  UNL     1       0.443  17.845  -7.064  1.00  0.00     0.124 HD
HETATM    9  H6  UNL     1       1.541  17.288  -8.216  1.00  0.00     0.124 HD
ENDBRANCH   6   7
BRANCH   3  10
HETATM   10  O1  UNL     1       0.621  12.126  -5.139  1.00  0.00    -0.361 OA
HETATM   11  H7  UNL     1       1.487  11.798  -4.850  1.00  0.00     0.217 HD
ENDBRANCH   3  10
TORSDOF 2
ENDMDL
MODEL 4
REMARK VINA RESULT:      -3.8     12.947     13.954
REMARK  2 active torsions:
REMARK  status: ('A' for Active; 'I' for Inactive)
REMARK    1  A    between atoms: C3_3  and  O1_8 
REMARK    2  A    between atoms: C6_6  and  N1_7 
ROOT
HETATM    1  C1  UNL     1       1.853  13.715  -6.562  1.00  0.00     0.026 A 
HETATM    2  C2  UNL     1       2.085  14.932  -7.207  1.00  0.00     0.038 A 
HETATM    3  C3  UNL     1       1.178  15.972  -7.061  1.00  0.00     0.065 A 
HETATM    4  C4  UNL     1       0.048  15.819  -6.264  1.00  0.00     0.038 A 
HETATM    5  C5  UNL     1      -0.177  14.597  -5.623  1.00  0.00     0.026 A 
HETATM    6  C6  UNL     1       0.694  13.519  -5.805  1.00  0.00     0.005 A 
ENDROOT
BRANCH   6   7
HETATM    7  N1  UNL     1       0.525  12.342  -5.067  1.00  0.00    -0.303 NA
HETATM    8  H5  UNL     1      -0.435  12.013  -5.039  1.00  0.00     0.124 HD
HETATM    9  H6  UNL     1       0.950  12.371  -4.146  1.00  0.00     0.124 HD
ENDBRANCH   6   7
BRANCH   3  10
HETATM   10  O1  UNL     1       1.441  17.144  -7.704  1.00  0.00    -0.361 OA
HETATM   11  H7  UNL     1       0.873  17.201  -8.489  1.00  0.00     0.217 HD
ENDBRANCH   3  10
TORSDOF 2
ENDMDL
MODEL 5
REMARK VINA RESULT:      -3.8     13.161     14.204
REMARK  2 active torsions:
REMARK  status: ('A' for Active; 'I' for Inactive)
REMARK    1  A    between atoms: C3_3  and  O1_8 
REMARK    2  A    between atoms: C6_6  and  N1_7 
ROOT
HETATM    1  C1  UNL     1       1.964  15.086  -7.355  1.00  0.00     0.026 A 
HETATM    2  C2  UNL     1       1.902  13.856  -6.696  1.00  0.00     0.038 A 
HETATM    3  C3  UNL     1       0.871  13.606  -5.802  1.00  0.00     0.065 A 
HETATM    4  C4  UNL     1      -0.111  14.563  -5.568  1.00  0.00     0.038 A 
HETATM    5  C5  UNL     1      -0.041  15.793  -6.230  1.00  0.00     0.026 A 
HETATM    6  C6  UNL     1       1.022  16.085  -7.090  1.00  0.00     0.005 A 
ENDROOT
BRANCH   6   7
HETATM    7  N1  UNL     1       1.019  17.268  -7.837  1.00  0.00    -0.303 NA
HETATM    8  H5  UNL     1       1.827  17.369  -8.444  1.00  0.00     0.124 HD
HETATM    9  H6  UNL     1       0.844  18.102  -7.285  1.00  0.00     0.124 HD
ENDBRANCH   6   7
BRANCH   3  10
HETATM   10  O1  UNL     1       0.844  12.393  -5.182  1.00  0.00    -0.361 OA
HETATM   11  H7  UNL     1       1.185  12.499  -4.279  1.00  0.00     0.217 HD
ENDBRANCH   3  10
TORSDOF 2
ENDMDL
MODEL 6
REMARK VINA RESULT:      -3.7      8.601      9.365
REMARK  2 active torsions:
REMARK  status: ('A' for Active; 'I' for Inactive)
REMARK    1  A    between atoms: C3_3  and  O1_8 
REMARK    2  A    between atoms: C6_6  and  N1_7 
ROOT
HETATM    1  C1  UNL     1       2.822   3.715  -6.183  1.00  0.00     0.026 A 
HETATM    2  C2  UNL     1       2.476   4.698  -7.112  1.00  0.00     0.038 A 
HETATM    3  C3  UNL     1       3.440   5.587  -7.566  1.00  0.00     0.065 A 
HETATM    4  C4  UNL     1       4.753   5.497  -7.116  1.00  0.00     0.038 A 
HETATM    5  C5  UNL     1       5.092   4.511  -6.185  1.00  0.00     0.026 A 
HETATM    6  C6  UNL     1       4.122   3.645  -5.672  1.00  0.00     0.005 A 
ENDROOT
BRANCH   6   7
HETATM    7  N1  UNL     1       4.493   2.588  -4.833  1.00  0.00    -0.303 NA
HETATM    8  H5  UNL     1       5.497   2.502  -4.705  1.00  0.00     0.124 HD
HETATM    9  H6  UNL     1       4.057   1.703  -5.069  1.00  0.00     0.124 HD
ENDBRANCH   6   7
BRANCH   3  10
HETATM   10  O1  UNL     1       3.063   6.530  -8.475  1.00  0.00    -0.361 OA
HETATM   11  H7  UNL     1       3.812   6.707  -9.066  1.00  0.00     0.217 HD
ENDBRANCH   3  10
TORSDOF 2
ENDMDL
MODEL 7
REMARK VINA RESULT:      -3.6     10.670     11.646
REMARK  2 active torsions:
REMARK  status: ('A' for Active; 'I' for Inactive)
REMARK    1  A    between atoms: C3_3  and  O1_8 
REMARK    2  A    between atoms: C6_6  and  N1_7 
ROOT
HETATM    1  C1  UNL     1      -0.627  14.343  -4.964  1.00  0.00     0.026 A 
HETATM    2  C2  UNL     1      -1.947  14.490  -4.530  1.00  0.00     0.038 A 
HETATM    3  C3  UNL     1      -2.709  13.364  -4.254  1.00  0.00     0.065 A 
HETATM    4  C4  UNL     1      -2.166  12.091  -4.390  1.00  0.00     0.038 A 
HETATM    5  C5  UNL     1      -0.845  11.952  -4.826  1.00  0.00     0.026 A 
HETATM    6  C6  UNL     1      -0.080  13.072  -5.165  1.00  0.00     0.005 A 
ENDROOT
BRANCH   6   7
HETATM    7  N1  UNL     1       1.275  12.930  -5.485  1.00  0.00    -0.303 NA
HETATM    8  H5  UNL     1       1.883  13.563  -4.975  1.00  0.00     0.124 HD
HETATM    9  H6  UNL     1       1.464  12.932  -6.482  1.00  0.00     0.124 HD
ENDBRANCH   6   7
BRANCH   3  10
HETATM   10  O1  UNL     1      -3.991  13.549  -3.831  1.00  0.00    -0.361 OA
HETATM   11  H7  UNL     1      -4.386  14.271  -4.345  1.00  0.00     0.217 HD
ENDBRANCH   3  10
TORSDOF 2
ENDMDL
MODEL 8
REMARK VINA RESULT:      -3.6      2.537      3.111
REMARK  2 active torsions:
REMARK  status: ('A' for Active; 'I' for Inactive)
REMARK    1  A    between atoms: C3_3  and  O1_8 
REMARK    2  A    between atoms: C6_6  and  N1_7 
ROOT
HETATM    1  C1  UNL     1      -3.973   3.507  -3.603  1.00  0.00     0.026 A 
HETATM    2  C2  UNL     1      -3.955   2.560  -2.577  1.00  0.00     0.038 A 
HETATM    3  C3  UNL     1      -2.895   2.536  -1.682  1.00  0.00     0.065 A 
HETATM    4  C4  UNL     1      -1.858   3.457  -1.787  1.00  0.00     0.038 A 
HETATM    5  C5  UNL     1      -1.882   4.401  -2.818  1.00  0.00     0.026 A 
HETATM    6  C6  UNL     1      -2.912   4.404  -3.764  1.00  0.00     0.005 A 
ENDROOT
BRANCH   6   7
HETATM    7  N1  UNL     1      -2.989   5.425  -4.718  1.00  0.00    -0.303 NA
HETATM    8  H5  UNL     1      -3.939   5.660  -4.987  1.00  0.00     0.124 HD
HETATM    9  H6  UNL     1      -2.384   5.284  -5.521  1.00  0.00     0.124 HD
ENDBRANCH   6   7
BRANCH   3  10
HETATM   10  O1  UNL     1      -2.916   1.599  -0.693  1.00  0.00    -0.361 OA
HETATM   11  H7  UNL     1      -3.344   1.983   0.089  1.00  0.00     0.217 HD
ENDBRANCH   3  10
TORSDOF 2
ENDMDL
MODEL 9
REMARK VINA RESULT:      -3.5     11.001     11.834
REMARK  2 active torsions:
REMARK  status: ('A' for Active; 'I' for Inactive)
REMARK    1  A    between atoms: C3_3  and  O1_8 
REMARK    2  A    between atoms: C6_6  and  N1_7 
ROOT
HETATM    1  C1  UNL     1      -1.500  14.388  -6.770  1.00  0.00     0.026 A 
HETATM    2  C2  UNL     1      -0.158  14.153  -6.465  1.00  0.00     0.038 A 
HETATM    3  C3  UNL     1       0.180  13.130  -5.590  1.00  0.00     0.065 A 
HETATM    4  C4  UNL     1      -0.806  12.326  -5.027  1.00  0.00     0.038 A 
HETATM    5  C5  UNL     1      -2.147  12.568  -5.337  1.00  0.00     0.026 A 
HETATM    6  C6  UNL     1      -2.511  13.631  -6.170  1.00  0.00     0.005 A 
ENDROOT
BRANCH   6   7
HETATM    7  N1  UNL     1      -3.843  13.791  -6.568  1.00  0.00    -0.303 NA
HETATM    8  H5  UNL     1      -4.286  12.927  -6.864  1.00  0.00     0.124 HD
HETATM    9  H6  UNL     1      -3.985  14.546  -7.230  1.00  0.00     0.124 HD
ENDBRANCH   6   7
BRANCH   3  10
HETATM   10  O1  UNL     1       1.500  12.931  -5.319  1.00  0.00    -0.361 OA
HETATM   11  H7  UNL     1       1.823  12.202  -5.873  1.00  0.00     0.217 HD
ENDBRANCH   3  10
TORSDOF 2
ENDMDL
MODEL 10
REMARK VINA RESULT:      -3.5      2.104      2.729
REMARK  2 active torsions:
REMARK  status: ('A' for Active; 'I' for Inactive)
REMARK    1  A    between atoms: C3_3  and  O1_8 
REMARK    2  A    between atoms: C6_6  and  N1_7 
ROOT
HETATM    1  C1  UNL     1      -1.956   3.429  -1.735  1.00  0.00     0.026 A 
HETATM    2  C2  UNL     1      -1.937   4.366  -2.771  1.00  0.00     0.038 A 
HETATM    3  C3  UNL     1      -2.963   4.378  -3.705  1.00  0.00     0.065 A 
HETATM    4  C4  UNL     1      -4.018   3.477  -3.610  1.00  0.00     0.038 A 
HETATM    5  C5  UNL     1      -4.029   2.542  -2.571  1.00  0.00     0.026 A 
HETATM    6  C6  UNL     1      -2.975   2.476  -1.654  1.00  0.00     0.005 A 
ENDROOT
BRANCH   6   7
HETATM    7  N1  UNL     1      -3.053   1.618  -0.551  1.00  0.00    -0.303 NA
HETATM    8  H5  UNL     1      -3.973   1.588  -0.122  1.00  0.00     0.124 HD
HETATM    9  H6  UNL     1      -2.314   1.756   0.129  1.00  0.00     0.124 HD
ENDBRANCH   6   7
BRANCH   3  10
HETATM   10  O1  UNL     1      -2.910   5.308  -4.699  1.00  0.00    -0.361 OA
HETATM   11  H7  UNL     1      -3.495   6.046  -4.465  1.00  0.00     0.217 HD
ENDBRANCH   3  10
TORSDOF 2
ENDMDL
MODEL 11
REMARK VINA RESULT:      -3.4      9.312     10.256
REMARK  2 active torsions:
REMARK  status: ('A' for Active; 'I' for Inactive)
REMARK    1  A    between atoms: C3_3  and  O1_8 
REMARK    2  A    between atoms: C6_6  and  N1_7 
ROOT
HETATM    1  C1  UNL     1      -4.036  13.527  -0.287  1.00  0.00     0.026 A 
HETATM    2  C2  UNL     1      -4.167  12.649  -1.365  1.00  0.00     0.038 A 
HETATM    3  C3  UNL     1      -4.051  11.282  -1.156  1.00  0.00     0.065 A 
HETATM    4  C4  UNL     1      -3.823  10.778   0.119  1.00  0.00     0.038 A 
HETATM    5  C5  UNL     1      -3.691  11.663   1.193  1.00  0.00     0.026 A 
HETATM    6  C6  UNL     1      -3.746  13.046   0.993  1.00  0.00     0.005 A 
ENDROOT
BRANCH   6   7
HETATM    7  N1  UNL     1      -3.733  13.918   2.088  1.00  0.00    -0.303 NA
HETATM    8  H5  UNL     1      -4.042  13.488   2.955  1.00  0.00     0.124 HD
HETATM    9  H6  UNL     1      -4.192  14.805   1.912  1.00  0.00     0.124 HD
ENDBRANCH   6   7
BRANCH   3  10
HETATM   10  O1  UNL     1      -4.188  10.458  -2.233  1.00  0.00    -0.361 OA
HETATM   11  H7  UNL     1      -4.064  10.981  -3.041  1.00  0.00     0.217 HD
ENDBRANCH   3  10
TORSDOF 2
ENDMDL
MODEL 12
REMARK VINA RESULT:      -3.4     10.498     11.430
REMARK  2 active torsions:
REMARK  status: ('A' for Active; 'I' for Inactive)
REMARK    1  A    between atoms: C3_3  and  O1_8 
REMARK    2  A    between atoms: C6_6  and  N1_7 
ROOT
HETATM    1  C1  UNL     1      -2.429  11.855  -5.923  1.00  0.00     0.026 A 
HETATM    2  C2  UNL     1      -2.435  12.868  -6.884  1.00  0.00     0.038 A 
HETATM    3  C3  UNL     1      -1.453  13.848  -6.857  1.00  0.00     0.065 A 
HETATM    4  C4  UNL     1      -0.453  13.822  -5.891  1.00  0.00     0.038 A 
HETATM    5  C5  UNL     1      -0.454  12.805  -4.931  1.00  0.00     0.026 A 
HETATM    6  C6  UNL     1      -1.468  11.843  -4.907  1.00  0.00     0.005 A 
ENDROOT
BRANCH   6   7
HETATM    7  N1  UNL     1      -1.395  10.763  -4.019  1.00  0.00    -0.303 NA
HETATM    8  H5  UNL     1      -0.918  10.983  -3.149  1.00  0.00     0.124 HD
HETATM    9  H6  UNL     1      -1.053   9.907  -4.441  1.00  0.00     0.124 HD
ENDBRANCH   6   7
BRANCH   3  10
HETATM   10  O1  UNL     1      -1.492  14.818  -7.814  1.00  0.00    -0.361 OA
HETATM   11  H7  UNL     1      -2.380  14.832  -8.205  1.00  0.00     0.217 HD
ENDBRANCH   3  10
TORSDOF 2
ENDMDL
MODEL 13
REMARK VINA RESULT:      -3.4      9.620     10.647
REMARK  2 active torsions:
REMARK  status: ('A' for Active; 'I' for Inactive)
REMARK    1  A    between atoms: C3_3  and  O1_8 
REMARK    2  A    between atoms: C6_6  and  N1_7 
ROOT
HETATM    1  C1  UNL     1      -3.230  11.850   0.993  1.00  0.00     0.026 A 
HETATM    2  C2  UNL     1      -4.055  10.857   0.460  1.00  0.00     0.038 A 
HETATM    3  C3  UNL     1      -5.429  11.048   0.428  1.00  0.00     0.065 A 
HETATM    4  C4  UNL     1      -5.991  12.226   0.907  1.00  0.00     0.038 A 
HETATM    5  C5  UNL     1      -5.159  13.215   1.440  1.00  0.00     0.026 A 
HETATM    6  C6  UNL     1      -3.778  13.017   1.535  1.00  0.00     0.005 A 
ENDROOT
BRANCH   6   7
HETATM    7  N1  UNL     1      -2.944  14.057   1.959  1.00  0.00    -0.303 NA
HETATM    8  H5  UNL     1      -2.680  13.995   2.937  1.00  0.00     0.124 HD
HETATM    9  H6  UNL     1      -3.279  14.981   1.707  1.00  0.00     0.124 HD
ENDBRANCH   6   7
BRANCH   3  10
HETATM   10  O1  UNL     1      -6.199  10.057  -0.103  1.00  0.00    -0.361 OA
HETATM   11  H7  UNL     1      -7.128  10.235   0.117  1.00  0.00     0.217 HD
ENDBRANCH   3  10
TORSDOF 2
ENDMDL
MODEL 14
REMARK VINA RESULT:      -3.4     10.439     11.418
REMARK  2 active torsions:
REMARK  status: ('A' for Active; 'I' for Inactive)
REMARK    1  A    between atoms: C3_3  and  O1_8 
REMARK    2  A    between atoms: C6_6  and  N1_7 
ROOT
HETATM    1  C1  UNL     1      -0.339  12.657  -5.007  1.00  0.00     0.026 A 
HETATM    2  C2  UNL     1      -0.322  13.679  -5.958  1.00  0.00     0.038 A 
HETATM    3  C3  UNL     1      -1.363  13.789  -6.869  1.00  0.00     0.065 A 
HETATM    4  C4  UNL     1      -2.431  12.900  -6.834  1.00  0.00     0.038 A 
HETATM    5  C5  UNL     1      -2.441  11.878  -5.880  1.00  0.00     0.026 A 
HETATM    6  C6  UNL     1      -1.373  11.716  -4.992  1.00  0.00     0.005 A 
ENDROOT
BRANCH   6   7
HETATM    7  N1  UNL     1      -1.448  10.766  -3.966  1.00  0.00    -0.303 NA
HETATM    8  H5  UNL     1      -1.120  11.109  -3.068  1.00  0.00     0.124 HD
HETATM    9  H6  UNL     1      -1.043   9.868  -4.208  1.00  0.00     0.124 HD
ENDBRANCH   6   7
BRANCH   3  10
HETATM   10  O1  UNL     1      -1.310  14.802  -7.779  1.00  0.00    -0.361 OA
HETATM   11  H7  UNL     1      -1.982  14.641  -8.461  1.00  0.00     0.217 HD
ENDBRANCH   3  10
TORSDOF 2
ENDMDL
MODEL 15
REMARK VINA RESULT:      -3.3      9.220     10.034
REMARK  2 active torsions:
REMARK  status: ('A' for Active; 'I' for Inactive)
REMARK    1  A    between atoms: C3_3  and  O1_8 
REMARK    2  A    between atoms: C6_6  and  N1_7 
ROOT
HETATM    1  C1  UNL     1      -5.659  12.430   0.628  1.00  0.00     0.026 A 
HETATM    2  C2  UNL     1      -4.757  13.383   1.105  1.00  0.00     0.038 A 
HETATM    3  C3  UNL     1      -3.449  13.013   1.384  1.00  0.00     0.065 A 
HETATM    4  C4  UNL     1      -3.023  11.706   1.176  1.00  0.00     0.038 A 
HETATM    5  C5  UNL     1      -3.933  10.757   0.699  1.00  0.00     0.026 A 
HETATM    6  C6  UNL     1      -5.269  11.097   0.469  1.00  0.00     0.005 A 
ENDROOT
BRANCH   6   7
HETATM    7  N1  UNL     1      -6.140  10.173  -0.120  1.00  0.00    -0.303 NA
HETATM    8  H5  UNL     1      -6.914  10.601  -0.618  1.00  0.00     0.124 HD
HETATM    9  H6  UNL     1      -6.445   9.437   0.509  1.00  0.00     0.124 HD
ENDBRANCH   6   7
BRANCH   3  10
HETATM   10  O1  UNL     1      -2.598  13.972   1.845  1.00  0.00    -0.361 OA
HETATM   11  H7  UNL     1      -3.124  14.705   2.205  1.00  0.00     0.217 HD
ENDBRANCH   3  10
TORSDOF 2
ENDMDL
MODEL 16
REMARK VINA RESULT:      -3.3     11.552     12.038
REMARK  2 active torsions:
REMARK  status: ('A' for Active; 'I' for Inactive)
REMARK    1  A    between atoms: C3_3  and  O1_8 
REMARK    2  A    between atoms: C6_6  and  N1_7 
ROOT
HETATM    1  C1  UNL     1      -1.443  13.444  -6.654  1.00  0.00     0.026 A 
HETATM    2  C2  UNL     1      -2.760  13.832  -6.912  1.00  0.00     0.038 A 
HETATM    3  C3  UNL     1      -3.672  13.905  -5.870  1.00  0.00     0.065 A 
HETATM    4  C4  UNL     1      -3.284  13.611  -4.567  1.00  0.00     0.038 A 
HETATM    5  C5  UNL     1      -1.965  13.222  -4.316  1.00  0.00     0.026 A 
HETATM    6  C6  UNL     1      -1.046  13.086  -5.362  1.00  0.00     0.005 A 
ENDROOT
BRANCH   6   7
HETATM    7  N1  UNL     1       0.299  12.813  -5.087  1.00  0.00    -0.303 NA
HETATM    8  H5  UNL     1       0.721  13.463  -4.431  1.00  0.00     0.124 HD
HETATM    9  H6  UNL     1       0.867  12.676  -5.916  1.00  0.00     0.124 HD
ENDBRANCH   6   7
BRANCH   3  10
HETATM   10  O1  UNL     1      -4.946  14.290  -6.162  1.00  0.00    -0.361 OA
HETATM   11  H7  UNL     1      -5.078  15.195  -5.839  1.00  0.00     0.217 HD
ENDBRANCH   3  10
TORSDOF 2
ENDMDL
MODEL 17
REMARK VINA RESULT:      -3.3     10.801     11.890
REMARK  2 active torsions:
REMARK  status: ('A' for Active; 'I' for Inactive)
REMARK    1  A    between atoms: C3_3  and  O1_8 
REMARK    2  A    between atoms: C6_6  and  N1_7 
ROOT
HETATM    1  C1  UNL     1       0.025  13.506  -5.667  1.00  0.00     0.026 A 
HETATM    2  C2  UNL     1      -0.477  12.423  -4.941  1.00  0.00     0.038 A 
HETATM    3  C3  UNL     1      -1.728  11.908  -5.251  1.00  0.00     0.065 A 
HETATM    4  C4  UNL     1      -2.479  12.450  -6.288  1.00  0.00     0.038 A 
HETATM    5  C5  UNL     1      -1.970  13.534  -7.009  1.00  0.00     0.026 A 
HETATM    6  C6  UNL     1      -0.738  14.104  -6.674  1.00  0.00     0.005 A 
ENDROOT
BRANCH   6   7
HETATM    7  N1  UNL     1      -0.185  15.110  -7.475  1.00  0.00    -0.303 NA
HETATM    8  H5  UNL     1      -0.878  15.696  -7.930  1.00  0.00     0.124 HD
HETATM    9  H6  UNL     1       0.524  14.777  -8.120  1.00  0.00     0.124 HD
ENDBRANCH   6   7
BRANCH   3  10
HETATM   10  O1  UNL     1      -2.181  10.850  -4.522  1.00  0.00    -0.361 OA
HETATM   11  H7  UNL     1      -2.057  11.047  -3.580  1.00  0.00     0.217 HD
ENDBRANCH   3  10
TORSDOF 2
ENDMDL
MODEL 18
REMARK VINA RESULT:      -3.3     14.754     15.280
REMARK  2 active torsions:
REMARK  status: ('A' for Active; 'I' for Inactive)
REMARK    1  A    between atoms: C3_3  and  O1_8 
REMARK    2  A    between atoms: C6_6  and  N1_7 
ROOT
HETATM    1  C1  UNL     1       0.827  17.389   0.379  1.00  0.00     0.026 A 
HETATM    2  C2  UNL     1      -0.425  17.341   0.995  1.00  0.00     0.038 A 
HETATM    3  C3  UNL     1      -0.675  16.388   1.973  1.00  0.00     0.065 A 
HETATM    4  C4  UNL     1       0.316  15.491   2.356  1.00  0.00     0.038 A 
HETATM    5  C5  UNL     1       1.566  15.544   1.733  1.00  0.00     0.026 A 
HETATM    6  C6  UNL     1       1.818  16.458   0.705  1.00  0.00     0.005 A 
ENDROOT
BRANCH   6   7
HETATM    7  N1  UNL     1       3.106  16.583   0.173  1.00  0.00    -0.303 NA
HETATM    8  H5  UNL     1       3.799  16.890   0.848  1.00  0.00     0.124 HD
HETATM    9  H6  UNL     1       3.144  17.117  -0.689  1.00  0.00     0.124 HD
ENDBRANCH   6   7
BRANCH   3  10
HETATM   10  O1  UNL     1      -1.908  16.376   2.552  1.00  0.00    -0.361 OA
HETATM   11  H7  UNL     1      -1.877  16.916   3.358  1.00  0.00     0.217 HD
ENDBRANCH   3  10
TORSDOF 2
ENDMDL
MODEL 19
REMARK VINA RESULT:      -3.3     11.661     12.633
REMARK  2 active torsions:
REMARK  status: ('A' for Active; 'I' for Inactive)
REMARK    1  A    between atoms: C3_3  and  O1_8 
REMARK    2  A    between atoms: C6_6  and  N1_7 
ROOT
HETATM    1  C1  UNL     1      -1.773  15.080  -6.725  1.00  0.00     0.026 A 
HETATM    2  C2  UNL     1      -2.381  13.902  -7.165  1.00  0.00     0.038 A 
HETATM    3  C3  UNL     1      -2.108  12.704  -6.521  1.00  0.00     0.065 A 
HETATM    4  C4  UNL     1      -1.246  12.667  -5.430  1.00  0.00     0.038 A 
HETATM    5  C5  UNL     1      -0.640  13.850  -4.996  1.00  0.00     0.026 A 
HETATM    6  C6  UNL     1      -0.857  15.057  -5.669  1.00  0.00     0.005 A 
ENDROOT
BRANCH   6   7
HETATM    7  N1  UNL     1      -0.341  16.252  -5.156  1.00  0.00    -0.303 NA
HETATM    8  H5  UNL     1      -0.494  16.368  -4.159  1.00  0.00     0.124 HD
HETATM    9  H6  UNL     1      -0.609  17.075  -5.685  1.00  0.00     0.124 HD
ENDBRANCH   6   7
BRANCH   3  10
HETATM   10  O1  UNL     1      -2.723  11.578  -6.979  1.00  0.00    -0.361 OA
HETATM   11  H7  UNL     1      -2.521  10.846  -6.373  1.00  0.00     0.217 HD
ENDBRANCH   3  10
TORSDOF 2
ENDMDL
MODEL 20
REMARK VINA RESULT:      -3.3      9.484     10.476
REMARK  2 active torsions:
REMARK  status: ('A' for Active; 'I' for Inactive)
REMARK    1  A    between atoms: C3_3  and  O1_8 
REMARK    2  A    between atoms: C6_6  and  N1_7 
ROOT
HETATM    1  C1  UNL     1      -1.980  11.164  -4.013  1.00  0.00     0.026 A 
HETATM    2  C2  UNL     1      -1.291  12.029  -4.866  1.00  0.00     0.038 A 
HETATM    3  C3  UNL     1      -1.627  13.375  -4.899  1.00  0.00     0.065 A 
HETATM    4  C4  UNL     1      -2.632  13.874  -4.078  1.00  0.00     0.038 A 
HETATM    5  C5  UNL     1      -3.318  13.002  -3.228  1.00  0.00     0.026 A 
HETATM    6  C6  UNL     1      -3.035  11.633  -3.223  1.00  0.00     0.005 A 
ENDROOT
BRANCH   6   7
HETATM    7  N1  UNL     1      -3.642  10.790  -2.285  1.00  0.00    -0.303 NA
HETATM    8  H5  UNL     1      -3.610  11.147  -1.335  1.00  0.00     0.124 HD
HETATM    9  H6  UNL     1      -3.340   9.824  -2.346  1.00  0.00     0.124 HD
ENDBRANCH   6   7
BRANCH   3  10
HETATM   10  O1  UNL     1      -0.930  14.186  -5.743  1.00  0.00    -0.361 OA
HETATM   11  H7  UNL     1      -0.595  13.652  -6.481  1.00  0.00     0.217 HD
ENDBRANCH   3  10
TORSDOF 2
ENDMDL
