HETATM    1  C1  UNL     1      -8.599  19.920   5.276  1.00  0.00     0.026 A 
HETATM    2  C2  UNL     1      -9.032  19.852   6.602  1.00  0.00     0.038 A 
HETATM    3  C3  UNL     1      -8.108  19.951   7.633  1.00  0.00     0.065 A 
HETATM    4  C4  UNL     1      -6.757  20.134   7.358  1.00  0.00     0.038 A 
HETATM    5  C5  UNL     1      -6.331  20.199   6.028  1.00  0.00     0.026 A 
HETATM    6  C6  UNL     1      -7.239  20.043   4.976  1.00  0.00     0.005 A 
HETATM    7  N1  UNL     1      -6.822  20.229   3.653  1.00  0.00    -0.303 NA
HETATM    8  H5  UNL     1      -6.764  21.204   3.377  1.00  0.00     0.124 HD
HETATM    9  H6  UNL     1      -7.332  19.667   2.979  1.00  0.00     0.124 HD
HETATM   10  O1  UNL     1      -8.570  19.883   8.913  1.00  0.00    -0.361 OA
HETATM   11  H7  UNL     1      -8.479  18.969   9.227  1.00  0.00     0.217 HD
HETATM    1  C1  UNL     1      -6.344  20.097   7.405  1.00  0.00     0.026 A 
HETATM    2  C2  UNL     1      -7.042  20.420   8.571  1.00  0.00     0.038 A 
HETATM    3  C3  UNL     1      -8.429  20.370   8.578  1.00  0.00     0.065 A 
HETATM    4  C4  UNL     1      -9.129  19.985   7.440  1.00  0.00     0.038 A 
HETATM    5  C5  UNL     1      -8.423  19.664   6.276  1.00  0.00     0.026 A 
HETATM    6  C6  UNL     1      -7.029  19.766   6.233  1.00  0.00     0.005 A 
HETATM    7  N1  UNL     1      -6.326  19.330   5.104  1.00  0.00    -0.303 NA
HETATM    8  H5  UNL     1      -5.341  19.155   5.279  1.00  0.00     0.124 HD
HETATM    9  H6  UNL     1      -6.476  19.902   4.280  1.00  0.00     0.124 HD
HETATM   10  O1  UNL     1      -9.074  20.689   9.735  1.00  0.00    -0.361 OA
HETATM   11  H7  UNL     1      -8.871  21.612   9.958  1.00  0.00     0.217 HD
HETATM    1  C1  UNL     1      -6.853  20.139   7.413  1.00  0.00     0.026 A 
HETATM    2  C2  UNL     1      -6.402  20.133   6.092  1.00  0.00     0.038 A 
HETATM    3  C3  UNL     1      -7.312  19.992   5.054  1.00  0.00     0.065 A 
HETATM    4  C4  UNL     1      -8.673  19.873   5.318  1.00  0.00     0.038 A 
HETATM    5  C5  UNL     1      -9.117  19.878   6.643  1.00  0.00     0.026 A 
HETATM    6  C6  UNL     1      -8.209  19.960   7.704  1.00  0.00     0.005 A 
HETATM    7  N1  UNL     1      -8.671  20.085   9.019  1.00  0.00    -0.303 NA
HETATM    8  H5  UNL     1      -8.853  21.044   9.298  1.00  0.00     0.124 HD
HETATM    9  H6  UNL     1      -8.110  19.584   9.700  1.00  0.00     0.124 HD
HETATM   10  O1  UNL     1      -6.833  19.994   3.779  1.00  0.00    -0.361 OA
HETATM   11  H7  UNL     1      -5.947  20.390   3.782  1.00  0.00     0.217 HD
HETATM    1  C1  UNL     1      -9.169  19.897   6.721  1.00  0.00     0.026 A 
HETATM    2  C2  UNL     1      -8.658  19.815   5.424  1.00  0.00     0.038 A 
HETATM    3  C3  UNL     1      -7.289  19.910   5.217  1.00  0.00     0.065 A 
HETATM    4  C4  UNL     1      -6.420  20.070   6.291  1.00  0.00     0.038 A 
HETATM    5  C5  UNL     1      -6.939  20.152   7.587  1.00  0.00     0.026 A 
HETATM    6  C6  UNL     1      -8.319  20.118   7.810  1.00  0.00     0.005 A 
HETATM    7  N1  UNL     1      -8.822  20.081   9.115  1.00  0.00    -0.303 NA
HETATM    8  H5  UNL     1      -8.633  20.925   9.649  1.00  0.00     0.124 HD
HETATM    9  H6  UNL     1      -8.578  19.239   9.626  1.00  0.00     0.124 HD
HETATM   10  O1  UNL     1      -6.829  19.822   3.938  1.00  0.00    -0.361 OA
HETATM   11  H7  UNL     1      -7.243  19.055   3.512  1.00  0.00     0.217 HD
HETATM    1  C1  UNL     1      -6.692  21.098   3.992  1.00  0.00     0.026 A 
HETATM    2  C2  UNL     1      -6.379  22.452   3.847  1.00  0.00     0.038 A 
HETATM    3  C3  UNL     1      -5.591  23.082   4.800  1.00  0.00     0.065 A 
HETATM    4  C4  UNL     1      -5.095  22.373   5.889  1.00  0.00     0.038 A 
HETATM    5  C5  UNL     1      -5.413  21.019   6.028  1.00  0.00     0.026 A 
HETATM    6  C6  UNL     1      -6.254  20.382   5.111  1.00  0.00     0.005 A 
HETATM    7  N1  UNL     1      -6.470  19.001   5.192  1.00  0.00    -0.303 NA
HETATM    8  H5  UNL     1      -5.668  18.446   4.908  1.00  0.00     0.124 HD
HETATM    9  H6  UNL     1      -7.329  18.693   4.751  1.00  0.00     0.124 HD
HETATM   10  O1  UNL     1      -5.306  24.402   4.621  1.00  0.00    -0.361 OA
HETATM   11  H7  UNL     1      -6.106  24.852   4.307  1.00  0.00     0.217 HD
HETATM    1  C1  UNL     1      -5.682  21.681   6.916  1.00  0.00     0.026 A 
HETATM    2  C2  UNL     1      -5.629  22.121   5.591  1.00  0.00     0.038 A 
HETATM    3  C3  UNL     1      -6.196  21.350   4.587  1.00  0.00     0.065 A 
HETATM    4  C4  UNL     1      -6.831  20.151   4.888  1.00  0.00     0.038 A 
HETATM    5  C5  UNL     1      -6.879  19.715   6.216  1.00  0.00     0.026 A 
HETATM    6  C6  UNL     1      -6.262  20.449   7.234  1.00  0.00     0.005 A 
HETATM    7  N1  UNL     1      -6.418  20.067   8.572  1.00  0.00    -0.303 NA
HETATM    8  H5  UNL     1      -6.727  20.821   9.177  1.00  0.00     0.124 HD
HETATM    9  H6  UNL     1      -5.620  19.569   8.951  1.00  0.00     0.124 HD
HETATM   10  O1  UNL     1      -6.126  21.816   3.308  1.00  0.00    -0.361 OA
HETATM   11  H7  UNL     1      -5.317  21.472   2.897  1.00  0.00     0.217 HD
HETATM    1  C1  UNL     1      -5.832  22.220   5.737  1.00  0.00     0.026 A 
HETATM    2  C2  UNL     1      -5.863  21.720   7.040  1.00  0.00     0.038 A 
HETATM    3  C3  UNL     1      -6.375  20.452   7.278  1.00  0.00     0.065 A 
HETATM    4  C4  UNL     1      -6.842  19.669   6.228  1.00  0.00     0.038 A 
HETATM    5  C5  UNL     1      -6.809  20.177   4.926  1.00  0.00     0.026 A 
HETATM    6  C6  UNL     1      -6.351  21.475   4.674  1.00  0.00     0.005 A 
HETATM    7  N1  UNL     1      -6.211  21.929   3.358  1.00  0.00    -0.303 NA
HETATM    8  H5  UNL     1      -7.068  21.884   2.817  1.00  0.00     0.124 HD
HETATM    9  H6  UNL     1      -5.422  21.524   2.866  1.00  0.00     0.124 HD
HETATM   10  O1  UNL     1      -6.385  19.998   8.563  1.00  0.00    -0.361 OA
HETATM   11  H7  UNL     1      -7.306  19.845   8.830  1.00  0.00     0.217 HD
HETATM    1  C1  UNL     1      -5.538  22.392   6.231  1.00  0.00     0.026 A 
HETATM    2  C2  UNL     1      -5.741  21.011   6.279  1.00  0.00     0.038 A 
HETATM    3  C3  UNL     1      -6.210  20.345   5.156  1.00  0.00     0.065 A 
HETATM    4  C4  UNL     1      -6.465  21.038   3.977  1.00  0.00     0.038 A 
HETATM    5  C5  UNL     1      -6.260  22.420   3.937  1.00  0.00     0.026 A 
HETATM    6  C6  UNL     1      -5.844  23.117   5.076  1.00  0.00     0.005 A 
HETATM    7  N1  UNL     1      -5.529  24.478   4.993  1.00  0.00    -0.303 NA
HETATM    8  H5  UNL     1      -4.657  24.666   4.507  1.00  0.00     0.124 HD
HETATM    9  H6  UNL     1      -5.591  24.969   5.878  1.00  0.00     0.124 HD
HETATM   10  O1  UNL     1      -6.393  18.997   5.242  1.00  0.00    -0.361 OA
HETATM   11  H7  UNL     1      -6.643  18.777   6.154  1.00  0.00     0.217 HD
HETATM    1  C1  UNL     1      -5.955  21.309   5.831  1.00  0.00     0.026 A 
HETATM    2  C2  UNL     1      -6.112  22.374   6.720  1.00  0.00     0.038 A 
HETATM    3  C3  UNL     1      -6.897  22.214   7.854  1.00  0.00     0.065 A 
HETATM    4  C4  UNL     1      -7.515  20.998   8.121  1.00  0.00     0.038 A 
HETATM    5  C5  UNL     1      -7.354  19.936   7.226  1.00  0.00     0.026 A 
HETATM    6  C6  UNL     1      -6.616  20.096   6.049  1.00  0.00     0.005 A 
HETATM    7  N1  UNL     1      -6.362  18.996   5.221  1.00  0.00    -0.303 NA
HETATM    8  H5  UNL     1      -6.809  19.059   4.312  1.00  0.00     0.124 HD
HETATM    9  H6  UNL     1      -6.522  18.100   5.669  1.00  0.00     0.124 HD
HETATM   10  O1  UNL     1      -7.023  23.277   8.698  1.00  0.00    -0.361 OA
HETATM   11  H7  UNL     1      -6.604  23.052   9.544  1.00  0.00     0.217 HD
HETATM    1  C1  UNL     1      -7.341  22.178   3.781  1.00  0.00     0.026 A 
HETATM    2  C2  UNL     1      -7.300  20.814   4.077  1.00  0.00     0.038 A 
HETATM    3  C3  UNL     1      -6.359  20.333   4.976  1.00  0.00     0.065 A 
HETATM    4  C4  UNL     1      -5.467  21.199   5.599  1.00  0.00     0.038 A 
HETATM    5  C5  UNL     1      -5.514  22.564   5.297  1.00  0.00     0.026 A 
HETATM    6  C6  UNL     1      -6.415  23.059   4.350  1.00  0.00     0.005 A 
HETATM    7  N1  UNL     1      -6.535  24.438   4.144  1.00  0.00    -0.303 NA
HETATM    8  H5  UNL     1      -5.867  24.810   3.475  1.00  0.00     0.124 HD
HETATM    9  H6  UNL     1      -6.566  24.980   5.001  1.00  0.00     0.124 HD
HETATM   10  O1  UNL     1      -6.353  18.996   5.239  1.00  0.00    -0.361 OA
HETATM   11  H7  UNL     1      -5.517  18.771   5.680  1.00  0.00     0.217 HD
HETATM    1  C1  UNL     1      -7.596  20.649   4.081  1.00  0.00     0.026 A 
HETATM    2  C2  UNL     1      -6.367  21.301   4.206  1.00  0.00     0.038 A 
HETATM    3  C3  UNL     1      -5.659  21.212   5.396  1.00  0.00     0.065 A 
HETATM    4  C4  UNL     1      -6.155  20.467   6.461  1.00  0.00     0.038 A 
HETATM    5  C5  UNL     1      -7.386  19.818   6.329  1.00  0.00     0.026 A 
HETATM    6  C6  UNL     1      -8.141  19.944   5.158  1.00  0.00     0.005 A 
HETATM    7  N1  UNL     1      -9.312  19.196   4.992  1.00  0.00    -0.303 NA
HETATM    8  H5  UNL     1      -9.149  18.254   4.649  1.00  0.00     0.124 HD
HETATM    9  H6  UNL     1     -10.036  19.677   4.469  1.00  0.00     0.124 HD
HETATM   10  O1  UNL     1      -4.463  21.860   5.478  1.00  0.00    -0.361 OA
HETATM   11  H7  UNL     1      -3.993  21.544   6.265  1.00  0.00     0.217 HD
HETATM    1  C1  UNL     1       3.421  29.425   9.592  1.00  0.00     0.026 A 
HETATM    2  C2  UNL     1       3.560  30.220   8.452  1.00  0.00     0.038 A 
HETATM    3  C3  UNL     1       4.810  30.711   8.103  1.00  0.00     0.065 A 
HETATM    4  C4  UNL     1       5.929  30.405   8.870  1.00  0.00     0.038 A 
HETATM    5  C5  UNL     1       5.783  29.610  10.010  1.00  0.00     0.026 A 
HETATM    6  C6  UNL     1       4.522  29.155  10.410  1.00  0.00     0.005 A 
HETATM    7  N1  UNL     1       4.402  28.264  11.482  1.00  0.00    -0.303 NA
HETATM    8  H5  UNL     1       3.747  27.507  11.313  1.00  0.00     0.124 HD
HETATM    9  H6  UNL     1       4.246  28.716  12.377  1.00  0.00     0.124 HD
HETATM   10  O1  UNL     1       4.905  31.480   6.983  1.00  0.00    -0.361 OA
HETATM   11  H7  UNL     1       4.104  31.351   6.450  1.00  0.00     0.217 HD
HETATM    1  C1  UNL     1      -4.964  26.146  13.074  1.00  0.00     0.026 A 
HETATM    2  C2  UNL     1      -5.910  25.772  12.117  1.00  0.00     0.038 A 
HETATM    3  C3  UNL     1      -5.558  25.750  10.775  1.00  0.00     0.065 A 
HETATM    4  C4  UNL     1      -4.268  26.082  10.375  1.00  0.00     0.038 A 
HETATM    5  C5  UNL     1      -3.328  26.457  11.339  1.00  0.00     0.026 A 
HETATM    6  C6  UNL     1      -3.680  26.542  12.690  1.00  0.00     0.005 A 
HETATM    7  N1  UNL     1      -2.703  26.801  13.658  1.00  0.00    -0.303 NA
HETATM    8  H5  UNL     1      -1.855  26.254  13.539  1.00  0.00     0.124 HD
HETATM    9  H6  UNL     1      -3.051  26.773  14.610  1.00  0.00     0.124 HD
HETATM   10  O1  UNL     1      -6.508  25.377   9.872  1.00  0.00    -0.361 OA
HETATM   11  H7  UNL     1      -6.328  25.824   9.030  1.00  0.00     0.217 HD
HETATM    1  C1  UNL     1       6.209  30.210   9.076  1.00  0.00     0.026 A 
HETATM    2  C2  UNL     1       6.204  29.502  10.280  1.00  0.00     0.038 A 
HETATM    3  C3  UNL     1       5.000  29.078  10.824  1.00  0.00     0.065 A 
HETATM    4  C4  UNL     1       3.799  29.335  10.172  1.00  0.00     0.038 A 
HETATM    5  C5  UNL     1       3.812  30.045   8.967  1.00  0.00     0.026 A 
HETATM    6  C6  UNL     1       5.010  30.532   8.434  1.00  0.00     0.005 A 
HETATM    7  N1  UNL     1       5.025  31.136   7.172  1.00  0.00    -0.303 NA
HETATM    8  H5  UNL     1       4.287  30.811   6.555  1.00  0.00     0.124 HD
HETATM    9  H6  UNL     1       5.935  31.126   6.723  1.00  0.00     0.124 HD
HETATM   10  O1  UNL     1       5.037  28.388  11.998  1.00  0.00    -0.361 OA
HETATM   11  H7  UNL     1       4.204  28.539  12.473  1.00  0.00     0.217 HD
HETATM    1  C1  UNL     1      -0.531  27.946   0.345  1.00  0.00     0.026 A 
HETATM    2  C2  UNL     1      -0.696  26.575   0.555  1.00  0.00     0.038 A 
HETATM    3  C3  UNL     1      -0.531  25.693  -0.503  1.00  0.00     0.065 A 
HETATM    4  C4  UNL     1      -0.185  26.159  -1.767  1.00  0.00     0.038 A 
HETATM    5  C5  UNL     1      -0.022  27.533  -1.969  1.00  0.00     0.026 A 
HETATM    6  C6  UNL     1      -0.243  28.442  -0.930  1.00  0.00     0.005 A 
HETATM    7  N1  UNL     1       0.038  29.801  -1.111  1.00  0.00    -0.303 NA
HETATM    8  H5  UNL     1       1.014  29.992  -1.319  1.00  0.00     0.124 HD
HETATM    9  H6  UNL     1      -0.323  30.397  -0.374  1.00  0.00     0.124 HD
HETATM   10  O1  UNL     1      -0.698  24.363  -0.258  1.00  0.00    -0.361 OA
HETATM   11  H7  UNL     1      -1.611  24.120  -0.478  1.00  0.00     0.217 HD
HETATM    1  C1  UNL     1       5.242  30.249   9.744  1.00  0.00     0.026 A 
HETATM    2  C2  UNL     1       6.356  29.438   9.973  1.00  0.00     0.038 A 
HETATM    3  C3  UNL     1       6.284  28.420  10.912  1.00  0.00     0.065 A 
HETATM    4  C4  UNL     1       5.107  28.188  11.616  1.00  0.00     0.038 A 
HETATM    5  C5  UNL     1       3.997  29.004  11.383  1.00  0.00     0.026 A 
HETATM    6  C6  UNL     1       4.069  30.073  10.483  1.00  0.00     0.005 A 
HETATM    7  N1  UNL     1       2.920  30.808  10.169  1.00  0.00    -0.303 NA
HETATM    8  H5  UNL     1       2.606  30.685   9.211  1.00  0.00     0.124 HD
HETATM    9  H6  UNL     1       2.972  31.785  10.436  1.00  0.00     0.124 HD
HETATM   10  O1  UNL     1       7.391  27.649  11.105  1.00  0.00    -0.361 OA
HETATM   11  H7  UNL     1       7.431  27.392  12.040  1.00  0.00     0.217 HD
HETATM    1  C1  UNL     1      -4.497  26.473  10.507  1.00  0.00     0.026 A 
HETATM    2  C2  UNL     1      -3.422  26.624  11.386  1.00  0.00     0.038 A 
HETATM    3  C3  UNL     1      -3.634  26.533  12.754  1.00  0.00     0.065 A 
HETATM    4  C4  UNL     1      -4.905  26.277  13.258  1.00  0.00     0.038 A 
HETATM    5  C5  UNL     1      -5.976  26.128  12.372  1.00  0.00     0.026 A 
HETATM    6  C6  UNL     1      -5.793  26.274  10.993  1.00  0.00     0.005 A 
HETATM    7  N1  UNL     1      -6.844  26.006  10.110  1.00  0.00    -0.303 NA
HETATM    8  H5  UNL     1      -6.890  25.037   9.812  1.00  0.00     0.124 HD
HETATM    9  H6  UNL     1      -6.900  26.653   9.330  1.00  0.00     0.124 HD
HETATM   10  O1  UNL     1      -2.560  26.683  13.578  1.00  0.00    -0.361 OA
HETATM   11  H7  UNL     1      -2.822  27.236  14.332  1.00  0.00     0.217 HD
HETATM    1  C1  UNL     1      -0.652  26.489   0.458  1.00  0.00     0.026 A 
HETATM    2  C2  UNL     1      -0.560  27.869   0.269  1.00  0.00     0.038 A 
HETATM    3  C3  UNL     1      -0.307  28.375  -0.999  1.00  0.00     0.065 A 
HETATM    4  C4  UNL     1      -0.161  27.520  -2.086  1.00  0.00     0.038 A 
HETATM    5  C5  UNL     1      -0.253  26.139  -1.889  1.00  0.00     0.026 A 
HETATM    6  C6  UNL     1      -0.448  25.608  -0.609  1.00  0.00     0.005 A 
HETATM    7  N1  UNL     1      -0.658  24.235  -0.441  1.00  0.00    -0.303 NA
HETATM    8  H5  UNL     1      -1.345  23.846  -1.078  1.00  0.00     0.124 HD
HETATM    9  H6  UNL     1      -0.824  23.960   0.522  1.00  0.00     0.124 HD
HETATM   10  O1  UNL     1      -0.228  29.728  -1.143  1.00  0.00    -0.361 OA
HETATM   11  H7  UNL     1       0.049  30.113  -0.296  1.00  0.00     0.217 HD
HETATM    1  C1  UNL     1       3.133  31.913   8.138  1.00  0.00     0.026 A 
HETATM    2  C2  UNL     1       2.544  30.649   8.065  1.00  0.00     0.038 A 
HETATM    3  C3  UNL     1       3.014  29.623   8.873  1.00  0.00     0.065 A 
HETATM    4  C4  UNL     1       4.056  29.847   9.766  1.00  0.00     0.038 A 
HETATM    5  C5  UNL     1       4.642  31.114   9.832  1.00  0.00     0.026 A 
HETATM    6  C6  UNL     1       4.221  32.144   8.985  1.00  0.00     0.005 A 
HETATM    7  N1  UNL     1       4.731  33.438   9.142  1.00  0.00    -0.303 NA
HETATM    8  H5  UNL     1       4.751  33.755  10.106  1.00  0.00     0.124 HD
HETATM    9  H6  UNL     1       4.314  34.122   8.519  1.00  0.00     0.124 HD
HETATM   10  O1  UNL     1       2.410  28.406   8.774  1.00  0.00    -0.361 OA
HETATM   11  H7  UNL     1       2.919  27.765   9.296  1.00  0.00     0.217 HD
HETATM    1  C1  UNL     1      -3.642  28.498  12.600  1.00  0.00     0.026 A 
HETATM    2  C2  UNL     1      -4.038  29.113  11.410  1.00  0.00     0.038 A 
HETATM    3  C3  UNL     1      -4.041  28.386  10.228  1.00  0.00     0.065 A 
HETATM    4  C4  UNL     1      -3.669  27.046  10.220  1.00  0.00     0.038 A 
HETATM    5  C5  UNL     1      -3.273  26.438  11.415  1.00  0.00     0.026 A 
HETATM    6  C6  UNL     1      -3.207  27.169  12.605  1.00  0.00     0.005 A 
HETATM    7  N1  UNL     1      -2.925  26.524  13.814  1.00  0.00    -0.303 NA
HETATM    8  H5  UNL     1      -2.321  25.714  13.713  1.00  0.00     0.124 HD
HETATM    9  H6  UNL     1      -3.747  26.325  14.375  1.00  0.00     0.124 HD
HETATM   10  O1  UNL     1      -4.436  29.021   9.089  1.00  0.00    -0.361 OA
HETATM   11  H7  UNL     1      -4.180  29.955   9.150  1.00  0.00     0.217 HD
