MODEL 1
REMARK VINA RESULT:      -5.1      0.000      0.000
REMARK  2 active torsions:
REMARK  status: ('A' for Active; 'I' for Inactive)
REMARK    1  A    between atoms: C3_3  and  O1_8 
REMARK    2  A    between atoms: C6_6  and  N1_7 
ROOT
HETATM    1  C1  UNL     1      -2.350   7.125   3.979  1.00  0.00     0.026 A 
HETATM    2  C2  UNL     1      -2.086   7.014   5.346  1.00  0.00     0.038 A 
HETATM    3  C3  UNL     1      -0.870   7.455   5.850  1.00  0.00     0.065 A 
HETATM    4  C4  UNL     1       0.081   8.021   5.008  1.00  0.00     0.038 A 
HETATM    5  C5  UNL     1      -0.189   8.127   3.641  1.00  0.00     0.026 A 
HETATM    6  C6  UNL     1      -1.384   7.635   3.106  1.00  0.00     0.005 A 
ENDROOT
BRANCH   6   7
HETATM    7  N1  UNL     1      -1.696   7.853   1.759  1.00  0.00    -0.303 NA
HETATM    8  H5  UNL     1      -2.380   7.201   1.388  1.00  0.00     0.124 HD
HETATM    9  H6  UNL     1      -0.883   7.942   1.159  1.00  0.00     0.124 HD
ENDBRANCH   6   7
BRANCH   3  10
HETATM   10  O1  UNL     1      -0.652   7.333   7.189  1.00  0.00    -0.361 OA
HETATM   11  H7  UNL     1       0.300   7.419   7.357  1.00  0.00     0.217 HD
ENDBRANCH   3  10
TORSDOF 2
ENDMDL
MODEL 2
REMARK VINA RESULT:      -5.0      2.781      3.265
REMARK  2 active torsions:
REMARK  status: ('A' for Active; 'I' for Inactive)
REMARK    1  A    between atoms: C3_3  and  O1_8 
REMARK    2  A    between atoms: C6_6  and  N1_7 
ROOT
HETATM    1  C1  UNL     1      -2.169   6.969   5.162  1.00  0.00     0.026 A 
HETATM    2  C2  UNL     1      -2.375   7.085   3.786  1.00  0.00     0.038 A 
HETATM    3  C3  UNL     1      -1.400   7.670   2.991  1.00  0.00     0.065 A 
HETATM    4  C4  UNL     1      -0.212   8.128   3.549  1.00  0.00     0.038 A 
HETATM    5  C5  UNL     1      -0.013   8.011   4.928  1.00  0.00     0.026 A 
HETATM    6  C6  UNL     1      -1.008   7.477   5.754  1.00  0.00     0.005 A 
ENDROOT
BRANCH   6   7
HETATM    7  N1  UNL     1      -0.753   7.255   7.112  1.00  0.00    -0.303 NA
HETATM    8  H5  UNL     1      -0.957   8.055   7.702  1.00  0.00     0.124 HD
HETATM    9  H6  UNL     1       0.164   6.861   7.298  1.00  0.00     0.124 HD
ENDBRANCH   6   7
BRANCH   3  10
HETATM   10  O1  UNL     1      -1.638   7.761   1.652  1.00  0.00    -0.361 OA
HETATM   11  H7  UNL     1      -2.105   6.960   1.365  1.00  0.00     0.217 HD
ENDBRANCH   3  10
TORSDOF 2
ENDMDL
MODEL 3
REMARK VINA RESULT:      -5.0      0.144      1.709
REMARK  2 active torsions:
REMARK  status: ('A' for Active; 'I' for Inactive)
REMARK    1  A    between atoms: C3_3  and  O1_8 
REMARK    2  A    between atoms: C6_6  and  N1_7 
ROOT
HETATM    1  C1  UNL     1      -0.295   8.104   3.619  1.00  0.00     0.026 A 
HETATM    2  C2  UNL     1      -0.054   7.983   4.990  1.00  0.00     0.038 A 
HETATM    3  C3  UNL     1      -1.012   7.399   5.807  1.00  0.00     0.065 A 
HETATM    4  C4  UNL     1      -2.202   6.920   5.272  1.00  0.00     0.038 A 
HETATM    5  C5  UNL     1      -2.437   7.046   3.899  1.00  0.00     0.026 A 
HETATM    6  C6  UNL     1      -1.509   7.683   3.069  1.00  0.00     0.005 A 
ENDROOT
BRANCH   6   7
HETATM    7  N1  UNL     1      -1.698   7.698   1.682  1.00  0.00    -0.303 NA
HETATM    8  H5  UNL     1      -1.240   6.931   1.200  1.00  0.00     0.124 HD
HETATM    9  H6  UNL     1      -1.505   8.596   1.251  1.00  0.00     0.124 HD
ENDBRANCH   6   7
BRANCH   3  10
HETATM   10  O1  UNL     1      -0.739   7.297   7.138  1.00  0.00    -0.361 OA
HETATM   11  H7  UNL     1       0.045   6.735   7.251  1.00  0.00     0.217 HD
ENDBRANCH   3  10
TORSDOF 2
ENDMDL
MODEL 4
REMARK VINA RESULT:      -4.9      2.827      3.717
REMARK  2 active torsions:
REMARK  status: ('A' for Active; 'I' for Inactive)
REMARK    1  A    between atoms: C3_3  and  O1_8 
REMARK    2  A    between atoms: C6_6  and  N1_7 
ROOT
HETATM    1  C1  UNL     1       0.247   8.236   5.516  1.00  0.00     0.026 A 
HETATM    2  C2  UNL     1       0.073   8.270   4.131  1.00  0.00     0.038 A 
HETATM    3  C3  UNL     1      -1.071   7.722   3.568  1.00  0.00     0.065 A 
HETATM    4  C4  UNL     1      -2.054   7.154   4.372  1.00  0.00     0.038 A 
HETATM    5  C5  UNL     1      -1.872   7.123   5.757  1.00  0.00     0.026 A 
HETATM    6  C6  UNL     1      -0.700   7.617   6.339  1.00  0.00     0.005 A 
ENDROOT
BRANCH   6   7
HETATM    7  N1  UNL     1      -0.580   7.689   7.731  1.00  0.00    -0.303 NA
HETATM    8  H5  UNL     1       0.365   7.528   8.068  1.00  0.00     0.124 HD
HETATM    9  H6  UNL     1      -1.267   7.136   8.231  1.00  0.00     0.124 HD
ENDBRANCH   6   7
BRANCH   3  10
HETATM   10  O1  UNL     1      -1.205   7.778   2.213  1.00  0.00    -0.361 OA
HETATM   11  H7  UNL     1      -0.389   8.142   1.836  1.00  0.00     0.217 HD
ENDBRANCH   3  10
TORSDOF 2
ENDMDL
MODEL 5
REMARK VINA RESULT:      -4.9      2.646      3.117
REMARK  2 active torsions:
REMARK  status: ('A' for Active; 'I' for Inactive)
REMARK    1  A    between atoms: C3_3  and  O1_8 
REMARK    2  A    between atoms: C6_6  and  N1_7 
ROOT
HETATM    1  C1  UNL     1      -1.596   7.728   5.675  1.00  0.00     0.026 A 
HETATM    2  C2  UNL     1      -2.551   7.294   4.753  1.00  0.00     0.038 A 
HETATM    3  C3  UNL     1      -2.244   7.279   3.400  1.00  0.00     0.065 A 
HETATM    4  C4  UNL     1      -0.988   7.677   2.955  1.00  0.00     0.038 A 
HETATM    5  C5  UNL     1      -0.038   8.112   3.884  1.00  0.00     0.026 A 
HETATM    6  C6  UNL     1      -0.348   8.190   5.245  1.00  0.00     0.005 A 
ENDROOT
BRANCH   6   7
HETATM    7  N1  UNL     1       0.645   8.511   6.177  1.00  0.00    -0.303 NA
HETATM    8  H5  UNL     1       0.411   9.306   6.764  1.00  0.00     0.124 HD
HETATM    9  H6  UNL     1       1.574   8.586   5.777  1.00  0.00     0.124 HD
ENDBRANCH   6   7
BRANCH   3  10
HETATM   10  O1  UNL     1      -3.201   6.846   2.533  1.00  0.00    -0.361 OA
HETATM   11  H7  UNL     1      -3.533   5.988   2.841  1.00  0.00     0.217 HD
ENDBRANCH   3  10
TORSDOF 2
ENDMDL
MODEL 6
REMARK VINA RESULT:      -4.9      2.940      3.435
REMARK  2 active torsions:
REMARK  status: ('A' for Active; 'I' for Inactive)
REMARK    1  A    between atoms: C3_3  and  O1_8 
REMARK    2  A    between atoms: C6_6  and  N1_7 
ROOT
HETATM    1  C1  UNL     1      -3.213   7.499   4.618  1.00  0.00     0.026 A 
HETATM    2  C2  UNL     1      -3.259   7.433   3.224  1.00  0.00     0.038 A 
HETATM    3  C3  UNL     1      -2.093   7.592   2.489  1.00  0.00     0.065 A 
HETATM    4  C4  UNL     1      -0.876   7.799   3.128  1.00  0.00     0.038 A 
HETATM    5  C5  UNL     1      -0.837   7.866   4.524  1.00  0.00     0.026 A 
HETATM    6  C6  UNL     1      -2.010   7.767   5.280  1.00  0.00     0.005 A 
ENDROOT
BRANCH   6   7
HETATM    7  N1  UNL     1      -1.946   7.715   6.677  1.00  0.00    -0.303 NA
HETATM    8  H5  UNL     1      -1.548   6.852   7.035  1.00  0.00     0.124 HD
HETATM    9  H6  UNL     1      -2.817   7.959   7.137  1.00  0.00     0.124 HD
ENDBRANCH   6   7
BRANCH   3  10
HETATM   10  O1  UNL     1      -2.179   7.518   1.131  1.00  0.00    -0.361 OA
HETATM   11  H7  UNL     1      -1.357   7.131   0.789  1.00  0.00     0.217 HD
ENDBRANCH   3  10
TORSDOF 2
ENDMDL
MODEL 7
REMARK VINA RESULT:      -4.8      1.482      2.462
REMARK  2 active torsions:
REMARK  status: ('A' for Active; 'I' for Inactive)
REMARK    1  A    between atoms: C3_3  and  O1_8 
REMARK    2  A    between atoms: C6_6  and  N1_7 
ROOT
HETATM    1  C1  UNL     1      -1.638   7.589   2.460  1.00  0.00     0.026 A 
HETATM    2  C2  UNL     1      -1.242   7.739   3.791  1.00  0.00     0.038 A 
HETATM    3  C3  UNL     1      -2.199   7.751   4.795  1.00  0.00     0.065 A 
HETATM    4  C4  UNL     1      -3.547   7.598   4.491  1.00  0.00     0.038 A 
HETATM    5  C5  UNL     1      -3.936   7.450   3.156  1.00  0.00     0.026 A 
HETATM    6  C6  UNL     1      -2.993   7.494   2.125  1.00  0.00     0.005 A 
ENDROOT
BRANCH   6   7
HETATM    7  N1  UNL     1      -3.376   7.226   0.806  1.00  0.00    -0.303 NA
HETATM    8  H5  UNL     1      -2.601   7.212   0.151  1.00  0.00     0.124 HD
HETATM    9  H6  UNL     1      -4.149   7.797   0.480  1.00  0.00     0.124 HD
ENDBRANCH   6   7
BRANCH   3  10
HETATM   10  O1  UNL     1      -1.773   7.897   6.081  1.00  0.00    -0.361 OA
HETATM   11  H7  UNL     1      -0.811   7.772   6.105  1.00  0.00     0.217 HD
ENDBRANCH   3  10
TORSDOF 2
ENDMDL
MODEL 8
REMARK VINA RESULT:      -4.7      1.426      2.388
REMARK  2 active torsions:
REMARK  status: ('A' for Active; 'I' for Inactive)
REMARK    1  A    between atoms: C3_3  and  O1_8 
REMARK    2  A    between atoms: C6_6  and  N1_7 
ROOT
HETATM    1  C1  UNL     1       0.450   8.713   5.103  1.00  0.00     0.026 A 
HETATM    2  C2  UNL     1       0.379   8.925   6.481  1.00  0.00     0.038 A 
HETATM    3  C3  UNL     1      -0.736   8.496   7.186  1.00  0.00     0.065 A 
HETATM    4  C4  UNL     1      -1.776   7.841   6.536  1.00  0.00     0.038 A 
HETATM    5  C5  UNL     1      -1.698   7.633   5.156  1.00  0.00     0.026 A 
HETATM    6  C6  UNL     1      -0.610   8.111   4.419  1.00  0.00     0.005 A 
ENDROOT
BRANCH   6   7
HETATM    7  N1  UNL     1      -0.485   7.794   3.061  1.00  0.00    -0.303 NA
HETATM    8  H5  UNL     1      -0.827   8.520   2.440  1.00  0.00     0.124 HD
HETATM    9  H6  UNL     1      -0.844   6.877   2.819  1.00  0.00     0.124 HD
ENDBRANCH   6   7
BRANCH   3  10
HETATM   10  O1  UNL     1      -0.767   8.719   8.530  1.00  0.00    -0.361 OA
HETATM   11  H7  UNL     1      -0.064   9.350   8.756  1.00  0.00     0.217 HD
ENDBRANCH   3  10
TORSDOF 2
ENDMDL
MODEL 9
REMARK VINA RESULT:      -4.6      2.672      3.269
REMARK  2 active torsions:
REMARK  status: ('A' for Active; 'I' for Inactive)
REMARK    1  A    between atoms: C3_3  and  O1_8 
REMARK    2  A    between atoms: C6_6  and  N1_7 
ROOT
HETATM    1  C1  UNL     1      -0.507   6.928   7.095  1.00  0.00     0.026 A 
HETATM    2  C2  UNL     1       0.179   7.890   7.840  1.00  0.00     0.038 A 
HETATM    3  C3  UNL     1      -0.136   9.232   7.687  1.00  0.00     0.065 A 
HETATM    4  C4  UNL     1      -1.140   9.628   6.810  1.00  0.00     0.038 A 
HETATM    5  C5  UNL     1      -1.821   8.660   6.066  1.00  0.00     0.026 A 
HETATM    6  C6  UNL     1      -1.478   7.308   6.163  1.00  0.00     0.005 A 
ENDROOT
BRANCH   6   7
HETATM    7  N1  UNL     1      -2.243   6.338   5.507  1.00  0.00    -0.303 NA
HETATM    8  H5  UNL     1      -2.035   5.388   5.799  1.00  0.00     0.124 HD
HETATM    9  H6  UNL     1      -2.255   6.438   4.497  1.00  0.00     0.124 HD
ENDBRANCH   6   7
BRANCH   3  10
HETATM   10  O1  UNL     1       0.554  10.140   8.434  1.00  0.00    -0.361 OA
HETATM   11  H7  UNL     1       1.480   9.853   8.492  1.00  0.00     0.217 HD
ENDBRANCH   3  10
TORSDOF 2
ENDMDL
MODEL 10
REMARK VINA RESULT:      -4.6      3.355      3.943
REMARK  2 active torsions:
REMARK  status: ('A' for Active; 'I' for Inactive)
REMARK    1  A    between atoms: C3_3  and  O1_8 
REMARK    2  A    between atoms: C6_6  and  N1_7 
ROOT
HETATM    1  C1  UNL     1      -1.180   9.564   6.701  1.00  0.00     0.026 A 
HETATM    2  C2  UNL     1      -1.876   8.552   6.038  1.00  0.00     0.038 A 
HETATM    3  C3  UNL     1      -1.509   7.227   6.227  1.00  0.00     0.065 A 
HETATM    4  C4  UNL     1      -0.465   6.897   7.084  1.00  0.00     0.038 A 
HETATM    5  C5  UNL     1       0.228   7.917   7.744  1.00  0.00     0.026 A 
HETATM    6  C6  UNL     1      -0.089   9.260   7.521  1.00  0.00     0.005 A 
ENDROOT
BRANCH   6   7
HETATM    7  N1  UNL     1       0.529  10.265   8.274  1.00  0.00    -0.303 NA
HETATM    8  H5  UNL     1       0.805   9.966   9.205  1.00  0.00     0.124 HD
HETATM    9  H6  UNL     1       0.019  11.142   8.286  1.00  0.00     0.124 HD
ENDBRANCH   6   7
BRANCH   3  10
HETATM   10  O1  UNL     1      -2.214   6.268   5.564  1.00  0.00    -0.361 OA
HETATM   11  H7  UNL     1      -2.508   6.632   4.714  1.00  0.00     0.217 HD
ENDBRANCH   3  10
TORSDOF 2
ENDMDL
MODEL 11
REMARK VINA RESULT:      -4.5      3.220      4.189
REMARK  2 active torsions:
REMARK  status: ('A' for Active; 'I' for Inactive)
REMARK    1  A    between atoms: C3_3  and  O1_8 
REMARK    2  A    between atoms: C6_6  and  N1_7 
ROOT
HETATM    1  C1  UNL     1       0.693   8.384   6.769  1.00  0.00     0.026 A 
HETATM    2  C2  UNL     1       0.389   8.202   5.418  1.00  0.00     0.038 A 
HETATM    3  C3  UNL     1      -0.913   7.905   5.040  1.00  0.00     0.065 A 
HETATM    4  C4  UNL     1      -1.921   7.803   5.992  1.00  0.00     0.038 A 
HETATM    5  C5  UNL     1      -1.609   7.985   7.343  1.00  0.00     0.026 A 
HETATM    6  C6  UNL     1      -0.293   8.227   7.749  1.00  0.00     0.005 A 
ENDROOT
BRANCH   6   7
HETATM    7  N1  UNL     1      -0.011   8.525   9.087  1.00  0.00    -0.303 NA
HETATM    8  H5  UNL     1      -0.691   9.144   9.519  1.00  0.00     0.124 HD
HETATM    9  H6  UNL     1       0.943   8.828   9.248  1.00  0.00     0.124 HD
ENDBRANCH   6   7
BRANCH   3  10
HETATM   10  O1  UNL     1      -1.169   7.738   3.712  1.00  0.00    -0.361 OA
HETATM   11  H7  UNL     1      -0.790   8.488   3.227  1.00  0.00     0.217 HD
ENDBRANCH   3  10
TORSDOF 2
ENDMDL
MODEL 12
REMARK VINA RESULT:      -4.3      3.249      3.938
REMARK  2 active torsions:
REMARK  status: ('A' for Active; 'I' for Inactive)
REMARK    1  A    between atoms: C3_3  and  O1_8 
REMARK    2  A    between atoms: C6_6  and  N1_7 
ROOT
HETATM    1  C1  UNL     1      -0.735   8.443   6.813  1.00  0.00     0.026 A 
HETATM    2  C2  UNL     1      -1.203   7.833   7.979  1.00  0.00     0.038 A 
HETATM    3  C3  UNL     1      -0.394   7.792   9.106  1.00  0.00     0.065 A 
HETATM    4  C4  UNL     1       0.872   8.366   9.090  1.00  0.00     0.038 A 
HETATM    5  C5  UNL     1       1.334   8.973   7.918  1.00  0.00     0.026 A 
HETATM    6  C6  UNL     1       0.557   8.974   6.756  1.00  0.00     0.005 A 
ENDROOT
BRANCH   6   7
HETATM    7  N1  UNL     1       0.977   9.686   5.627  1.00  0.00    -0.303 NA
HETATM    8  H5  UNL     1       0.431  10.523   5.446  1.00  0.00     0.124 HD
HETATM    9  H6  UNL     1       1.090   9.113   4.798  1.00  0.00     0.124 HD
ENDBRANCH   6   7
BRANCH   3  10
HETATM   10  O1  UNL     1      -0.888   7.190  10.225  1.00  0.00    -0.361 OA
HETATM   11  H7  UNL     1      -0.926   6.233  10.070  1.00  0.00     0.217 HD
ENDBRANCH   3  10
TORSDOF 2
ENDMDL
MODEL 13
REMARK VINA RESULT:      -4.2      3.583      4.244
REMARK  2 active torsions:
REMARK  status: ('A' for Active; 'I' for Inactive)
REMARK    1  A    between atoms: C3_3  and  O1_8 
REMARK    2  A    between atoms: C6_6  and  N1_7 
ROOT
HETATM    1  C1  UNL     1       0.338   7.411   7.348  1.00  0.00     0.026 A 
HETATM    2  C2  UNL     1      -0.831   7.268   6.597  1.00  0.00     0.038 A 
HETATM    3  C3  UNL     1      -1.609   8.382   6.317  1.00  0.00     0.065 A 
HETATM    4  C4  UNL     1      -1.227   9.643   6.763  1.00  0.00     0.038 A 
HETATM    5  C5  UNL     1      -0.057   9.778   7.516  1.00  0.00     0.026 A 
HETATM    6  C6  UNL     1       0.709   8.659   7.858  1.00  0.00     0.005 A 
ENDROOT
BRANCH   6   7
HETATM    7  N1  UNL     1       1.938   8.819   8.508  1.00  0.00    -0.303 NA
HETATM    8  H5  UNL     1       2.294   9.769   8.480  1.00  0.00     0.124 HD
HETATM    9  H6  UNL     1       2.637   8.136   8.237  1.00  0.00     0.124 HD
ENDBRANCH   6   7
BRANCH   3  10
HETATM   10  O1  UNL     1      -2.740   8.202   5.578  1.00  0.00    -0.361 OA
HETATM   11  H7  UNL     1      -3.199   7.411   5.903  1.00  0.00     0.217 HD
ENDBRANCH   3  10
TORSDOF 2
ENDMDL
MODEL 14
REMARK VINA RESULT:      -4.1      5.130      5.981
REMARK  2 active torsions:
REMARK  status: ('A' for Active; 'I' for Inactive)
REMARK    1  A    between atoms: C3_3  and  O1_8 
REMARK    2  A    between atoms: C6_6  and  N1_7 
ROOT
HETATM    1  C1  UNL     1       1.211   9.888   6.728  1.00  0.00     0.026 A 
HETATM    2  C2  UNL     1       1.361  10.596   5.534  1.00  0.00     0.038 A 
HETATM    3  C3  UNL     1       2.506  11.351   5.322  1.00  0.00     0.065 A 
HETATM    4  C4  UNL     1       3.513  11.396   6.281  1.00  0.00     0.038 A 
HETATM    5  C5  UNL     1       3.354  10.685   7.474  1.00  0.00     0.026 A 
HETATM    6  C6  UNL     1       2.182   9.966   7.731  1.00  0.00     0.005 A 
ENDROOT
BRANCH   6   7
HETATM    7  N1  UNL     1       2.084   9.163   8.873  1.00  0.00    -0.303 NA
HETATM    8  H5  UNL     1       1.203   8.664   8.946  1.00  0.00     0.124 HD
HETATM    9  H6  UNL     1       2.330   9.641   9.733  1.00  0.00     0.124 HD
ENDBRANCH   6   7
BRANCH   3  10
HETATM   10  O1  UNL     1       2.617  12.026   4.144  1.00  0.00    -0.361 OA
HETATM   11  H7  UNL     1       3.087  11.464   3.508  1.00  0.00     0.217 HD
ENDBRANCH   3  10
TORSDOF 2
ENDMDL
MODEL 15
REMARK VINA RESULT:      -4.1      4.140      5.140
REMARK  2 active torsions:
REMARK  status: ('A' for Active; 'I' for Inactive)
REMARK    1  A    between atoms: C3_3  and  O1_8 
REMARK    2  A    between atoms: C6_6  and  N1_7 
ROOT
HETATM    1  C1  UNL     1       3.143  11.263   6.523  1.00  0.00     0.026 A 
HETATM    2  C2  UNL     1       2.944  10.502   7.677  1.00  0.00     0.038 A 
HETATM    3  C3  UNL     1       1.846   9.658   7.764  1.00  0.00     0.065 A 
HETATM    4  C4  UNL     1       0.950   9.552   6.706  1.00  0.00     0.038 A 
HETATM    5  C5  UNL     1       1.154  10.318   5.555  1.00  0.00     0.026 A 
HETATM    6  C6  UNL     1       2.222  11.217   5.472  1.00  0.00     0.005 A 
ENDROOT
BRANCH   6   7
HETATM    7  N1  UNL     1       2.486  11.889   4.273  1.00  0.00    -0.303 NA
HETATM    8  H5  UNL     1       3.476  12.006   4.080  1.00  0.00     0.124 HD
HETATM    9  H6  UNL     1       1.968  12.755   4.165  1.00  0.00     0.124 HD
ENDBRANCH   6   7
BRANCH   3  10
HETATM   10  O1  UNL     1       1.689   8.930   8.905  1.00  0.00    -0.361 OA
HETATM   11  H7  UNL     1       2.004   9.458   9.655  1.00  0.00     0.217 HD
ENDBRANCH   3  10
TORSDOF 2
ENDMDL
MODEL 16
REMARK VINA RESULT:      -4.1      5.476      6.362
REMARK  2 active torsions:
REMARK  status: ('A' for Active; 'I' for Inactive)
REMARK    1  A    between atoms: C3_3  and  O1_8 
REMARK    2  A    between atoms: C6_6  and  N1_7 
ROOT
HETATM    1  C1  UNL     1       1.601   8.419  10.212  1.00  0.00     0.026 A 
HETATM    2  C2  UNL     1       2.804   9.128  10.224  1.00  0.00     0.038 A 
HETATM    3  C3  UNL     1       3.079  10.033   9.208  1.00  0.00     0.065 A 
HETATM    4  C4  UNL     1       2.161  10.253   8.188  1.00  0.00     0.038 A 
HETATM    5  C5  UNL     1       0.959   9.538   8.182  1.00  0.00     0.026 A 
HETATM    6  C6  UNL     1       0.690   8.579   9.164  1.00  0.00     0.005 A 
ENDROOT
BRANCH   6   7
HETATM    7  N1  UNL     1      -0.563   7.957   9.217  1.00  0.00    -0.303 NA
HETATM    8  H5  UNL     1      -0.884   7.767  10.161  1.00  0.00     0.124 HD
HETATM    9  H6  UNL     1      -0.645   7.148   8.610  1.00  0.00     0.124 HD
ENDBRANCH   6   7
BRANCH   3  10
HETATM   10  O1  UNL     1       4.262  10.708   9.257  1.00  0.00    -0.361 OA
HETATM   11  H7  UNL     1       4.935  10.125   9.644  1.00  0.00     0.217 HD
ENDBRANCH   3  10
TORSDOF 2
ENDMDL
MODEL 17
REMARK VINA RESULT:      -4.0      5.154      6.113
REMARK  2 active torsions:
REMARK  status: ('A' for Active; 'I' for Inactive)
REMARK    1  A    between atoms: C3_3  and  O1_8 
REMARK    2  A    between atoms: C6_6  and  N1_7 
ROOT
HETATM    1  C1  UNL     1       2.383  10.380   7.644  1.00  0.00     0.026 A 
HETATM    2  C2  UNL     1       1.316   9.550   7.292  1.00  0.00     0.038 A 
HETATM    3  C3  UNL     1       1.093   8.379   8.002  1.00  0.00     0.065 A 
HETATM    4  C4  UNL     1       1.911   8.031   9.070  1.00  0.00     0.038 A 
HETATM    5  C5  UNL     1       2.978   8.866   9.416  1.00  0.00     0.026 A 
HETATM    6  C6  UNL     1       3.255  10.020   8.677  1.00  0.00     0.005 A 
ENDROOT
BRANCH   6   7
HETATM    7  N1  UNL     1       4.249  10.909   9.102  1.00  0.00    -0.303 NA
HETATM    8  H5  UNL     1       4.215  11.112  10.097  1.00  0.00     0.124 HD
HETATM    9  H6  UNL     1       4.317  11.749   8.538  1.00  0.00     0.124 HD
ENDBRANCH   6   7
BRANCH   3  10
HETATM   10  O1  UNL     1       0.040   7.598   7.629  1.00  0.00    -0.361 OA
HETATM   11  H7  UNL     1       0.272   6.669   7.787  1.00  0.00     0.217 HD
ENDBRANCH   3  10
TORSDOF 2
ENDMDL
MODEL 18
REMARK VINA RESULT:      -3.8      3.658      4.530
REMARK  2 active torsions:
REMARK  status: ('A' for Active; 'I' for Inactive)
REMARK    1  A    between atoms: C3_3  and  O1_8 
REMARK    2  A    between atoms: C6_6  and  N1_7 
ROOT
HETATM    1  C1  UNL     1       0.387   8.787   5.686  1.00  0.00     0.026 A 
HETATM    2  C2  UNL     1       1.131   9.949   5.465  1.00  0.00     0.038 A 
HETATM    3  C3  UNL     1       1.889  10.487   6.494  1.00  0.00     0.065 A 
HETATM    4  C4  UNL     1       1.929   9.871   7.741  1.00  0.00     0.038 A 
HETATM    5  C5  UNL     1       1.182   8.710   7.956  1.00  0.00     0.026 A 
HETATM    6  C6  UNL     1       0.365   8.186   6.948  1.00  0.00     0.005 A 
ENDROOT
BRANCH   6   7
HETATM    7  N1  UNL     1      -0.284   6.960   7.134  1.00  0.00    -0.303 NA
HETATM    8  H5  UNL     1      -1.104   6.840   6.548  1.00  0.00     0.124 HD
HETATM    9  H6  UNL     1      -0.468   6.736   8.106  1.00  0.00     0.124 HD
ENDBRANCH   6   7
BRANCH   3  10
HETATM   10  O1  UNL     1       2.602  11.619   6.238  1.00  0.00    -0.361 OA
HETATM   11  H7  UNL     1       2.014  12.385   6.336  1.00  0.00     0.217 HD
ENDBRANCH   3  10
TORSDOF 2
ENDMDL
MODEL 19
REMARK VINA RESULT:      -3.7      5.955      6.490
REMARK  2 active torsions:
REMARK  status: ('A' for Active; 'I' for Inactive)
REMARK    1  A    between atoms: C3_3  and  O1_8 
REMARK    2  A    between atoms: C6_6  and  N1_7 
ROOT
HETATM    1  C1  UNL     1       1.350  11.791   6.512  1.00  0.00     0.026 A 
HETATM    2  C2  UNL     1       2.414  12.252   5.733  1.00  0.00     0.038 A 
HETATM    3  C3  UNL     1       3.698  11.785   5.977  1.00  0.00     0.065 A 
HETATM    4  C4  UNL     1       3.932  10.851   6.979  1.00  0.00     0.038 A 
HETATM    5  C5  UNL     1       2.863  10.395   7.756  1.00  0.00     0.026 A 
HETATM    6  C6  UNL     1       1.572  10.897   7.564  1.00  0.00     0.005 A 
ENDROOT
BRANCH   6   7
HETATM    7  N1  UNL     1       0.491  10.349   8.263  1.00  0.00    -0.303 NA
HETATM    8  H5  UNL     1      -0.113   9.767   7.690  1.00  0.00     0.124 HD
HETATM    9  H6  UNL     1      -0.031  11.026   8.809  1.00  0.00     0.124 HD
ENDBRANCH   6   7
BRANCH   3  10
HETATM   10  O1  UNL     1       4.708  12.257   5.194  1.00  0.00    -0.361 OA
HETATM   11  H7  UNL     1       4.720  11.750   4.366  1.00  0.00     0.217 HD
ENDBRANCH   3  10
TORSDOF 2
ENDMDL
MODEL 20
REMARK VINA RESULT:      -3.5      6.836      7.319
REMARK  2 active torsions:
REMARK  status: ('A' for Active; 'I' for Inactive)
REMARK    1  A    between atoms: C3_3  and  O1_8 
REMARK    2  A    between atoms: C6_6  and  N1_7 
ROOT
HETATM    1  C1  UNL     1       2.548  12.232   8.545  1.00  0.00     0.026 A 
HETATM    2  C2  UNL     1       1.899  12.720   7.409  1.00  0.00     0.038 A 
HETATM    3  C3  UNL     1       2.302  12.295   6.151  1.00  0.00     0.065 A 
HETATM    4  C4  UNL     1       3.336  11.376   6.011  1.00  0.00     0.038 A 
HETATM    5  C5  UNL     1       3.982  10.893   7.153  1.00  0.00     0.026 A 
HETATM    6  C6  UNL     1       3.629  11.354   8.426  1.00  0.00     0.005 A 
ENDROOT
BRANCH   6   7
HETATM    7  N1  UNL     1       4.199  10.777   9.567  1.00  0.00    -0.303 NA
HETATM    8  H5  UNL     1       3.564  10.173  10.079  1.00  0.00     0.124 HD
HETATM    9  H6  UNL     1       4.671  11.442  10.171  1.00  0.00     0.124 HD
ENDBRANCH   6   7
BRANCH   3  10
HETATM   10  O1  UNL     1       1.641  12.792   5.067  1.00  0.00    -0.361 OA
HETATM   11  H7  UNL     1       0.827  12.280   4.939  1.00  0.00     0.217 HD
ENDBRANCH   3  10
TORSDOF 2
ENDMDL
