HETATM    1  C1  UNL     1      -4.152   9.469   6.155  1.00  0.00     0.026 A 
HETATM    2  C2  UNL     1      -4.912   9.867   7.257  1.00  0.00     0.038 A 
HETATM    3  C3  UNL     1      -4.818   9.162   8.449  1.00  0.00     0.065 A 
HETATM    4  C4  UNL     1      -3.961   8.072   8.561  1.00  0.00     0.038 A 
HETATM    5  C5  UNL     1      -3.204   7.679   7.453  1.00  0.00     0.026 A 
HETATM    6  C6  UNL     1      -3.329   8.341   6.227  1.00  0.00     0.005 A 
HETATM    7  N1  UNL     1      -2.482   8.017   5.162  1.00  0.00    -0.303 NA
HETATM    8  H5  UNL     1      -2.741   7.162   4.680  1.00  0.00     0.124 HD
HETATM    9  H6  UNL     1      -1.496   8.042   5.399  1.00  0.00     0.124 HD
HETATM   10  O1  UNL     1      -5.574   9.583   9.501  1.00  0.00    -0.361 OA
HETATM   11  H7  UNL     1      -6.307   8.959   9.625  1.00  0.00     0.217 HD
HETATM    1  C1  UNL     1      -3.891   8.008   8.478  1.00  0.00     0.026 A 
HETATM    2  C2  UNL     1      -3.117   7.652   7.372  1.00  0.00     0.038 A 
HETATM    3  C3  UNL     1      -3.245   8.361   6.186  1.00  0.00     0.065 A 
HETATM    4  C4  UNL     1      -4.126   9.433   6.094  1.00  0.00     0.038 A 
HETATM    5  C5  UNL     1      -4.898   9.782   7.205  1.00  0.00     0.026 A 
HETATM    6  C6  UNL     1      -4.826   9.043   8.390  1.00  0.00     0.005 A 
HETATM    7  N1  UNL     1      -5.513   9.473   9.532  1.00  0.00    -0.303 NA
HETATM    8  H5  UNL     1      -4.905   9.697  10.313  1.00  0.00     0.124 HD
HETATM    9  H6  UNL     1      -6.281   8.867   9.801  1.00  0.00     0.124 HD
HETATM   10  O1  UNL     1      -2.470   7.984   5.130  1.00  0.00    -0.361 OA
HETATM   11  H7  UNL     1      -2.669   8.564   4.378  1.00  0.00     0.217 HD
HETATM    1  C1  UNL     1      -3.486   8.298   6.188  1.00  0.00     0.026 A 
HETATM    2  C2  UNL     1      -2.997   7.585   7.285  1.00  0.00     0.038 A 
HETATM    3  C3  UNL     1      -3.493   7.850   8.554  1.00  0.00     0.065 A 
HETATM    4  C4  UNL     1      -4.485   8.806   8.740  1.00  0.00     0.038 A 
HETATM    5  C5  UNL     1      -4.969   9.516   7.638  1.00  0.00     0.026 A 
HETATM    6  C6  UNL     1      -4.440   9.305   6.360  1.00  0.00     0.005 A 
HETATM    7  N1  UNL     1      -5.012   9.933   5.248  1.00  0.00    -0.303 NA
HETATM    8  H5  UNL     1      -5.983   9.680   5.091  1.00  0.00     0.124 HD
HETATM    9  H6  UNL     1      -4.454   9.862   4.404  1.00  0.00     0.124 HD
HETATM   10  O1  UNL     1      -2.992   7.132   9.598  1.00  0.00    -0.361 OA
HETATM   11  H7  UNL     1      -2.544   6.346   9.247  1.00  0.00     0.217 HD
HETATM    1  C1  UNL     1      -3.049   7.618   7.201  1.00  0.00     0.026 A 
HETATM    2  C2  UNL     1      -3.446   8.366   6.090  1.00  0.00     0.038 A 
HETATM    3  C3  UNL     1      -4.309   9.440   6.257  1.00  0.00     0.065 A 
HETATM    4  C4  UNL     1      -4.769   9.789   7.522  1.00  0.00     0.038 A 
HETATM    5  C5  UNL     1      -4.368   9.036   8.629  1.00  0.00     0.026 A 
HETATM    6  C6  UNL     1      -3.546   7.915   8.474  1.00  0.00     0.005 A 
HETATM    7  N1  UNL     1      -3.055   7.240   9.598  1.00  0.00    -0.303 NA
HETATM    8  H5  UNL     1      -3.427   7.587  10.477  1.00  0.00     0.124 HD
HETATM    9  H6  UNL     1      -2.045   7.151   9.614  1.00  0.00     0.124 HD
HETATM   10  O1  UNL     1      -4.671  10.146   5.149  1.00  0.00    -0.361 OA
HETATM   11  H7  UNL     1      -5.372  10.770   5.395  1.00  0.00     0.217 HD
HETATM    1  C1  UNL     1     -10.503   5.514   1.472  1.00  0.00     0.026 A 
HETATM    2  C2  UNL     1     -10.550   6.372   0.370  1.00  0.00     0.038 A 
HETATM    3  C3  UNL     1      -9.697   7.465   0.313  1.00  0.00     0.065 A 
HETATM    4  C4  UNL     1      -8.784   7.705   1.334  1.00  0.00     0.038 A 
HETATM    5  C5  UNL     1      -8.744   6.843   2.434  1.00  0.00     0.026 A 
HETATM    6  C6  UNL     1      -9.636   5.770   2.538  1.00  0.00     0.005 A 
HETATM    7  N1  UNL     1      -9.509   4.847   3.581  1.00  0.00    -0.303 NA
HETATM    8  H5  UNL     1      -9.798   5.209   4.485  1.00  0.00     0.124 HD
HETATM    9  H6  UNL     1      -8.602   4.393   3.620  1.00  0.00     0.124 HD
HETATM   10  O1  UNL     1      -9.771   8.276  -0.780  1.00  0.00    -0.361 OA
HETATM   11  H7  UNL     1      -9.596   9.189  -0.500  1.00  0.00     0.217 HD
HETATM    1  C1  UNL     1     -10.550   6.444   0.409  1.00  0.00     0.026 A 
HETATM    2  C2  UNL     1     -10.445   5.589   1.509  1.00  0.00     0.038 A 
HETATM    3  C3  UNL     1      -9.501   5.848   2.492  1.00  0.00     0.065 A 
HETATM    4  C4  UNL     1      -8.670   6.959   2.401  1.00  0.00     0.038 A 
HETATM    5  C5  UNL     1      -8.780   7.809   1.297  1.00  0.00     0.026 A 
HETATM    6  C6  UNL     1      -9.684   7.533   0.267  1.00  0.00     0.005 A 
HETATM    7  N1  UNL     1      -9.871   8.451  -0.773  1.00  0.00    -0.303 NA
HETATM    8  H5  UNL     1     -10.159   9.372  -0.457  1.00  0.00     0.124 HD
HETATM    9  H6  UNL     1     -10.451   8.103  -1.529  1.00  0.00     0.124 HD
HETATM   10  O1  UNL     1      -9.431   4.993   3.551  1.00  0.00    -0.361 OA
HETATM   11  H7  UNL     1      -8.668   5.239   4.098  1.00  0.00     0.217 HD
HETATM    1  C1  UNL     1      -8.686   6.888   2.450  1.00  0.00     0.026 A 
HETATM    2  C2  UNL     1      -8.765   7.794   1.389  1.00  0.00     0.038 A 
HETATM    3  C3  UNL     1      -9.689   7.587   0.375  1.00  0.00     0.065 A 
HETATM    4  C4  UNL     1     -10.549   6.495   0.414  1.00  0.00     0.038 A 
HETATM    5  C5  UNL     1     -10.464   5.592   1.478  1.00  0.00     0.026 A 
HETATM    6  C6  UNL     1      -9.499   5.751   2.478  1.00  0.00     0.005 A 
HETATM    7  N1  UNL     1      -9.500   4.912   3.598  1.00  0.00    -0.303 NA
HETATM    8  H5  UNL     1     -10.392   4.879   4.082  1.00  0.00     0.124 HD
HETATM    9  H6  UNL     1      -8.723   5.070   4.230  1.00  0.00     0.124 HD
HETATM   10  O1  UNL     1      -9.737   8.494  -0.640  1.00  0.00    -0.361 OA
HETATM   11  H7  UNL     1     -10.651   8.805  -0.734  1.00  0.00     0.217 HD
HETATM    1  C1  UNL     1      -7.737   7.991   1.616  1.00  0.00     0.026 A 
HETATM    2  C2  UNL     1      -8.276   7.161   2.602  1.00  0.00     0.038 A 
HETATM    3  C3  UNL     1      -9.400   6.398   2.320  1.00  0.00     0.065 A 
HETATM    4  C4  UNL     1      -9.985   6.439   1.060  1.00  0.00     0.038 A 
HETATM    5  C5  UNL     1      -9.442   7.273   0.078  1.00  0.00     0.026 A 
HETATM    6  C6  UNL     1      -8.345   8.094   0.361  1.00  0.00     0.005 A 
HETATM    7  N1  UNL     1      -7.736   8.833  -0.659  1.00  0.00    -0.303 NA
HETATM    8  H5  UNL     1      -7.353   8.261  -1.405  1.00  0.00     0.124 HD
HETATM    9  H6  UNL     1      -7.074   9.526  -0.325  1.00  0.00     0.124 HD
HETATM   10  O1  UNL     1      -9.893   5.599   3.308  1.00  0.00    -0.361 OA
HETATM   11  H7  UNL     1     -10.702   5.171   2.985  1.00  0.00     0.217 HD
HETATM    1  C1  UNL     1      -8.193  10.127   3.023  1.00  0.00     0.026 A 
HETATM    2  C2  UNL     1      -6.825   9.848   3.058  1.00  0.00     0.038 A 
HETATM    3  C3  UNL     1      -6.383   8.545   2.877  1.00  0.00     0.065 A 
HETATM    4  C4  UNL     1      -7.289   7.516   2.645  1.00  0.00     0.038 A 
HETATM    5  C5  UNL     1      -8.657   7.802   2.612  1.00  0.00     0.026 A 
HETATM    6  C6  UNL     1      -9.125   9.099   2.851  1.00  0.00     0.005 A 
HETATM    7  N1  UNL     1     -10.484   9.397   2.698  1.00  0.00    -0.303 NA
HETATM    8  H5  UNL     1     -10.803  10.158   3.289  1.00  0.00     0.124 HD
HETATM    9  H6  UNL     1     -11.090   8.586   2.751  1.00  0.00     0.124 HD
HETATM   10  O1  UNL     1      -5.040   8.315   2.916  1.00  0.00    -0.361 OA
HETATM   11  H7  UNL     1      -4.638   8.935   3.545  1.00  0.00     0.217 HD
HETATM    1  C1  UNL     1      -6.981   9.860   3.034  1.00  0.00     0.026 A 
HETATM    2  C2  UNL     1      -8.357  10.084   2.948  1.00  0.00     0.038 A 
HETATM    3  C3  UNL     1      -9.214   9.019   2.713  1.00  0.00     0.065 A 
HETATM    4  C4  UNL     1      -8.717   7.727   2.577  1.00  0.00     0.038 A 
HETATM    5  C5  UNL     1      -7.339   7.510   2.663  1.00  0.00     0.026 A 
HETATM    6  C6  UNL     1      -6.454   8.579   2.841  1.00  0.00     0.005 A 
HETATM    7  N1  UNL     1      -5.091   8.339   3.044  1.00  0.00    -0.303 NA
HETATM    8  H5  UNL     1      -4.856   7.354   3.117  1.00  0.00     0.124 HD
HETATM    9  H6  UNL     1      -4.684   8.890   3.793  1.00  0.00     0.124 HD
HETATM   10  O1  UNL     1     -10.550   9.278   2.639  1.00  0.00    -0.361 OA
HETATM   11  H7  UNL     1     -11.035   8.457   2.818  1.00  0.00     0.217 HD
HETATM    1  C1  UNL     1      -8.879   6.771   2.533  1.00  0.00     0.026 A 
HETATM    2  C2  UNL     1      -7.988   7.846   2.576  1.00  0.00     0.038 A 
HETATM    3  C3  UNL     1      -7.822   8.646   1.454  1.00  0.00     0.065 A 
HETATM    4  C4  UNL     1      -8.545   8.397   0.293  1.00  0.00     0.038 A 
HETATM    5  C5  UNL     1      -9.434   7.318   0.258  1.00  0.00     0.026 A 
HETATM    6  C6  UNL     1      -9.572   6.466   1.358  1.00  0.00     0.005 A 
HETATM    7  N1  UNL     1     -10.549   5.464   1.355  1.00  0.00    -0.303 NA
HETATM    8  H5  UNL     1     -11.481   5.803   1.139  1.00  0.00     0.124 HD
HETATM    9  H6  UNL     1     -10.534   4.873   2.179  1.00  0.00     0.124 HD
HETATM   10  O1  UNL     1      -6.946   9.686   1.537  1.00  0.00    -0.361 OA
HETATM   11  H7  UNL     1      -7.405  10.500   1.275  1.00  0.00     0.217 HD
HETATM    1  C1  UNL     1      -8.120   8.919   0.651  1.00  0.00     0.026 A 
HETATM    2  C2  UNL     1      -8.273   8.533  -0.682  1.00  0.00     0.038 A 
HETATM    3  C3  UNL     1      -9.131   7.491  -1.002  1.00  0.00     0.065 A 
HETATM    4  C4  UNL     1      -9.852   6.837  -0.009  1.00  0.00     0.038 A 
HETATM    5  C5  UNL     1      -9.692   7.228   1.324  1.00  0.00     0.026 A 
HETATM    6  C6  UNL     1      -8.788   8.236   1.672  1.00  0.00     0.005 A 
HETATM    7  N1  UNL     1      -8.724   8.700   2.991  1.00  0.00    -0.303 NA
HETATM    8  H5  UNL     1      -8.972   8.000   3.682  1.00  0.00     0.124 HD
HETATM    9  H6  UNL     1      -9.207   9.579   3.141  1.00  0.00     0.124 HD
HETATM   10  O1  UNL     1      -9.256   7.146  -2.315  1.00  0.00    -0.361 OA
HETATM   11  H7  UNL     1     -10.154   6.808  -2.462  1.00  0.00     0.217 HD
HETATM    1  C1  UNL     1      -4.738   9.782   7.501  1.00  0.00     0.026 A 
HETATM    2  C2  UNL     1      -4.957   9.554   6.141  1.00  0.00     0.038 A 
HETATM    3  C3  UNL     1      -4.283   8.524   5.499  1.00  0.00     0.065 A 
HETATM    4  C4  UNL     1      -3.404   7.708   6.201  1.00  0.00     0.038 A 
HETATM    5  C5  UNL     1      -3.189   7.943   7.562  1.00  0.00     0.026 A 
HETATM    6  C6  UNL     1      -3.813   9.012   8.213  1.00  0.00     0.005 A 
HETATM    7  N1  UNL     1      -3.685   9.167   9.598  1.00  0.00    -0.303 NA
HETATM    8  H5  UNL     1      -4.365   9.802  10.002  1.00  0.00     0.124 HD
HETATM    9  H6  UNL     1      -2.738   9.369   9.902  1.00  0.00     0.124 HD
HETATM   10  O1  UNL     1      -4.526   8.332   4.172  1.00  0.00    -0.361 OA
HETATM   11  H7  UNL     1      -4.157   9.081   3.677  1.00  0.00     0.217 HD
HETATM    1  C1  UNL     1      -0.195  -2.600  -2.475  1.00  0.00     0.026 A 
HETATM    2  C2  UNL     1       0.217  -3.694  -3.239  1.00  0.00     0.038 A 
HETATM    3  C3  UNL     1       0.078  -3.661  -4.619  1.00  0.00     0.065 A 
HETATM    4  C4  UNL     1      -0.453  -2.542  -5.250  1.00  0.00     0.038 A 
HETATM    5  C5  UNL     1      -0.865  -1.451  -4.479  1.00  0.00     0.026 A 
HETATM    6  C6  UNL     1      -0.787  -1.489  -3.083  1.00  0.00     0.005 A 
HETATM    7  N1  UNL     1      -1.089  -0.349  -2.329  1.00  0.00    -0.303 NA
HETATM    8  H5  UNL     1      -1.940   0.121  -2.623  1.00  0.00     0.124 HD
HETATM    9  H6  UNL     1      -0.310   0.293  -2.225  1.00  0.00     0.124 HD
HETATM   10  O1  UNL     1       0.494  -4.747  -5.329  1.00  0.00    -0.361 OA
HETATM   11  H7  UNL     1       1.113  -5.256  -4.781  1.00  0.00     0.217 HD
HETATM    1  C1  UNL     1      -7.141   7.937   2.657  1.00  0.00     0.026 A 
HETATM    2  C2  UNL     1      -8.048   7.626   1.642  1.00  0.00     0.038 A 
HETATM    3  C3  UNL     1      -8.536   8.634   0.823  1.00  0.00     0.065 A 
HETATM    4  C4  UNL     1      -8.117   9.949   0.993  1.00  0.00     0.038 A 
HETATM    5  C5  UNL     1      -7.210  10.253   2.012  1.00  0.00     0.026 A 
HETATM    6  C6  UNL     1      -6.752   9.261   2.885  1.00  0.00     0.005 A 
HETATM    7  N1  UNL     1      -5.756   9.553   3.823  1.00  0.00    -0.303 NA
HETATM    8  H5  UNL     1      -4.923   9.969   3.417  1.00  0.00     0.124 HD
HETATM    9  H6  UNL     1      -5.538   8.781   4.444  1.00  0.00     0.124 HD
HETATM   10  O1  UNL     1      -9.417   8.289  -0.157  1.00  0.00    -0.361 OA
HETATM   11  H7  UNL     1      -9.238   7.375  -0.428  1.00  0.00     0.217 HD
HETATM    1  C1  UNL     1      -0.843  -1.438  -4.473  1.00  0.00     0.026 A 
HETATM    2  C2  UNL     1      -0.451  -2.551  -5.220  1.00  0.00     0.038 A 
HETATM    3  C3  UNL     1       0.088  -3.656  -4.576  1.00  0.00     0.065 A 
HETATM    4  C4  UNL     1       0.225  -3.672  -3.192  1.00  0.00     0.038 A 
HETATM    5  C5  UNL     1      -0.169  -2.554  -2.452  1.00  0.00     0.026 A 
HETATM    6  C6  UNL     1      -0.659  -1.408  -3.087  1.00  0.00     0.005 A 
HETATM    7  N1  UNL     1      -1.160  -0.343  -2.331  1.00  0.00    -0.303 NA
HETATM    8  H5  UNL     1      -0.737  -0.260  -1.412  1.00  0.00     0.124 HD
HETATM    9  H6  UNL     1      -2.174  -0.307  -2.295  1.00  0.00     0.124 HD
HETATM   10  O1  UNL     1       0.456  -4.723  -5.339  1.00  0.00    -0.361 OA
HETATM   11  H7  UNL     1       0.122  -4.589  -6.241  1.00  0.00     0.217 HD
HETATM    1  C1  UNL     1     -10.113   8.762   1.430  1.00  0.00     0.026 A 
HETATM    2  C2  UNL     1      -9.463   8.412   0.244  1.00  0.00     0.038 A 
HETATM    3  C3  UNL     1      -8.160   7.939   0.288  1.00  0.00     0.065 A 
HETATM    4  C4  UNL     1      -7.499   7.795   1.502  1.00  0.00     0.038 A 
HETATM    5  C5  UNL     1      -8.154   8.148   2.686  1.00  0.00     0.026 A 
HETATM    6  C6  UNL     1      -9.447   8.682   2.657  1.00  0.00     0.005 A 
HETATM    7  N1  UNL     1     -10.137   8.920   3.851  1.00  0.00    -0.303 NA
HETATM    8  H5  UNL     1     -10.587   8.094   4.234  1.00  0.00     0.124 HD
HETATM    9  H6  UNL     1     -10.762   9.718   3.812  1.00  0.00     0.124 HD
HETATM   10  O1  UNL     1      -7.562   7.605  -0.891  1.00  0.00    -0.361 OA
HETATM   11  H7  UNL     1      -6.608   7.762  -0.809  1.00  0.00     0.217 HD
HETATM    1  C1  UNL     1      -7.910   7.623   1.678  1.00  0.00     0.026 A 
HETATM    2  C2  UNL     1      -6.958   7.927   2.653  1.00  0.00     0.038 A 
HETATM    3  C3  UNL     1      -6.590   9.248   2.868  1.00  0.00     0.065 A 
HETATM    4  C4  UNL     1      -7.173  10.273   2.131  1.00  0.00     0.038 A 
HETATM    5  C5  UNL     1      -8.125   9.961   1.156  1.00  0.00     0.026 A 
HETATM    6  C6  UNL     1      -8.465   8.632   0.885  1.00  0.00     0.005 A 
HETATM    7  N1  UNL     1      -9.502   8.338  -0.008  1.00  0.00    -0.303 NA
HETATM    8  H5  UNL     1      -9.462   7.395  -0.383  1.00  0.00     0.124 HD
HETATM    9  H6  UNL     1      -9.631   9.037  -0.731  1.00  0.00     0.124 HD
HETATM   10  O1  UNL     1      -5.660   9.504   3.830  1.00  0.00    -0.361 OA
HETATM   11  H7  UNL     1      -5.785   8.873   4.557  1.00  0.00     0.217 HD
HETATM    1  C1  UNL     1      -9.029   8.259   0.283  1.00  0.00     0.026 A 
HETATM    2  C2  UNL     1      -8.044   7.761  -0.573  1.00  0.00     0.038 A 
HETATM    3  C3  UNL     1      -7.643   8.511  -1.670  1.00  0.00     0.065 A 
HETATM    4  C4  UNL     1      -8.201   9.760  -1.916  1.00  0.00     0.038 A 
HETATM    5  C5  UNL     1      -9.188  10.251  -1.055  1.00  0.00     0.026 A 
HETATM    6  C6  UNL     1      -9.647   9.486   0.021  1.00  0.00     0.005 A 
HETATM    7  N1  UNL     1     -10.546  10.033   0.943  1.00  0.00    -0.303 NA
HETATM    8  H5  UNL     1     -10.798  10.996   0.744  1.00  0.00     0.124 HD
HETATM    9  H6  UNL     1     -10.275   9.897   1.911  1.00  0.00     0.124 HD
HETATM   10  O1  UNL     1      -6.677   7.992  -2.480  1.00  0.00    -0.361 OA
HETATM   11  H7  UNL     1      -7.101   7.421  -3.140  1.00  0.00     0.217 HD
HETATM    1  C1  UNL     1       2.722   9.293  -8.289  1.00  0.00     0.026 A 
HETATM    2  C2  UNL     1       1.463   9.897  -8.262  1.00  0.00     0.038 A 
HETATM    3  C3  UNL     1       0.321   9.110  -8.303  1.00  0.00     0.065 A 
HETATM    4  C4  UNL     1       0.418   7.724  -8.354  1.00  0.00     0.038 A 
HETATM    5  C5  UNL     1       1.681   7.126  -8.382  1.00  0.00     0.026 A 
HETATM    6  C6  UNL     1       2.843   7.904  -8.401  1.00  0.00     0.005 A 
HETATM    7  N1  UNL     1       4.100   7.296  -8.309  1.00  0.00    -0.303 NA
HETATM    8  H5  UNL     1       4.058   6.297  -8.134  1.00  0.00     0.124 HD
HETATM    9  H6  UNL     1       4.741   7.772  -7.684  1.00  0.00     0.124 HD
HETATM   10  O1  UNL     1      -0.888   9.738  -8.271  1.00  0.00    -0.361 OA
HETATM   11  H7  UNL     1      -1.214   9.736  -7.357  1.00  0.00     0.217 HD
