MODEL 1
REMARK VINA RESULT:      -8.1      0.000      0.000
REMARK  27 active torsions:
REMARK  status: ('A' for Active; 'I' for Inactive)
REMARK    1  A    between atoms: C2_2  and  S1_4 
REMARK    2  A    between atoms: S1_4  and  C3_5 
REMARK    3  A    between atoms: C3_5  and  C4_6 
REMARK    4  A    between atoms: C4_6  and  N1_7 
REMARK       I    between atoms: N1_7  and  C5_8 
REMARK    5  A    between atoms: C5_8  and  C6_10 
REMARK    6  A    between atoms: C6_10  and  C7_11 
REMARK    7  A    between atoms: C7_11  and  N2_12 
REMARK       I    between atoms: N2_12  and  C8_13 
REMARK    8  A    between atoms: C8_13  and  C9_15 
REMARK    9  A    between atoms: C9_15  and  C10_16 
REMARK   10  A    between atoms: C9_15  and  O17_54 
REMARK   11  A    between atoms: C10_16  and  C13_19 
REMARK   12  A    between atoms: C13_19  and  O4_20 
REMARK   13  A    between atoms: O4_20  and  P1_21 
REMARK   14  A    between atoms: P1_21  and  O6_23 
REMARK   15  A    between atoms: P1_21  and  O7_24 
REMARK   16  A    between atoms: O7_24  and  P2_25 
REMARK   17  A    between atoms: P2_25  and  O9_27 
REMARK   18  A    between atoms: P2_25  and  O10_28 
REMARK   19  A    between atoms: O10_28  and  C14_29 
REMARK   20  A    between atoms: C14_29  and  C15_30 
REMARK   21  A    between atoms: C16_31  and  O13_49 
REMARK   22  A    between atoms: C17_32  and  O12_48 
REMARK   23  A    between atoms: C18_33  and  N3_35 
REMARK   24  A    between atoms: C21_40  and  N7_47 
REMARK   25  A    between atoms: O13_49  and  P3_50 
REMARK   26  A    between atoms: P3_50  and  O15_52 
REMARK   27  A    between atoms: P3_50  and  O16_53 
ROOT
HETATM    1  C1  UNL     1      -3.495  14.616  -0.454  1.00  0.00     0.104 C 
HETATM    2  C2  UNL     1      -3.707  13.158  -0.725  1.00  0.00     0.182 C 
HETATM    3  O1  UNL     1      -3.082  12.532  -1.578  1.00  0.00    -0.286 OA
ENDROOT
BRANCH   2   4
HETATM    4  S1  UNL     1      -4.962  12.414   0.256  1.00  0.00    -0.091 SA
BRANCH   4   5
HETATM    5  C3  UNL     1      -5.117  10.804  -0.582  1.00  0.00     0.102 C 
BRANCH   5   6
HETATM    6  C4  UNL     1      -5.326   9.661   0.413  1.00  0.00     0.133 C 
BRANCH   6   7
HETATM    7  N1  UNL     1      -4.089   9.212   1.018  1.00  0.00    -0.360 N 
HETATM    8  C5  UNL     1      -3.873   7.889   1.327  1.00  0.00     0.219 C 
HETATM    9  O2  UNL     1      -4.734   7.029   1.186  1.00  0.00    -0.274 OA
HETATM   10  H8  UNL     1      -3.367   9.893   1.210  1.00  0.00     0.162 HD
BRANCH   8  11
HETATM   11  C6  UNL     1      -2.497   7.625   1.899  1.00  0.00     0.122 C 
BRANCH  11  12
HETATM   12  C7  UNL     1      -2.564   7.138   3.346  1.00  0.00     0.132 C 
BRANCH  12  13
HETATM   13  N2  UNL     1      -1.825   7.979   4.264  1.00  0.00    -0.358 N 
HETATM   14  C8  UNL     1      -2.214   8.077   5.587  1.00  0.00     0.247 C 
HETATM   15  O3  UNL     1      -3.246   7.564   6.002  1.00  0.00    -0.271 OA
HETATM   16  H13 UNL     1      -0.833   8.081   4.062  1.00  0.00     0.162 HD
BRANCH  14  17
HETATM   17  C9  UNL     1      -1.245   8.857   6.488  1.00  0.00     0.219 C 
BRANCH  17  18
HETATM   18  C10 UNL     1      -0.455   7.979   7.494  1.00  0.00     0.009 C 
HETATM   19  C11 UNL     1      -1.234   7.752   8.798  1.00  0.00     0.020 C 
HETATM   20  C12 UNL     1      -0.117   6.598   6.896  1.00  0.00     0.020 C 
BRANCH  18  21
HETATM   21  C13 UNL     1       0.858   8.755   7.798  1.00  0.00     0.192 C 
BRANCH  21  22
HETATM   22  O4  UNL     1       0.914   9.218   9.132  1.00  0.00    -0.296 OA
BRANCH  22  23
HETATM   23  P1  UNL     1       1.731   8.458  10.284  1.00  0.00     0.401 P 
HETATM   24  O5  UNL     1       2.691   7.429   9.776  1.00  0.00    -0.631 OA
BRANCH  23  25
HETATM   25  O6  UNL     1       0.644   7.877  11.319  1.00  0.00    -0.307 OA
HETATM   26  H23 UNL     1      -0.224   8.283  11.198  1.00  0.00     0.222 HD
ENDBRANCH  23  25
BRANCH  23  27
HETATM   27  O7  UNL     1       2.394   9.616  11.149  1.00  0.00    -0.195 OA
BRANCH  27  28
HETATM   28  P2  UNL     1       3.458  10.580  10.459  1.00  0.00     0.401 P 
HETATM   29  O8  UNL     1       4.625  11.005  11.289  1.00  0.00    -0.631 OA
BRANCH  28  30
HETATM   30  O9  UNL     1       3.857   9.793   9.129  1.00  0.00    -0.307 OA
HETATM   31  H24 UNL     1       4.769   9.990   8.802  1.00  0.00     0.222 HD
ENDBRANCH  28  30
BRANCH  28  32
HETATM   32  O10 UNL     1       2.571  11.759   9.848  1.00  0.00    -0.294 OA
BRANCH  32  33
HETATM   33  C14 UNL     1       2.565  11.988   8.463  1.00  0.00     0.215 C 
BRANCH  33  34
HETATM   34  C15 UNL     1       3.613  13.069   8.204  1.00  0.00     0.180 C 
HETATM   35  C16 UNL     1       3.348  14.269   9.104  1.00  0.00     0.197 C 
HETATM   36  C17 UNL     1       3.061  15.411   8.148  1.00  0.00     0.199 C 
HETATM   37  C18 UNL     1       3.798  14.966   6.883  1.00  0.00     0.262 C 
HETATM   38  O11 UNL     1       3.615  13.533   6.849  1.00  0.00    -0.353 OA
BRANCH  35  39
HETATM   39  O13 UNL     1       4.517  14.502   9.883  1.00  0.00    -0.286 OA
BRANCH  39  40
HETATM   40  P3  UNL     1       4.274  14.684  11.453  1.00  0.00     0.391 P 
HETATM   41  O14 UNL     1       5.482  14.404  12.286  1.00  0.00    -0.632 OA
BRANCH  40  42
HETATM   42  O15 UNL     1       2.993  13.750  11.668  1.00  0.00    -0.307 OA
HETATM   43  H36 UNL     1       2.698  13.774  12.609  1.00  0.00     0.222 HD
ENDBRANCH  40  42
BRANCH  40  44
HETATM   44  O16 UNL     1       3.665  16.152  11.510  1.00  0.00    -0.307 OA
HETATM   45  H37 UNL     1       4.166  16.746  12.091  1.00  0.00     0.222 HD
ENDBRANCH  40  44
ENDBRANCH  39  40
ENDBRANCH  35  39
BRANCH  36  46
HETATM   46  O12 UNL     1       3.452  16.657   8.731  1.00  0.00    -0.388 OA
HETATM   47  H35 UNL     1       2.783  16.859   9.429  1.00  0.00     0.210 HD
ENDBRANCH  36  46
BRANCH  37  48
HETATM   48  N3  UNL     1       3.229  15.536   5.678  1.00  0.00    -0.297 N 
HETATM   49  C19 UNL     1       3.852  16.371   4.780  1.00  0.00     0.188 A 
HETATM   50  N4  UNL     1       3.107  16.612   3.723  1.00  0.00    -0.346 N 
HETATM   51  C20 UNL     1       1.945  15.894   3.945  1.00  0.00     0.116 A 
HETATM   52  H4  UNL     1       3.334  17.197   2.919  1.00  0.00     0.167 HD
HETATM   53  C21 UNL     1       0.783  15.702   3.178  1.00  0.00     0.109 A 
HETATM   54  C23 UNL     1       1.992  15.255   5.170  1.00  0.00     0.142 A 
HETATM   55  N5  UNL     1      -0.210  14.931   3.687  1.00  0.00    -0.341 N 
HETATM   56  C22 UNL     1      -0.035  14.389   4.908  1.00  0.00     0.183 A 
HETATM   57  H5  UNL     1      -1.067  14.767   3.158  1.00  0.00     0.167 HD
HETATM   58  N6  UNL     1       1.031  14.495   5.727  1.00  0.00    -0.336 N 
HETATM   59  H6  UNL     1       1.101  14.057   6.645  1.00  0.00     0.168 HD
BRANCH  53  60
HETATM   60  N7  UNL     1       0.592  16.269   1.928  1.00  0.00    -0.287 NA
HETATM   61  H33 UNL     1       1.193  15.890   1.200  1.00  0.00     0.125 HD
HETATM   62  H34 UNL     1       0.495  17.275   1.962  1.00  0.00     0.125 HD
ENDBRANCH  53  60
ENDBRANCH  37  48
ENDBRANCH  33  34
ENDBRANCH  32  33
ENDBRANCH  28  32
ENDBRANCH  27  28
ENDBRANCH  23  27
ENDBRANCH  22  23
ENDBRANCH  21  22
ENDBRANCH  18  21
ENDBRANCH  17  18
BRANCH  17  63
HETATM   63  O17 UNL     1      -0.308   9.586   5.688  1.00  0.00    -0.385 OA
HETATM   64  H38 UNL     1      -0.738   9.805   4.844  1.00  0.00     0.210 HD
ENDBRANCH  17  63
ENDBRANCH  14  17
ENDBRANCH  12  13
ENDBRANCH  11  12
ENDBRANCH   8  11
ENDBRANCH   6   7
ENDBRANCH   5   6
ENDBRANCH   4   5
ENDBRANCH   2   4
TORSDOF 27
ENDMDL
MODEL 2
REMARK VINA RESULT:      -7.6      2.200      3.486
REMARK  27 active torsions:
REMARK  status: ('A' for Active; 'I' for Inactive)
REMARK    1  A    between atoms: C2_2  and  S1_4 
REMARK    2  A    between atoms: S1_4  and  C3_5 
REMARK    3  A    between atoms: C3_5  and  C4_6 
REMARK    4  A    between atoms: C4_6  and  N1_7 
REMARK       I    between atoms: N1_7  and  C5_8 
REMARK    5  A    between atoms: C5_8  and  C6_10 
REMARK    6  A    between atoms: C6_10  and  C7_11 
REMARK    7  A    between atoms: C7_11  and  N2_12 
REMARK       I    between atoms: N2_12  and  C8_13 
REMARK    8  A    between atoms: C8_13  and  C9_15 
REMARK    9  A    between atoms: C9_15  and  C10_16 
REMARK   10  A    between atoms: C9_15  and  O17_54 
REMARK   11  A    between atoms: C10_16  and  C13_19 
REMARK   12  A    between atoms: C13_19  and  O4_20 
REMARK   13  A    between atoms: O4_20  and  P1_21 
REMARK   14  A    between atoms: P1_21  and  O6_23 
REMARK   15  A    between atoms: P1_21  and  O7_24 
REMARK   16  A    between atoms: O7_24  and  P2_25 
REMARK   17  A    between atoms: P2_25  and  O9_27 
REMARK   18  A    between atoms: P2_25  and  O10_28 
REMARK   19  A    between atoms: O10_28  and  C14_29 
REMARK   20  A    between atoms: C14_29  and  C15_30 
REMARK   21  A    between atoms: C16_31  and  O13_49 
REMARK   22  A    between atoms: C17_32  and  O12_48 
REMARK   23  A    between atoms: C18_33  and  N3_35 
REMARK   24  A    between atoms: C21_40  and  N7_47 
REMARK   25  A    between atoms: O13_49  and  P3_50 
REMARK   26  A    between atoms: P3_50  and  O15_52 
REMARK   27  A    between atoms: P3_50  and  O16_53 
ROOT
HETATM    1  C1  UNL     1      -4.405  14.547  -1.131  1.00  0.00     0.104 C 
HETATM    2  C2  UNL     1      -3.970  13.132  -0.896  1.00  0.00     0.182 C 
HETATM    3  O1  UNL     1      -3.045  12.602  -1.506  1.00  0.00    -0.286 OA
ENDROOT
BRANCH   2   4
HETATM    4  S1  UNL     1      -4.924  12.269   0.303  1.00  0.00    -0.091 SA
BRANCH   4   5
HETATM    5  C3  UNL     1      -5.210  10.701  -0.579  1.00  0.00     0.102 C 
BRANCH   5   6
HETATM    6  C4  UNL     1      -5.285   9.512   0.382  1.00  0.00     0.133 C 
BRANCH   6   7
HETATM    7  N1  UNL     1      -4.004   9.191   0.976  1.00  0.00    -0.360 N 
HETATM    8  C5  UNL     1      -3.764   7.970   1.562  1.00  0.00     0.219 C 
HETATM    9  O2  UNL     1      -4.634   7.117   1.690  1.00  0.00    -0.274 OA
HETATM   10  H8  UNL     1      -3.268   9.884   0.949  1.00  0.00     0.162 HD
BRANCH   8  11
HETATM   11  C6  UNL     1      -2.347   7.818   2.071  1.00  0.00     0.122 C 
BRANCH  11  12
HETATM   12  C7  UNL     1      -2.299   7.113   3.426  1.00  0.00     0.132 C 
BRANCH  12  13
HETATM   13  N2  UNL     1      -1.607   7.879   4.441  1.00  0.00    -0.358 N 
HETATM   14  C8  UNL     1      -2.092   7.921   5.735  1.00  0.00     0.247 C 
HETATM   15  O3  UNL     1      -3.168   7.424   6.044  1.00  0.00    -0.271 OA
HETATM   16  H13 UNL     1      -0.599   7.957   4.319  1.00  0.00     0.162 HD
BRANCH  14  17
HETATM   17  C9  UNL     1      -1.171   8.619   6.746  1.00  0.00     0.219 C 
BRANCH  17  18
HETATM   18  C10 UNL     1      -0.521   7.669   7.786  1.00  0.00     0.009 C 
HETATM   19  C11 UNL     1      -1.231   7.730   9.147  1.00  0.00     0.020 C 
HETATM   20  C12 UNL     1      -0.543   6.204   7.305  1.00  0.00     0.020 C 
BRANCH  18  21
HETATM   21  C13 UNL     1       0.950   8.149   7.942  1.00  0.00     0.192 C 
BRANCH  21  22
HETATM   22  O4  UNL     1       1.099   9.102   8.975  1.00  0.00    -0.296 OA
BRANCH  22  23
HETATM   23  P1  UNL     1       2.530   9.597   9.504  1.00  0.00     0.401 P 
HETATM   24  O5  UNL     1       3.675   8.742   9.061  1.00  0.00    -0.631 OA
BRANCH  23  25
HETATM   25  O6  UNL     1       2.409   9.744  11.102  1.00  0.00    -0.307 OA
HETATM   26  H23 UNL     1       1.973   8.982  11.504  1.00  0.00     0.222 HD
ENDBRANCH  23  25
BRANCH  23  27
HETATM   27  O7  UNL     1       2.627  11.122   9.060  1.00  0.00    -0.195 OA
BRANCH  27  28
HETATM   28  P2  UNL     1       2.126  11.533   7.605  1.00  0.00     0.401 P 
HETATM   29  O8  UNL     1       2.656  10.739   6.456  1.00  0.00    -0.631 OA
BRANCH  28  30
HETATM   30  O9  UNL     1       0.535  11.499   7.742  1.00  0.00    -0.307 OA
HETATM   31  H24 UNL     1       0.075  12.251   7.294  1.00  0.00     0.222 HD
ENDBRANCH  28  30
BRANCH  28  32
HETATM   32  O10 UNL     1       2.381  13.109   7.540  1.00  0.00    -0.294 OA
BRANCH  32  33
HETATM   33  C14 UNL     1       1.465  13.942   6.878  1.00  0.00     0.215 C 
BRANCH  33  34
HETATM   34  C15 UNL     1       1.779  13.822   5.388  1.00  0.00     0.180 C 
HETATM   35  C16 UNL     1       2.692  14.963   4.960  1.00  0.00     0.197 C 
HETATM   36  C17 UNL     1       1.885  15.738   3.935  1.00  0.00     0.199 C 
HETATM   37  C18 UNL     1       0.926  14.669   3.405  1.00  0.00     0.262 C 
HETATM   38  O11 UNL     1       0.608  13.868   4.565  1.00  0.00    -0.353 OA
BRANCH  35  39
HETATM   39  O13 UNL     1       3.871  14.398   4.398  1.00  0.00    -0.286 OA
BRANCH  39  40
HETATM   40  P3  UNL     1       5.055  14.103   5.432  1.00  0.00     0.391 P 
HETATM   41  O14 UNL     1       5.026  14.975   6.645  1.00  0.00    -0.632 OA
BRANCH  40  42
HETATM   42  O15 UNL     1       6.328  14.214   4.470  1.00  0.00    -0.307 OA
HETATM   43  H36 UNL     1       6.794  13.346   4.406  1.00  0.00     0.222 HD
ENDBRANCH  40  42
BRANCH  40  44
HETATM   44  O16 UNL     1       4.900  12.535   5.648  1.00  0.00    -0.307 OA
HETATM   45  H37 UNL     1       5.370  12.216   6.435  1.00  0.00     0.222 HD
ENDBRANCH  40  44
ENDBRANCH  39  40
ENDBRANCH  35  39
BRANCH  36  46
HETATM   46  O12 UNL     1       2.755  16.366   2.991  1.00  0.00    -0.388 OA
HETATM   47  H35 UNL     1       3.328  15.652   2.623  1.00  0.00     0.210 HD
ENDBRANCH  36  46
BRANCH  37  48
HETATM   48  N3  UNL     1      -0.300  15.234   2.878  1.00  0.00    -0.297 N 
HETATM   49  C19 UNL     1      -0.609  15.465   1.558  1.00  0.00     0.188 A 
HETATM   50  N4  UNL     1      -1.851  15.868   1.399  1.00  0.00    -0.346 N 
HETATM   51  C20 UNL     1      -2.375  15.895   2.679  1.00  0.00     0.116 A 
HETATM   52  H4  UNL     1      -2.322  16.107   0.527  1.00  0.00     0.167 HD
HETATM   53  C21 UNL     1      -3.654  16.196   3.179  1.00  0.00     0.109 A 
HETATM   54  C23 UNL     1      -1.414  15.542   3.609  1.00  0.00     0.142 A 
HETATM   55  N5  UNL     1      -3.857  16.141   4.518  1.00  0.00    -0.341 N 
HETATM   56  C22 UNL     1      -2.818  15.804   5.308  1.00  0.00     0.183 A 
HETATM   57  H5  UNL     1      -4.772  16.349   4.917  1.00  0.00     0.167 HD
HETATM   58  N6  UNL     1      -1.558  15.488   4.945  1.00  0.00    -0.336 N 
HETATM   59  H6  UNL     1      -0.813  15.241   5.597  1.00  0.00     0.168 HD
BRANCH  53  60
HETATM   60  N7  UNL     1      -4.722  16.557   2.373  1.00  0.00    -0.287 NA
HETATM   61  H33 UNL     1      -5.343  17.249   2.786  1.00  0.00     0.125 HD
HETATM   62  H34 UNL     1      -5.158  15.766   1.919  1.00  0.00     0.125 HD
ENDBRANCH  53  60
ENDBRANCH  37  48
ENDBRANCH  33  34
ENDBRANCH  32  33
ENDBRANCH  28  32
ENDBRANCH  27  28
ENDBRANCH  23  27
ENDBRANCH  22  23
ENDBRANCH  21  22
ENDBRANCH  18  21
ENDBRANCH  17  18
BRANCH  17  63
HETATM   63  O17 UNL     1      -0.129   9.323   6.061  1.00  0.00    -0.385 OA
HETATM   64  H38 UNL     1       0.398   8.673   5.565  1.00  0.00     0.210 HD
ENDBRANCH  17  63
ENDBRANCH  14  17
ENDBRANCH  12  13
ENDBRANCH  11  12
ENDBRANCH   8  11
ENDBRANCH   6   7
ENDBRANCH   5   6
ENDBRANCH   4   5
ENDBRANCH   2   4
TORSDOF 27
ENDMDL
MODEL 3
REMARK VINA RESULT:      -7.6      2.731      4.339
REMARK  27 active torsions:
REMARK  status: ('A' for Active; 'I' for Inactive)
REMARK    1  A    between atoms: C2_2  and  S1_4 
REMARK    2  A    between atoms: S1_4  and  C3_5 
REMARK    3  A    between atoms: C3_5  and  C4_6 
REMARK    4  A    between atoms: C4_6  and  N1_7 
REMARK       I    between atoms: N1_7  and  C5_8 
REMARK    5  A    between atoms: C5_8  and  C6_10 
REMARK    6  A    between atoms: C6_10  and  C7_11 
REMARK    7  A    between atoms: C7_11  and  N2_12 
REMARK       I    between atoms: N2_12  and  C8_13 
REMARK    8  A    between atoms: C8_13  and  C9_15 
REMARK    9  A    between atoms: C9_15  and  C10_16 
REMARK   10  A    between atoms: C9_15  and  O17_54 
REMARK   11  A    between atoms: C10_16  and  C13_19 
REMARK   12  A    between atoms: C13_19  and  O4_20 
REMARK   13  A    between atoms: O4_20  and  P1_21 
REMARK   14  A    between atoms: P1_21  and  O6_23 
REMARK   15  A    between atoms: P1_21  and  O7_24 
REMARK   16  A    between atoms: O7_24  and  P2_25 
REMARK   17  A    between atoms: P2_25  and  O9_27 
REMARK   18  A    between atoms: P2_25  and  O10_28 
REMARK   19  A    between atoms: O10_28  and  C14_29 
REMARK   20  A    between atoms: C14_29  and  C15_30 
REMARK   21  A    between atoms: C16_31  and  O13_49 
REMARK   22  A    between atoms: C17_32  and  O12_48 
REMARK   23  A    between atoms: C18_33  and  N3_35 
REMARK   24  A    between atoms: C21_40  and  N7_47 
REMARK   25  A    between atoms: O13_49  and  P3_50 
REMARK   26  A    between atoms: P3_50  and  O15_52 
REMARK   27  A    between atoms: P3_50  and  O16_53 
ROOT
HETATM    1  C1  UNL     1      -5.268  12.196  -2.436  1.00  0.00     0.104 C 
HETATM    2  C2  UNL     1      -4.250  12.207  -1.337  1.00  0.00     0.182 C 
HETATM    3  O1  UNL     1      -3.088  12.573  -1.498  1.00  0.00    -0.286 OA
ENDROOT
BRANCH   2   4
HETATM    4  S1  UNL     1      -4.843  11.613   0.207  1.00  0.00    -0.091 SA
BRANCH   4   5
HETATM    5  C3  UNL     1      -4.996   9.836  -0.167  1.00  0.00     0.102 C 
BRANCH   5   6
HETATM    6  C4  UNL     1      -5.146   8.997   1.104  1.00  0.00     0.133 C 
BRANCH   6   7
HETATM    7  N1  UNL     1      -3.883   8.767   1.775  1.00  0.00    -0.360 N 
HETATM    8  C5  UNL     1      -3.052   7.731   1.419  1.00  0.00     0.219 C 
HETATM    9  O2  UNL     1      -3.360   6.898   0.575  1.00  0.00    -0.274 OA
HETATM   10  H8  UNL     1      -3.608   9.393   2.520  1.00  0.00     0.162 HD
BRANCH   8  11
HETATM   11  C6  UNL     1      -1.759   7.702   2.206  1.00  0.00     0.122 C 
BRANCH  11  12
HETATM   12  C7  UNL     1      -1.977   7.229   3.643  1.00  0.00     0.132 C 
BRANCH  12  13
HETATM   13  N2  UNL     1      -1.505   8.178   4.630  1.00  0.00    -0.358 N 
HETATM   14  C8  UNL     1      -1.946   8.099   5.938  1.00  0.00     0.247 C 
HETATM   15  O3  UNL     1      -2.824   7.318   6.284  1.00  0.00    -0.271 OA
HETATM   16  H13 UNL     1      -0.567   8.540   4.476  1.00  0.00     0.162 HD
BRANCH  14  17
HETATM   17  C9  UNL     1      -1.237   9.048   6.915  1.00  0.00     0.219 C 
BRANCH  17  18
HETATM   18  C10 UNL     1      -0.209   8.357   7.850  1.00  0.00     0.009 C 
HETATM   19  C11 UNL     1      -0.889   7.612   9.008  1.00  0.00     0.020 C 
HETATM   20  C12 UNL     1       0.663   7.344   7.080  1.00  0.00     0.020 C 
BRANCH  18  21
HETATM   21  C13 UNL     1       0.686   9.496   8.416  1.00  0.00     0.192 C 
BRANCH  21  22
HETATM   22  O4  UNL     1       1.931   9.583   7.753  1.00  0.00    -0.296 OA
BRANCH  22  23
HETATM   23  P1  UNL     1       2.955  10.797   7.977  1.00  0.00     0.401 P 
HETATM   24  O5  UNL     1       4.080  10.484   8.913  1.00  0.00    -0.631 OA
BRANCH  23  25
HETATM   25  O6  UNL     1       2.076  12.070   8.421  1.00  0.00    -0.307 OA
HETATM   26  H23 UNL     1       1.166  11.825   8.635  1.00  0.00     0.222 HD
ENDBRANCH  23  25
BRANCH  23  27
HETATM   27  O7  UNL     1       3.407  11.228   6.514  1.00  0.00    -0.195 OA
BRANCH  27  28
HETATM   28  P2  UNL     1       3.859  12.735   6.261  1.00  0.00     0.401 P 
HETATM   29  O8  UNL     1       4.519  13.443   7.398  1.00  0.00    -0.631 OA
BRANCH  28  30
HETATM   30  O9  UNL     1       4.760  12.631   4.947  1.00  0.00    -0.307 OA
HETATM   31  H24 UNL     1       4.668  13.400   4.333  1.00  0.00     0.222 HD
ENDBRANCH  28  30
BRANCH  28  32
HETATM   32  O10 UNL     1       2.553  13.435   5.667  1.00  0.00    -0.294 OA
BRANCH  32  33
HETATM   33  C14 UNL     1       1.971  12.949   4.486  1.00  0.00     0.215 C 
BRANCH  33  34
HETATM   34  C15 UNL     1       1.747  14.165   3.589  1.00  0.00     0.180 C 
HETATM   35  C16 UNL     1       2.171  15.431   4.321  1.00  0.00     0.197 C 
HETATM   36  C17 UNL     1       0.901  16.253   4.436  1.00  0.00     0.199 C 
HETATM   37  C18 UNL     1       0.075  15.738   3.255  1.00  0.00     0.262 C 
HETATM   38  O11 UNL     1       0.378  14.326   3.197  1.00  0.00    -0.353 OA
BRANCH  35  39
HETATM   39  O13 UNL     1       3.163  16.084   3.536  1.00  0.00    -0.286 OA
BRANCH  39  40
HETATM   40  P3  UNL     1       4.520  16.445   4.300  1.00  0.00     0.391 P 
HETATM   41  O14 UNL     1       5.035  17.815   3.999  1.00  0.00    -0.632 OA
BRANCH  40  42
HETATM   42  O15 UNL     1       5.437  15.201   3.887  1.00  0.00    -0.307 OA
HETATM   43  H36 UNL     1       5.720  14.695   4.686  1.00  0.00     0.222 HD
ENDBRANCH  40  42
BRANCH  40  44
HETATM   44  O16 UNL     1       4.129  16.121   5.807  1.00  0.00    -0.307 OA
HETATM   45  H37 UNL     1       4.098  15.168   5.992  1.00  0.00     0.222 HD
ENDBRANCH  40  44
ENDBRANCH  39  40
ENDBRANCH  35  39
BRANCH  36  46
HETATM   46  O12 UNL     1       1.214  17.648   4.460  1.00  0.00    -0.388 OA
HETATM   47  H35 UNL     1       0.486  18.088   4.961  1.00  0.00     0.210 HD
ENDBRANCH  36  46
BRANCH  37  48
HETATM   48  N3  UNL     1      -1.350  15.900   3.460  1.00  0.00    -0.297 N 
HETATM   49  C19 UNL     1      -1.980  16.356   4.595  1.00  0.00     0.188 A 
HETATM   50  N4  UNL     1      -3.275  16.508   4.419  1.00  0.00    -0.346 N 
HETATM   51  C20 UNL     1      -3.494  16.137   3.105  1.00  0.00     0.116 A 
HETATM   52  H4  UNL     1      -3.963  16.829   5.100  1.00  0.00     0.167 HD
HETATM   53  C21 UNL     1      -4.647  16.116   2.300  1.00  0.00     0.109 A 
HETATM   54  C23 UNL     1      -2.317  15.721   2.511  1.00  0.00     0.142 A 
HETATM   55  N5  UNL     1      -4.539  15.679   1.022  1.00  0.00    -0.341 N 
HETATM   56  C22 UNL     1      -3.328  15.281   0.584  1.00  0.00     0.183 A 
HETATM   57  H5  UNL     1      -5.352  15.653   0.407  1.00  0.00     0.167 HD
HETATM   58  N6  UNL     1      -2.158  15.264   1.256  1.00  0.00    -0.336 N 
HETATM   59  H6  UNL     1      -1.271  14.948   0.864  1.00  0.00     0.168 HD
BRANCH  53  60
HETATM   60  N7  UNL     1      -5.897  16.511   2.750  1.00  0.00    -0.287 NA
HETATM   61  H33 UNL     1      -5.887  16.993   3.646  1.00  0.00     0.125 HD
HETATM   62  H34 UNL     1      -6.605  15.800   2.623  1.00  0.00     0.125 HD
ENDBRANCH  53  60
ENDBRANCH  37  48
ENDBRANCH  33  34
ENDBRANCH  32  33
ENDBRANCH  28  32
ENDBRANCH  27  28
ENDBRANCH  23  27
ENDBRANCH  22  23
ENDBRANCH  21  22
ENDBRANCH  18  21
ENDBRANCH  17  18
BRANCH  17  63
HETATM   63  O17 UNL     1      -0.568  10.088   6.194  1.00  0.00    -0.385 OA
HETATM   64  H38 UNL     1       0.271  10.277   6.646  1.00  0.00     0.210 HD
ENDBRANCH  17  63
ENDBRANCH  14  17
ENDBRANCH  12  13
ENDBRANCH  11  12
ENDBRANCH   8  11
ENDBRANCH   6   7
ENDBRANCH   5   6
ENDBRANCH   4   5
ENDBRANCH   2   4
TORSDOF 27
ENDMDL
MODEL 4
REMARK VINA RESULT:      -7.4      7.723     15.062
REMARK  27 active torsions:
REMARK  status: ('A' for Active; 'I' for Inactive)
REMARK    1  A    between atoms: C2_2  and  S1_4 
REMARK    2  A    between atoms: S1_4  and  C3_5 
REMARK    3  A    between atoms: C3_5  and  C4_6 
REMARK    4  A    between atoms: C4_6  and  N1_7 
REMARK       I    between atoms: N1_7  and  C5_8 
REMARK    5  A    between atoms: C5_8  and  C6_10 
REMARK    6  A    between atoms: C6_10  and  C7_11 
REMARK    7  A    between atoms: C7_11  and  N2_12 
REMARK       I    between atoms: N2_12  and  C8_13 
REMARK    8  A    between atoms: C8_13  and  C9_15 
REMARK    9  A    between atoms: C9_15  and  C10_16 
REMARK   10  A    between atoms: C9_15  and  O17_54 
REMARK   11  A    between atoms: C10_16  and  C13_19 
REMARK   12  A    between atoms: C13_19  and  O4_20 
REMARK   13  A    between atoms: O4_20  and  P1_21 
REMARK   14  A    between atoms: P1_21  and  O6_23 
REMARK   15  A    between atoms: P1_21  and  O7_24 
REMARK   16  A    between atoms: O7_24  and  P2_25 
REMARK   17  A    between atoms: P2_25  and  O9_27 
REMARK   18  A    between atoms: P2_25  and  O10_28 
REMARK   19  A    between atoms: O10_28  and  C14_29 
REMARK   20  A    between atoms: C14_29  and  C15_30 
REMARK   21  A    between atoms: C16_31  and  O13_49 
REMARK   22  A    between atoms: C17_32  and  O12_48 
REMARK   23  A    between atoms: C18_33  and  N3_35 
REMARK   24  A    between atoms: C21_40  and  N7_47 
REMARK   25  A    between atoms: O13_49  and  P3_50 
REMARK   26  A    between atoms: P3_50  and  O15_52 
REMARK   27  A    between atoms: P3_50  and  O16_53 
ROOT
HETATM    1  C1  UNL     1       0.325   8.435   5.343  1.00  0.00     0.104 C 
HETATM    2  C2  UNL     1      -1.054   8.451   5.927  1.00  0.00     0.182 C 
HETATM    3  O1  UNL     1      -1.499   9.391   6.582  1.00  0.00    -0.286 OA
ENDROOT
BRANCH   2   4
HETATM    4  S1  UNL     1      -1.984   6.988   5.633  1.00  0.00    -0.091 SA
BRANCH   4   5
HETATM    5  C3  UNL     1      -3.439   7.692   4.793  1.00  0.00     0.102 C 
BRANCH   5   6
HETATM    6  C4  UNL     1      -3.477   7.318   3.310  1.00  0.00     0.133 C 
BRANCH   6   7
HETATM    7  N1  UNL     1      -4.295   8.222   2.526  1.00  0.00    -0.360 N 
HETATM    8  C5  UNL     1      -4.372   8.125   1.156  1.00  0.00     0.219 C 
HETATM    9  O2  UNL     1      -3.697   7.330   0.512  1.00  0.00    -0.274 OA
HETATM   10  H8  UNL     1      -4.828   8.935   3.006  1.00  0.00     0.162 HD
BRANCH   8  11
HETATM   11  C6  UNL     1      -5.323   9.126   0.538  1.00  0.00     0.122 C 
BRANCH  11  12
HETATM   12  C7  UNL     1      -4.695  10.515   0.421  1.00  0.00     0.132 C 
BRANCH  12  13
HETATM   13  N2  UNL     1      -5.141  11.243  -0.748  1.00  0.00    -0.358 N 
HETATM   14  C8  UNL     1      -4.421  12.331  -1.207  1.00  0.00     0.247 C 
HETATM   15  O3  UNL     1      -3.467  12.788  -0.591  1.00  0.00    -0.271 OA
HETATM   16  H13 UNL     1      -5.647  10.694  -1.439  1.00  0.00     0.162 HD
BRANCH  14  17
HETATM   17  C9  UNL     1      -4.901  12.900  -2.550  1.00  0.00     0.219 C 
BRANCH  17  18
HETATM   18  C10 UNL     1      -5.700  14.226  -2.438  1.00  0.00     0.009 C 
HETATM   19  C11 UNL     1      -6.473  14.325  -1.115  1.00  0.00     0.020 C 
HETATM   20  C12 UNL     1      -4.774  15.454  -2.541  1.00  0.00     0.020 C 
BRANCH  18  21
HETATM   21  C13 UNL     1      -6.701  14.222  -3.629  1.00  0.00     0.192 C 
BRANCH  21  22
HETATM   22  O4  UNL     1      -6.081  14.554  -4.855  1.00  0.00    -0.296 OA
BRANCH  22  23
HETATM   23  P1  UNL     1      -6.108  13.588  -6.134  1.00  0.00     0.401 P 
HETATM   24  O5  UNL     1      -6.589  14.247  -7.388  1.00  0.00    -0.631 OA
BRANCH  23  25
HETATM   25  O6  UNL     1      -6.960  12.287  -5.716  1.00  0.00    -0.307 OA
HETATM   26  H23 UNL     1      -7.590  12.032  -6.402  1.00  0.00     0.222 HD
ENDBRANCH  23  25
BRANCH  23  27
HETATM   27  O7  UNL     1      -4.640  12.981  -6.222  1.00  0.00    -0.195 OA
BRANCH  27  28
HETATM   28  P2  UNL     1      -3.444  13.924  -6.687  1.00  0.00     0.401 P 
HETATM   29  O8  UNL     1      -3.329  14.200  -8.151  1.00  0.00    -0.631 OA
BRANCH  28  30
HETATM   30  O9  UNL     1      -3.638  15.231  -5.791  1.00  0.00    -0.307 OA
HETATM   31  H24 UNL     1      -4.030  15.998  -6.277  1.00  0.00     0.222 HD
ENDBRANCH  28  30
BRANCH  28  32
HETATM   32  O10 UNL     1      -2.155  13.283  -5.995  1.00  0.00    -0.294 OA
BRANCH  32  33
HETATM   33  C14 UNL     1      -0.981  13.088  -6.739  1.00  0.00     0.215 C 
BRANCH  33  34
HETATM   34  C15 UNL     1      -0.883  11.586  -6.996  1.00  0.00     0.180 C 
HETATM   35  C16 UNL     1      -0.579  11.333  -8.467  1.00  0.00     0.197 C 
HETATM   36  C17 UNL     1      -1.778  10.556  -8.978  1.00  0.00     0.199 C 
HETATM   37  C18 UNL     1      -2.301   9.892  -7.702  1.00  0.00     0.262 C 
HETATM   38  O11 UNL     1      -2.088  10.883  -6.672  1.00  0.00    -0.353 OA
BRANCH  35  39
HETATM   39  O13 UNL     1       0.624  10.577  -8.545  1.00  0.00    -0.286 OA
BRANCH  39  40
HETATM   40  P3  UNL     1       1.756  11.179  -9.501  1.00  0.00     0.391 P 
HETATM   41  O14 UNL     1       1.286  11.454 -10.893  1.00  0.00    -0.632 OA
BRANCH  40  42
HETATM   42  O15 UNL     1       2.917  10.095  -9.311  1.00  0.00    -0.307 OA
HETATM   43  H36 UNL     1       3.404  10.251  -8.467  1.00  0.00     0.222 HD
ENDBRANCH  40  42
BRANCH  40  44
HETATM   44  O16 UNL     1       2.270  12.414  -8.640  1.00  0.00    -0.307 OA
HETATM   45  H37 UNL     1       2.357  13.227  -9.163  1.00  0.00     0.222 HD
ENDBRANCH  40  44
ENDBRANCH  39  40
ENDBRANCH  35  39
BRANCH  36  46
HETATM   46  O12 UNL     1      -1.389   9.696 -10.053  1.00  0.00    -0.388 OA
HETATM   47  H35 UNL     1      -0.531  10.046 -10.392  1.00  0.00     0.210 HD
ENDBRANCH  36  46
BRANCH  37  48
HETATM   48  N3  UNL     1      -3.716   9.590  -7.773  1.00  0.00    -0.297 N 
HETATM   49  C19 UNL     1      -4.380   8.567  -7.137  1.00  0.00     0.188 A 
HETATM   50  N4  UNL     1      -5.683   8.639  -7.303  1.00  0.00    -0.346 N 
HETATM   51  C20 UNL     1      -5.874   9.767  -8.081  1.00  0.00     0.116 A 
HETATM   52  H4  UNL     1      -6.394   8.005  -6.939  1.00  0.00     0.167 HD
HETATM   53  C21 UNL     1      -7.028  10.406  -8.566  1.00  0.00     0.109 A 
HETATM   54  C23 UNL     1      -4.661  10.343  -8.412  1.00  0.00     0.142 A 
HETATM   55  N5  UNL     1      -6.883  11.516  -9.330  1.00  0.00    -0.341 N 
HETATM   56  C22 UNL     1      -5.634  11.951  -9.592  1.00  0.00     0.183 A 
HETATM   57  H5  UNL     1      -7.697  12.008  -9.697  1.00  0.00     0.167 HD
HETATM   58  N6  UNL     1      -4.461  11.431  -9.177  1.00  0.00    -0.336 N 
HETATM   59  H6  UNL     1      -3.544  11.811  -9.412  1.00  0.00     0.168 HD
BRANCH  53  60
HETATM   60  N7  UNL     1      -8.313   9.953  -8.312  1.00  0.00    -0.287 NA
HETATM   61  H33 UNL     1      -9.049  10.578  -8.636  1.00  0.00     0.125 HD
HETATM   62  H34 UNL     1      -8.419   9.567  -7.384  1.00  0.00     0.125 HD
ENDBRANCH  53  60
ENDBRANCH  37  48
ENDBRANCH  33  34
ENDBRANCH  32  33
ENDBRANCH  28  32
ENDBRANCH  27  28
ENDBRANCH  23  27
ENDBRANCH  22  23
ENDBRANCH  21  22
ENDBRANCH  18  21
ENDBRANCH  17  18
BRANCH  17  63
HETATM   63  O17 UNL     1      -3.785  13.114  -3.422  1.00  0.00    -0.385 OA
HETATM   64  H38 UNL     1      -3.020  13.361  -2.877  1.00  0.00     0.210 HD
ENDBRANCH  17  63
ENDBRANCH  14  17
ENDBRANCH  12  13
ENDBRANCH  11  12
ENDBRANCH   8  11
ENDBRANCH   6   7
ENDBRANCH   5   6
ENDBRANCH   4   5
ENDBRANCH   2   4
TORSDOF 27
ENDMDL
MODEL 5
REMARK VINA RESULT:      -7.3      3.770      7.648
REMARK  27 active torsions:
REMARK  status: ('A' for Active; 'I' for Inactive)
REMARK    1  A    between atoms: C2_2  and  S1_4 
REMARK    2  A    between atoms: S1_4  and  C3_5 
REMARK    3  A    between atoms: C3_5  and  C4_6 
REMARK    4  A    between atoms: C4_6  and  N1_7 
REMARK       I    between atoms: N1_7  and  C5_8 
REMARK    5  A    between atoms: C5_8  and  C6_10 
REMARK    6  A    between atoms: C6_10  and  C7_11 
REMARK    7  A    between atoms: C7_11  and  N2_12 
REMARK       I    between atoms: N2_12  and  C8_13 
REMARK    8  A    between atoms: C8_13  and  C9_15 
REMARK    9  A    between atoms: C9_15  and  C10_16 
REMARK   10  A    between atoms: C9_15  and  O17_54 
REMARK   11  A    between atoms: C10_16  and  C13_19 
REMARK   12  A    between atoms: C13_19  and  O4_20 
REMARK   13  A    between atoms: O4_20  and  P1_21 
REMARK   14  A    between atoms: P1_21  and  O6_23 
REMARK   15  A    between atoms: P1_21  and  O7_24 
REMARK   16  A    between atoms: O7_24  and  P2_25 
REMARK   17  A    between atoms: P2_25  and  O9_27 
REMARK   18  A    between atoms: P2_25  and  O10_28 
REMARK   19  A    between atoms: O10_28  and  C14_29 
REMARK   20  A    between atoms: C14_29  and  C15_30 
REMARK   21  A    between atoms: C16_31  and  O13_49 
REMARK   22  A    between atoms: C17_32  and  O12_48 
REMARK   23  A    between atoms: C18_33  and  N3_35 
REMARK   24  A    between atoms: C21_40  and  N7_47 
REMARK   25  A    between atoms: O13_49  and  P3_50 
REMARK   26  A    between atoms: P3_50  and  O15_52 
REMARK   27  A    between atoms: P3_50  and  O16_53 
ROOT
HETATM    1  C1  UNL     1       0.247   8.123   4.177  1.00  0.00     0.104 C 
HETATM    2  C2  UNL     1      -1.202   7.744   4.154  1.00  0.00     0.182 C 
HETATM    3  O1  UNL     1      -1.891   7.650   5.168  1.00  0.00    -0.286 OA
ENDROOT
BRANCH   2   4
HETATM    4  S1  UNL     1      -1.837   7.404   2.550  1.00  0.00    -0.091 SA
BRANCH   4   5
HETATM    5  C3  UNL     1      -3.611   7.713   2.832  1.00  0.00     0.102 C 
BRANCH   5   6
HETATM    6  C4  UNL     1      -4.342   8.059   1.534  1.00  0.00     0.133 C 
BRANCH   6   7
HETATM    7  N1  UNL     1      -4.069   9.408   1.080  1.00  0.00    -0.360 N 
HETATM    8  C5  UNL     1      -4.976  10.116   0.327  1.00  0.00     0.219 C 
HETATM    9  O2  UNL     1      -6.027   9.627  -0.072  1.00  0.00    -0.274 OA
HETATM   10  H8  UNL     1      -3.189   9.837   1.334  1.00  0.00     0.162 HD
BRANCH   8  11
HETATM   11  C6  UNL     1      -4.520  11.523   0.006  1.00  0.00     0.122 C 
BRANCH  11  12
HETATM   12  C7  UNL     1      -5.631  12.548   0.226  1.00  0.00     0.132 C 
BRANCH  12  13
HETATM   13  N2  UNL     1      -5.203  13.910  -0.015  1.00  0.00    -0.358 N 
HETATM   14  C8  UNL     1      -5.148  14.818   1.026  1.00  0.00     0.247 C 
HETATM   15  O3  UNL     1      -5.562  14.550   2.147  1.00  0.00    -0.271 OA
HETATM   16  H13 UNL     1      -4.537  14.031  -0.775  1.00  0.00     0.162 HD
BRANCH  14  17
HETATM   17  C9  UNL     1      -4.511  16.169   0.669  1.00  0.00     0.219 C 
BRANCH  17  18
HETATM   18  C10 UNL     1      -2.962  16.149   0.590  1.00  0.00     0.009 C 
HETATM   19  C11 UNL     1      -2.438  14.932  -0.186  1.00  0.00     0.020 C 
HETATM   20  C12 UNL     1      -2.414  17.419  -0.092  1.00  0.00     0.020 C 
BRANCH  18  21
HETATM   21  C13 UNL     1      -2.461  16.086   2.062  1.00  0.00     0.192 C 
BRANCH  21  22
HETATM   22  O4  UNL     1      -1.534  15.040   2.270  1.00  0.00    -0.296 OA
BRANCH  22  23
HETATM   23  P1  UNL     1       0.047  15.284   2.373  1.00  0.00     0.401 P 
HETATM   24  O5  UNL     1       0.439  16.725   2.465  1.00  0.00    -0.631 OA
BRANCH  23  25
HETATM   25  O6  UNL     1       0.720  14.506   1.135  1.00  0.00    -0.307 OA
HETATM   26  H23 UNL     1       1.655  14.319   1.290  1.00  0.00     0.222 HD
ENDBRANCH  23  25
BRANCH  23  27
HETATM   27  O7  UNL     1       0.523  14.387   3.598  1.00  0.00    -0.195 OA
BRANCH  27  28
HETATM   28  P2  UNL     1       0.185  14.865   5.079  1.00  0.00     0.401 P 
HETATM   29  O8  UNL     1      -0.662  16.087   5.220  1.00  0.00    -0.631 OA
BRANCH  28  30
HETATM   30  O9  UNL     1      -0.440  13.558   5.752  1.00  0.00    -0.307 OA
HETATM   31  H24 UNL     1      -1.277  13.722   6.251  1.00  0.00     0.222 HD
ENDBRANCH  28  30
BRANCH  28  32
HETATM   32  O10 UNL     1       1.608  14.915   5.803  1.00  0.00    -0.294 OA
BRANCH  32  33
HETATM   33  C14 UNL     1       1.683  14.951   7.204  1.00  0.00     0.215 C 
BRANCH  33  34
HETATM   34  C15 UNL     1       2.908  14.122   7.587  1.00  0.00     0.180 C 
HETATM   35  C16 UNL     1       3.631  13.659   6.329  1.00  0.00     0.197 C 
HETATM   36  C17 UNL     1       3.555  12.145   6.376  1.00  0.00     0.199 C 
HETATM   37  C18 UNL     1       3.408  11.876   7.876  1.00  0.00     0.262 C 
HETATM   38  O11 UNL     1       2.577  12.957   8.352  1.00  0.00    -0.353 OA
BRANCH  35  39
HETATM   39  O13 UNL     1       4.973  14.132   6.393  1.00  0.00    -0.286 OA
BRANCH  39  40
HETATM   40  P3  UNL     1       5.441  15.045   5.167  1.00  0.00     0.391 P 
HETATM   41  O14 UNL     1       6.196  16.267   5.580  1.00  0.00    -0.632 OA
BRANCH  40  42
HETATM   42  O15 UNL     1       4.052  15.255   4.402  1.00  0.00    -0.307 OA
HETATM   43  H36 UNL     1       3.300  14.918   4.946  1.00  0.00     0.222 HD
ENDBRANCH  40  42
BRANCH  40  44
HETATM   44  O16 UNL     1       6.199  13.985   4.256  1.00  0.00    -0.307 OA
HETATM   45  H37 UNL     1       6.678  14.396   3.519  1.00  0.00     0.222 HD
ENDBRANCH  40  44
ENDBRANCH  39  40
ENDBRANCH  35  39
BRANCH  36  46
HETATM   46  O12 UNL     1       4.685  11.571   5.714  1.00  0.00    -0.388 OA
HETATM   47  H35 UNL     1       4.685  11.937   4.797  1.00  0.00     0.210 HD
ENDBRANCH  36  46
BRANCH  37  48
HETATM   48  N3  UNL     1       2.742  10.619   8.153  1.00  0.00    -0.297 N 
HETATM   49  C19 UNL     1       3.242   9.552   8.862  1.00  0.00     0.188 A 
HETATM   50  N4  UNL     1       2.343   8.610   9.045  1.00  0.00    -0.346 N 
HETATM   51  C20 UNL     1       1.203   9.091   8.428  1.00  0.00     0.116 A 
HETATM   52  H4  UNL     1       2.461   7.722   9.534  1.00  0.00     0.167 HD
HETATM   53  C21 UNL     1      -0.102   8.582   8.306  1.00  0.00     0.109 A 
HETATM   54  C23 UNL     1       1.447  10.317   7.837  1.00  0.00     0.142 A 
HETATM   55  N5  UNL     1      -1.018   9.303   7.614  1.00  0.00    -0.341 N 
HETATM   56  C22 UNL     1      -0.630  10.474   7.070  1.00  0.00     0.183 A 
HETATM   57  H5  UNL     1      -1.975   8.968   7.508  1.00  0.00     0.167 HD
HETATM   58  N6  UNL     1       0.582  11.064   7.128  1.00  0.00    -0.336 N 
HETATM   59  H6  UNL     1       0.811  11.957   6.691  1.00  0.00     0.168 HD
BRANCH  53  60
HETATM   60  N7  UNL     1      -0.502   7.372   8.851  1.00  0.00    -0.287 NA
HETATM   61  H33 UNL     1       0.056   6.575   8.554  1.00  0.00     0.125 HD
HETATM   62  H34 UNL     1      -1.506   7.251   8.849  1.00  0.00     0.125 HD
ENDBRANCH  53  60
ENDBRANCH  37  48
ENDBRANCH  33  34
ENDBRANCH  32  33
ENDBRANCH  28  32
ENDBRANCH  27  28
ENDBRANCH  23  27
ENDBRANCH  22  23
ENDBRANCH  21  22
ENDBRANCH  18  21
ENDBRANCH  17  18
BRANCH  17  63
HETATM   63  O17 UNL     1      -5.024  16.640  -0.582  1.00  0.00    -0.385 OA
HETATM   64  H38 UNL     1      -5.735  17.276  -0.397  1.00  0.00     0.210 HD
ENDBRANCH  17  63
ENDBRANCH  14  17
ENDBRANCH  12  13
ENDBRANCH  11  12
ENDBRANCH   8  11
ENDBRANCH   6   7
ENDBRANCH   5   6
ENDBRANCH   4   5
ENDBRANCH   2   4
TORSDOF 27
ENDMDL
MODEL 6
REMARK VINA RESULT:      -6.9      4.555      9.107
REMARK  27 active torsions:
REMARK  status: ('A' for Active; 'I' for Inactive)
REMARK    1  A    between atoms: C2_2  and  S1_4 
REMARK    2  A    between atoms: S1_4  and  C3_5 
REMARK    3  A    between atoms: C3_5  and  C4_6 
REMARK    4  A    between atoms: C4_6  and  N1_7 
REMARK       I    between atoms: N1_7  and  C5_8 
REMARK    5  A    between atoms: C5_8  and  C6_10 
REMARK    6  A    between atoms: C6_10  and  C7_11 
REMARK    7  A    between atoms: C7_11  and  N2_12 
REMARK       I    between atoms: N2_12  and  C8_13 
REMARK    8  A    between atoms: C8_13  and  C9_15 
REMARK    9  A    between atoms: C9_15  and  C10_16 
REMARK   10  A    between atoms: C9_15  and  O17_54 
REMARK   11  A    between atoms: C10_16  and  C13_19 
REMARK   12  A    between atoms: C13_19  and  O4_20 
REMARK   13  A    between atoms: O4_20  and  P1_21 
REMARK   14  A    between atoms: P1_21  and  O6_23 
REMARK   15  A    between atoms: P1_21  and  O7_24 
REMARK   16  A    between atoms: O7_24  and  P2_25 
REMARK   17  A    between atoms: P2_25  and  O9_27 
REMARK   18  A    between atoms: P2_25  and  O10_28 
REMARK   19  A    between atoms: O10_28  and  C14_29 
REMARK   20  A    between atoms: C14_29  and  C15_30 
REMARK   21  A    between atoms: C16_31  and  O13_49 
REMARK   22  A    between atoms: C17_32  and  O12_48 
REMARK   23  A    between atoms: C18_33  and  N3_35 
REMARK   24  A    between atoms: C21_40  and  N7_47 
REMARK   25  A    between atoms: O13_49  and  P3_50 
REMARK   26  A    between atoms: P3_50  and  O15_52 
REMARK   27  A    between atoms: P3_50  and  O16_53 
ROOT
HETATM    1  C1  UNL     1      -4.330   8.232   1.226  1.00  0.00     0.104 C 
HETATM    2  C2  UNL     1      -3.095   7.940   2.022  1.00  0.00     0.182 C 
HETATM    3  O1  UNL     1      -1.958   8.083   1.579  1.00  0.00    -0.286 OA
ENDROOT
BRANCH   2   4
HETATM    4  S1  UNL     1      -3.404   7.333   3.643  1.00  0.00    -0.091 SA
BRANCH   4   5
HETATM    5  C3  UNL     1      -1.804   7.695   4.435  1.00  0.00     0.102 C 
BRANCH   5   6
HETATM    6  C4  UNL     1      -1.909   7.689   5.961  1.00  0.00     0.133 C 
BRANCH   6   7
HETATM    7  N1  UNL     1      -0.631   7.473   6.609  1.00  0.00    -0.360 N 
HETATM    8  C5  UNL     1      -0.204   8.266   7.649  1.00  0.00     0.219 C 
HETATM    9  O2  UNL     1      -0.833   9.244   8.035  1.00  0.00    -0.274 OA
HETATM   10  H8  UNL     1      -0.045   6.714   6.288  1.00  0.00     0.162 HD
BRANCH   8  11
HETATM   11  C6  UNL     1       1.131   7.838   8.219  1.00  0.00     0.122 C 
BRANCH  11  12
HETATM   12  C7  UNL     1       1.749   8.922   9.102  1.00  0.00     0.132 C 
BRANCH  12  13
HETATM   13  N2  UNL     1       2.736   9.724   8.409  1.00  0.00    -0.358 N 
HETATM   14  C8  UNL     1       2.493  11.061   8.155  1.00  0.00     0.247 C 
HETATM   15  O3  UNL     1       1.410  11.583   8.390  1.00  0.00    -0.271 OA
HETATM   16  H13 UNL     1       3.705   9.445   8.552  1.00  0.00     0.162 HD
BRANCH  14  17
HETATM   17  C9  UNL     1       3.687  11.834   7.576  1.00  0.00     0.219 C 
BRANCH  17  18
HETATM   18  C10 UNL     1       3.456  12.403   6.152  1.00  0.00     0.009 C 
HETATM   19  C11 UNL     1       4.772  12.586   5.381  1.00  0.00     0.020 C 
HETATM   20  C12 UNL     1       2.541  11.483   5.318  1.00  0.00     0.020 C 
BRANCH  18  21
HETATM   21  C13 UNL     1       2.770  13.785   6.350  1.00  0.00     0.192 C 
BRANCH  21  22
HETATM   22  O4  UNL     1       1.662  13.964   5.491  1.00  0.00    -0.296 OA
BRANCH  22  23
HETATM   23  P1  UNL     1       1.738  14.824   4.140  1.00  0.00     0.401 P 
HETATM   24  O5  UNL     1       1.462  14.037   2.898  1.00  0.00    -0.631 OA
BRANCH  23  25
HETATM   25  O6  UNL     1       3.170  15.561   4.137  1.00  0.00    -0.307 OA
HETATM   26  H23 UNL     1       3.290  16.114   3.354  1.00  0.00     0.222 HD
ENDBRANCH  23  25
BRANCH  23  27
HETATM   27  O7  UNL     1       0.758  16.054   4.380  1.00  0.00    -0.195 OA
BRANCH  27  28
HETATM   28  P2  UNL     1      -0.814  15.794   4.398  1.00  0.00     0.401 P 
HETATM   29  O8  UNL     1      -1.273  14.459   4.885  1.00  0.00    -0.631 OA
BRANCH  28  30
HETATM   30  O9  UNL     1      -1.379  17.026   5.242  1.00  0.00    -0.307 OA
HETATM   31  H24 UNL     1      -1.855  17.701   4.701  1.00  0.00     0.222 HD
ENDBRANCH  28  30
BRANCH  28  32
HETATM   32  O10 UNL     1      -1.289  16.202   2.929  1.00  0.00    -0.294 OA
BRANCH  32  33
HETATM   33  C14 UNL     1      -1.538  15.208   1.970  1.00  0.00     0.215 C 
BRANCH  33  34
HETATM   34  C15 UNL     1      -2.704  15.715   1.123  1.00  0.00     0.180 C 
HETATM   35  C16 UNL     1      -3.993  15.657   1.932  1.00  0.00     0.197 C 
HETATM   36  C17 UNL     1      -4.879  14.685   1.176  1.00  0.00     0.199 C 
HETATM   37  C18 UNL     1      -4.329  14.788  -0.248  1.00  0.00     0.262 C 
HETATM   38  O11 UNL     1      -2.904  14.947  -0.070  1.00  0.00    -0.353 OA
BRANCH  35  39
HETATM   39  O13 UNL     1      -4.547  16.967   1.974  1.00  0.00    -0.286 OA
BRANCH  39  40
HETATM   40  P3  UNL     1      -4.589  17.653   3.417  1.00  0.00     0.391 P 
HETATM   41  O14 UNL     1      -5.859  18.388   3.699  1.00  0.00    -0.632 OA
BRANCH  40  42
HETATM   42  O15 UNL     1      -3.233  18.502   3.384  1.00  0.00    -0.307 OA
HETATM   43  H36 UNL     1      -2.510  18.023   3.854  1.00  0.00     0.222 HD
ENDBRANCH  40  42
BRANCH  40  44
HETATM   44  O16 UNL     1      -4.223  16.425   4.360  1.00  0.00    -0.307 OA
HETATM   45  H37 UNL     1      -4.274  15.571   3.902  1.00  0.00     0.222 HD
ENDBRANCH  40  44
ENDBRANCH  39  40
ENDBRANCH  35  39
BRANCH  36  46
HETATM   46  O12 UNL     1      -6.257  15.013   1.373  1.00  0.00    -0.388 OA
HETATM   47  H35 UNL     1      -6.447  15.779   0.782  1.00  0.00     0.210 HD
ENDBRANCH  36  46
BRANCH  37  48
HETATM   48  N3  UNL     1      -4.570  13.589  -1.026  1.00  0.00    -0.297 N 
HETATM   49  C19 UNL     1      -5.135  12.414  -0.589  1.00  0.00     0.188 A 
HETATM   50  N4  UNL     1      -5.333  11.561  -1.570  1.00  0.00    -0.346 N 
HETATM   51  C20 UNL     1      -4.877  12.216  -2.700  1.00  0.00     0.116 A 
HETATM   52  H4  UNL     1      -5.733  10.624  -1.511  1.00  0.00     0.167 HD
HETATM   53  C21 UNL     1      -4.850  11.863  -4.060  1.00  0.00     0.109 A 
HETATM   54  C23 UNL     1      -4.366  13.459  -2.372  1.00  0.00     0.142 A 
HETATM   55  N5  UNL     1      -4.317  12.739  -4.947  1.00  0.00    -0.341 N 
HETATM   56  C22 UNL     1      -3.833  13.906  -4.479  1.00  0.00     0.183 A 
HETATM   57  H5  UNL     1      -4.283  12.519  -5.943  1.00  0.00     0.167 HD
HETATM   58  N6  UNL     1      -3.813  14.355  -3.208  1.00  0.00    -0.336 N 
HETATM   59  H6  UNL     1      -3.429  15.255  -2.918  1.00  0.00     0.168 HD
BRANCH  53  60
HETATM   60  N7  UNL     1      -5.333  10.658  -4.545  1.00  0.00    -0.287 NA
HETATM   61  H33 UNL     1      -6.186  10.739  -5.094  1.00  0.00     0.125 HD
HETATM   62  H34 UNL     1      -5.302   9.916  -3.859  1.00  0.00     0.125 HD
ENDBRANCH  53  60
ENDBRANCH  37  48
ENDBRANCH  33  34
ENDBRANCH  32  33
ENDBRANCH  28  32
ENDBRANCH  27  28
ENDBRANCH  23  27
ENDBRANCH  22  23
ENDBRANCH  21  22
ENDBRANCH  18  21
ENDBRANCH  17  18
BRANCH  17  63
HETATM   63  O17 UNL     1       4.042  12.915   8.445  1.00  0.00    -0.385 OA
HETATM   64  H38 UNL     1       4.937  12.748   8.785  1.00  0.00     0.210 HD
ENDBRANCH  17  63
ENDBRANCH  14  17
ENDBRANCH  12  13
ENDBRANCH  11  12
ENDBRANCH   8  11
ENDBRANCH   6   7
ENDBRANCH   5   6
ENDBRANCH   4   5
ENDBRANCH   2   4
TORSDOF 27
ENDMDL
MODEL 7
REMARK VINA RESULT:      -6.7      5.411     11.469
REMARK  27 active torsions:
REMARK  status: ('A' for Active; 'I' for Inactive)
REMARK    1  A    between atoms: C2_2  and  S1_4 
REMARK    2  A    between atoms: S1_4  and  C3_5 
REMARK    3  A    between atoms: C3_5  and  C4_6 
REMARK    4  A    between atoms: C4_6  and  N1_7 
REMARK       I    between atoms: N1_7  and  C5_8 
REMARK    5  A    between atoms: C5_8  and  C6_10 
REMARK    6  A    between atoms: C6_10  and  C7_11 
REMARK    7  A    between atoms: C7_11  and  N2_12 
REMARK       I    between atoms: N2_12  and  C8_13 
REMARK    8  A    between atoms: C8_13  and  C9_15 
REMARK    9  A    between atoms: C9_15  and  C10_16 
REMARK   10  A    between atoms: C9_15  and  O17_54 
REMARK   11  A    between atoms: C10_16  and  C13_19 
REMARK   12  A    between atoms: C13_19  and  O4_20 
REMARK   13  A    between atoms: O4_20  and  P1_21 
REMARK   14  A    between atoms: P1_21  and  O6_23 
REMARK   15  A    between atoms: P1_21  and  O7_24 
REMARK   16  A    between atoms: O7_24  and  P2_25 
REMARK   17  A    between atoms: P2_25  and  O9_27 
REMARK   18  A    between atoms: P2_25  and  O10_28 
REMARK   19  A    between atoms: O10_28  and  C14_29 
REMARK   20  A    between atoms: C14_29  and  C15_30 
REMARK   21  A    between atoms: C16_31  and  O13_49 
REMARK   22  A    between atoms: C17_32  and  O12_48 
REMARK   23  A    between atoms: C18_33  and  N3_35 
REMARK   24  A    between atoms: C21_40  and  N7_47 
REMARK   25  A    between atoms: O13_49  and  P3_50 
REMARK   26  A    between atoms: P3_50  and  O15_52 
REMARK   27  A    between atoms: P3_50  and  O16_53 
ROOT
HETATM    1  C1  UNL     1      -3.831   8.376   1.998  1.00  0.00     0.104 C 
HETATM    2  C2  UNL     1      -2.927   7.523   2.835  1.00  0.00     0.182 C 
HETATM    3  O1  UNL     1      -1.922   6.971   2.394  1.00  0.00    -0.286 OA
ENDROOT
BRANCH   2   4
HETATM    4  S1  UNL     1      -3.445   7.339   4.505  1.00  0.00    -0.091 SA
BRANCH   4   5
HETATM    5  C3  UNL     1      -1.828   7.204   5.332  1.00  0.00     0.102 C 
BRANCH   5   6
HETATM    6  C4  UNL     1      -0.999   8.480   5.174  1.00  0.00     0.133 C 
BRANCH   6   7
HETATM    7  N1  UNL     1      -0.189   8.768   6.340  1.00  0.00    -0.360 N 
HETATM    8  C5  UNL     1       0.938   9.554   6.262  1.00  0.00     0.219 C 
HETATM    9  O2  UNL     1       1.368   9.988   5.200  1.00  0.00    -0.274 OA
HETATM   10  H8  UNL     1      -0.468   8.385   7.233  1.00  0.00     0.162 HD
BRANCH   8  11
HETATM   11  C6  UNL     1       1.606   9.777   7.602  1.00  0.00     0.122 C 
BRANCH  11  12
HETATM   12  C7  UNL     1       1.253  11.140   8.197  1.00  0.00     0.132 C 
BRANCH  12  13
HETATM   13  N2  UNL     1       1.800  12.247   7.442  1.00  0.00    -0.358 N 
HETATM   14  C8  UNL     1       0.971  13.044   6.674  1.00  0.00     0.247 C 
HETATM   15  O3  UNL     1      -0.213  12.782   6.506  1.00  0.00    -0.271 OA
HETATM   16  H13 UNL     1       2.626  12.686   7.845  1.00  0.00     0.162 HD
BRANCH  14  17
HETATM   17  C9  UNL     1       1.648  14.284   6.070  1.00  0.00     0.219 C 
BRANCH  17  18
HETATM   18  C10 UNL     1       2.309  14.047   4.687  1.00  0.00     0.009 C 
HETATM   19  C11 UNL     1       3.085  15.278   4.198  1.00  0.00     0.020 C 
HETATM   20  C12 UNL     1       3.286  12.854   4.725  1.00  0.00     0.020 C 
BRANCH  18  21
HETATM   21  C13 UNL     1       1.143  13.739   3.704  1.00  0.00     0.192 C 
BRANCH  21  22
HETATM   22  O4  UNL     1       1.177  14.561   2.555  1.00  0.00    -0.296 OA
BRANCH  22  23
HETATM   23  P1  UNL     1       0.025  15.619   2.207  1.00  0.00     0.401 P 
HETATM   24  O5  UNL     1       0.534  16.962   1.785  1.00  0.00    -0.631 OA
BRANCH  23  25
HETATM   25  O6  UNL     1      -0.961  15.669   3.478  1.00  0.00    -0.307 OA
HETATM   26  H23 UNL     1      -1.423  14.831   3.610  1.00  0.00     0.222 HD
ENDBRANCH  23  25
BRANCH  23  27
HETATM   27  O7  UNL     1      -0.893  14.889   1.132  1.00  0.00    -0.195 OA
BRANCH  27  28
HETATM   28  P2  UNL     1      -2.318  15.512   0.786  1.00  0.00     0.401 P 
HETATM   29  O8  UNL     1      -3.447  15.168   1.701  1.00  0.00    -0.631 OA
BRANCH  28  30
HETATM   30  O9  UNL     1      -2.018  17.077   0.681  1.00  0.00    -0.307 OA
HETATM   31  H24 UNL     1      -2.642  17.642   1.199  1.00  0.00     0.222 HD
ENDBRANCH  28  30
BRANCH  28  32
HETATM   32  O10 UNL     1      -2.533  15.151  -0.755  1.00  0.00    -0.294 OA
BRANCH  32  33
HETATM   33  C14 UNL     1      -3.097  13.917  -1.115  1.00  0.00     0.215 C 
BRANCH  33  34
HETATM   34  C15 UNL     1      -3.924  14.176  -2.373  1.00  0.00     0.180 C 
HETATM   35  C16 UNL     1      -5.382  13.822  -2.114  1.00  0.00     0.197 C 
HETATM   36  C17 UNL     1      -5.684  12.698  -3.086  1.00  0.00     0.199 C 
HETATM   37  C18 UNL     1      -4.661  12.948  -4.197  1.00  0.00     0.262 C 
HETATM   38  O11 UNL     1      -3.483  13.409  -3.499  1.00  0.00    -0.353 OA
BRANCH  35  39
HETATM   39  O13 UNL     1      -6.169  14.980  -2.372  1.00  0.00    -0.286 OA
BRANCH  39  40
HETATM   40  P3  UNL     1      -7.086  15.474  -1.159  1.00  0.00     0.391 P 
HETATM   41  O14 UNL     1      -7.655  16.843  -1.352  1.00  0.00    -0.632 OA
BRANCH  40  42
HETATM   42  O15 UNL     1      -6.094  15.252   0.076  1.00  0.00    -0.307 OA
HETATM   43  H36 UNL     1      -6.235  14.363   0.481  1.00  0.00     0.222 HD
ENDBRANCH  40  42
BRANCH  40  44
HETATM   44  O16 UNL     1      -8.109  14.264  -1.024  1.00  0.00    -0.307 OA
HETATM   45  H37 UNL     1      -8.057  13.822  -0.162  1.00  0.00     0.222 HD
ENDBRANCH  40  44
ENDBRANCH  39  40
ENDBRANCH  35  39
BRANCH  36  46
HETATM   46  O12 UNL     1      -7.067  12.714  -3.450  1.00  0.00    -0.388 OA
HETATM   47  H35 UNL     1      -7.402  13.616  -3.228  1.00  0.00     0.210 HD
ENDBRANCH  36  46
BRANCH  37  48
HETATM   48  N3  UNL     1      -4.328  11.742  -4.929  1.00  0.00    -0.297 N 
HETATM   49  C19 UNL     1      -5.012  10.549  -4.921  1.00  0.00     0.188 A 
HETATM   50  N4  UNL     1      -4.527   9.690  -5.790  1.00  0.00    -0.346 N 
HETATM   51  C20 UNL     1      -3.478  10.361  -6.395  1.00  0.00     0.116 A 
HETATM   52  H4  UNL     1      -4.850   8.741  -5.976  1.00  0.00     0.167 HD
HETATM   53  C21 UNL     1      -2.592  10.009  -7.427  1.00  0.00     0.109 A 
HETATM   54  C23 UNL     1      -3.320  11.619  -5.843  1.00  0.00     0.142 A 
HETATM   55  N5  UNL     1      -1.642  10.902  -7.799  1.00  0.00    -0.341 N 
HETATM   56  C22 UNL     1      -1.591  12.085  -7.155  1.00  0.00     0.183 A 
HETATM   57  H5  UNL     1      -0.983  10.684  -8.547  1.00  0.00     0.167 HD
HETATM   58  N6  UNL     1      -2.387  12.533  -6.163  1.00  0.00    -0.336 N 
HETATM   59  H6  UNL     1      -2.294  13.445  -5.715  1.00  0.00     0.168 HD
BRANCH  53  60
HETATM   60  N7  UNL     1      -2.631   8.789  -8.083  1.00  0.00    -0.287 NA
HETATM   61  H33 UNL     1      -3.514   8.292  -7.991  1.00  0.00     0.125 HD
HETATM   62  H34 UNL     1      -1.787   8.246  -7.956  1.00  0.00     0.125 HD
ENDBRANCH  53  60
ENDBRANCH  37  48
ENDBRANCH  33  34
ENDBRANCH  32  33
ENDBRANCH  28  32
ENDBRANCH  27  28
ENDBRANCH  23  27
ENDBRANCH  22  23
ENDBRANCH  21  22
ENDBRANCH  18  21
ENDBRANCH  17  18
BRANCH  17  63
HETATM   63  O17 UNL     1       0.701  15.350   5.944  1.00  0.00    -0.385 OA
HETATM   64  H38 UNL     1       0.498  15.464   5.001  1.00  0.00     0.210 HD
ENDBRANCH  17  63
ENDBRANCH  14  17
ENDBRANCH  12  13
ENDBRANCH  11  12
ENDBRANCH   8  11
ENDBRANCH   6   7
ENDBRANCH   5   6
ENDBRANCH   4   5
ENDBRANCH   2   4
TORSDOF 27
ENDMDL
MODEL 8
REMARK VINA RESULT:      -6.5      3.756      9.486
REMARK  27 active torsions:
REMARK  status: ('A' for Active; 'I' for Inactive)
REMARK    1  A    between atoms: C2_2  and  S1_4 
REMARK    2  A    between atoms: S1_4  and  C3_5 
REMARK    3  A    between atoms: C3_5  and  C4_6 
REMARK    4  A    between atoms: C4_6  and  N1_7 
REMARK       I    between atoms: N1_7  and  C5_8 
REMARK    5  A    between atoms: C5_8  and  C6_10 
REMARK    6  A    between atoms: C6_10  and  C7_11 
REMARK    7  A    between atoms: C7_11  and  N2_12 
REMARK       I    between atoms: N2_12  and  C8_13 
REMARK    8  A    between atoms: C8_13  and  C9_15 
REMARK    9  A    between atoms: C9_15  and  C10_16 
REMARK   10  A    between atoms: C9_15  and  O17_54 
REMARK   11  A    between atoms: C10_16  and  C13_19 
REMARK   12  A    between atoms: C13_19  and  O4_20 
REMARK   13  A    between atoms: O4_20  and  P1_21 
REMARK   14  A    between atoms: P1_21  and  O6_23 
REMARK   15  A    between atoms: P1_21  and  O7_24 
REMARK   16  A    between atoms: O7_24  and  P2_25 
REMARK   17  A    between atoms: P2_25  and  O9_27 
REMARK   18  A    between atoms: P2_25  and  O10_28 
REMARK   19  A    between atoms: O10_28  and  C14_29 
REMARK   20  A    between atoms: C14_29  and  C15_30 
REMARK   21  A    between atoms: C16_31  and  O13_49 
REMARK   22  A    between atoms: C17_32  and  O12_48 
REMARK   23  A    between atoms: C18_33  and  N3_35 
REMARK   24  A    between atoms: C21_40  and  N7_47 
REMARK   25  A    between atoms: O13_49  and  P3_50 
REMARK   26  A    between atoms: P3_50  and  O15_52 
REMARK   27  A    between atoms: P3_50  and  O16_53 
ROOT
HETATM    1  C1  UNL     1       1.047  19.569   7.014  1.00  0.00     0.104 C 
HETATM    2  C2  UNL     1       0.024  19.248   5.967  1.00  0.00     0.182 C 
HETATM    3  O1  UNL     1      -0.974  18.565   6.186  1.00  0.00    -0.286 OA
ENDROOT
BRANCH   2   4
HETATM    4  S1  UNL     1       0.387  19.899   4.374  1.00  0.00    -0.091 SA
BRANCH   4   5
HETATM    5  C3  UNL     1       2.164  19.512   4.265  1.00  0.00     0.102 C 
BRANCH   5   6
HETATM    6  C4  UNL     1       2.654  19.488   2.815  1.00  0.00     0.133 C 
BRANCH   6   7
HETATM    7  N1  UNL     1       4.091  19.346   2.713  1.00  0.00    -0.360 N 
HETATM    8  C5  UNL     1       4.683  18.722   1.639  1.00  0.00     0.219 C 
HETATM    9  O2  UNL     1       4.034  18.182   0.750  1.00  0.00    -0.274 OA
HETATM   10  H8  UNL     1       4.671  19.723   3.450  1.00  0.00     0.162 HD
BRANCH   8  11
HETATM   11  C6  UNL     1       6.195  18.730   1.699  1.00  0.00     0.122 C 
BRANCH  11  12
HETATM   12  C7  UNL     1       6.747  17.458   2.342  1.00  0.00     0.132 C 
BRANCH  12  13
HETATM   13  N2  UNL     1       6.763  17.514   3.789  1.00  0.00    -0.358 N 
HETATM   14  C8  UNL     1       6.286  16.450   4.532  1.00  0.00     0.247 C 
HETATM   15  O3  UNL     1       5.734  15.488   4.014  1.00  0.00    -0.271 OA
HETATM   16  H13 UNL     1       7.511  18.070   4.197  1.00  0.00     0.162 HD
BRANCH  14  17
HETATM   17  C9  UNL     1       6.524  16.565   6.046  1.00  0.00     0.219 C 
BRANCH  17  18
HETATM   18  C10 UNL     1       5.313  17.111   6.847  1.00  0.00     0.009 C 
HETATM   19  C11 UNL     1       5.562  17.083   8.362  1.00  0.00     0.020 C 
HETATM   20  C12 UNL     1       4.980  18.563   6.447  1.00  0.00     0.020 C 
BRANCH  18  21
HETATM   21  C13 UNL     1       4.116  16.182   6.497  1.00  0.00     0.192 C 
BRANCH  21  22
HETATM   22  O4  UNL     1       3.832  15.258   7.528  1.00  0.00    -0.296 OA
BRANCH  22  23
HETATM   23  P1  UNL     1       3.834  13.671   7.299  1.00  0.00     0.401 P 
HETATM   24  O5  UNL     1       4.144  12.876   8.528  1.00  0.00    -0.631 OA
BRANCH  23  25
HETATM   25  O6  UNL     1       4.830  13.379   6.068  1.00  0.00    -0.307 OA
HETATM   26  H23 UNL     1       5.406  14.132   5.883  1.00  0.00     0.222 HD
ENDBRANCH  23  25
BRANCH  23  27
HETATM   27  O7  UNL     1       2.423  13.349   6.637  1.00  0.00    -0.195 OA
BRANCH  27  28
HETATM   28  P2  UNL     1       2.048  11.834   6.321  1.00  0.00     0.401 P 
HETATM   29  O8  UNL     1       1.476  11.545   4.971  1.00  0.00    -0.631 OA
BRANCH  28  30
HETATM   30  O9  UNL     1       3.402  11.048   6.635  1.00  0.00    -0.307 OA
HETATM   31  H24 UNL     1       3.933  11.438   7.372  1.00  0.00     0.222 HD
ENDBRANCH  28  30
BRANCH  28  32
HETATM   32  O10 UNL     1       1.155  11.389   7.567  1.00  0.00    -0.294 OA
BRANCH  32  33
HETATM   33  C14 UNL     1      -0.245  11.461   7.489  1.00  0.00     0.215 C 
BRANCH  33  34
HETATM   34  C15 UNL     1      -0.750  10.020   7.528  1.00  0.00     0.180 C 
HETATM   35  C16 UNL     1       0.413   9.074   7.798  1.00  0.00     0.197 C 
HETATM   36  C17 UNL     1       0.488   8.195   6.564  1.00  0.00     0.199 C 
HETATM   37  C18 UNL     1      -0.948   8.255   6.038  1.00  0.00     0.262 C 
HETATM   38  O11 UNL     1      -1.369   9.611   6.303  1.00  0.00    -0.353 OA
BRANCH  35  39
HETATM   39  O13 UNL     1       0.111   8.326   8.972  1.00  0.00    -0.286 OA
BRANCH  39  40
HETATM   40  P3  UNL     1       1.226   8.359  10.116  1.00  0.00     0.391 P 
HETATM   41  O14 UNL     1       0.695   8.080  11.485  1.00  0.00    -0.632 OA
BRANCH  40  42
HETATM   42  O15 UNL     1       1.881   9.795   9.855  1.00  0.00    -0.307 OA
HETATM   43  H36 UNL     1       1.961   9.971   8.887  1.00  0.00     0.222 HD
ENDBRANCH  40  42
BRANCH  40  44
HETATM   44  O16 UNL     1       2.310   7.355   9.528  1.00  0.00    -0.307 OA
HETATM   45  H37 UNL     1       1.913   6.578   9.105  1.00  0.00     0.222 HD
ENDBRANCH  40  44
ENDBRANCH  39  40
ENDBRANCH  35  39
BRANCH  36  46
HETATM   46  O12 UNL     1       1.009   6.907   6.903  1.00  0.00    -0.388 OA
HETATM   47  H35 UNL     1       1.903   7.063   7.291  1.00  0.00     0.210 HD
ENDBRANCH  36  46
BRANCH  37  48
HETATM   48  N3  UNL     1      -1.029   8.013   4.611  1.00  0.00    -0.297 N 
HETATM   49  C19 UNL     1       0.019   7.840   3.737  1.00  0.00     0.188 A 
HETATM   50  N4  UNL     1      -0.387   7.512   2.530  1.00  0.00    -0.346 N 
HETATM   51  C20 UNL     1      -1.767   7.465   2.627  1.00  0.00     0.116 A 
HETATM   52  H4  UNL     1       0.186   7.332   1.706  1.00  0.00     0.167 HD
HETATM   53  C21 UNL     1      -2.776   7.136   1.706  1.00  0.00     0.109 A 
HETATM   54  C23 UNL     1      -2.179   7.812   3.901  1.00  0.00     0.142 A 
HETATM   55  N5  UNL     1      -4.069   7.196   2.110  1.00  0.00    -0.341 N 
HETATM   56  C22 UNL     1      -4.323   7.574   3.379  1.00  0.00     0.183 A 
HETATM   57  H5  UNL     1      -4.828   6.961   1.471  1.00  0.00     0.167 HD
HETATM   58  N6  UNL     1      -3.444   7.902   4.348  1.00  0.00    -0.336 N 
HETATM   59  H6  UNL     1      -3.704   8.182   5.294  1.00  0.00     0.168 HD
BRANCH  53  60
HETATM   60  N7  UNL     1      -2.520   6.761   0.397  1.00  0.00    -0.287 NA
HETATM   61  H33 UNL     1      -1.806   7.318  -0.067  1.00  0.00     0.125 HD
HETATM   62  H34 UNL     1      -3.362   6.570  -0.131  1.00  0.00     0.125 HD
ENDBRANCH  53  60
ENDBRANCH  37  48
ENDBRANCH  33  34
ENDBRANCH  32  33
ENDBRANCH  28  32
ENDBRANCH  27  28
ENDBRANCH  23  27
ENDBRANCH  22  23
ENDBRANCH  21  22
ENDBRANCH  18  21
ENDBRANCH  17  18
BRANCH  17  63
HETATM   63  O17 UNL     1       6.888  15.289   6.585  1.00  0.00    -0.385 OA
HETATM   64  H38 UNL     1       7.096  15.408   7.527  1.00  0.00     0.210 HD
ENDBRANCH  17  63
ENDBRANCH  14  17
ENDBRANCH  12  13
ENDBRANCH  11  12
ENDBRANCH   8  11
ENDBRANCH   6   7
ENDBRANCH   5   6
ENDBRANCH   4   5
ENDBRANCH   2   4
TORSDOF 27
ENDMDL
MODEL 9
REMARK VINA RESULT:      -6.2      5.683     11.083
REMARK  27 active torsions:
REMARK  status: ('A' for Active; 'I' for Inactive)
REMARK    1  A    between atoms: C2_2  and  S1_4 
REMARK    2  A    between atoms: S1_4  and  C3_5 
REMARK    3  A    between atoms: C3_5  and  C4_6 
REMARK    4  A    between atoms: C4_6  and  N1_7 
REMARK       I    between atoms: N1_7  and  C5_8 
REMARK    5  A    between atoms: C5_8  and  C6_10 
REMARK    6  A    between atoms: C6_10  and  C7_11 
REMARK    7  A    between atoms: C7_11  and  N2_12 
REMARK       I    between atoms: N2_12  and  C8_13 
REMARK    8  A    between atoms: C8_13  and  C9_15 
REMARK    9  A    between atoms: C9_15  and  C10_16 
REMARK   10  A    between atoms: C9_15  and  O17_54 
REMARK   11  A    between atoms: C10_16  and  C13_19 
REMARK   12  A    between atoms: C13_19  and  O4_20 
REMARK   13  A    between atoms: O4_20  and  P1_21 
REMARK   14  A    between atoms: P1_21  and  O6_23 
REMARK   15  A    between atoms: P1_21  and  O7_24 
REMARK   16  A    between atoms: O7_24  and  P2_25 
REMARK   17  A    between atoms: P2_25  and  O9_27 
REMARK   18  A    between atoms: P2_25  and  O10_28 
REMARK   19  A    between atoms: O10_28  and  C14_29 
REMARK   20  A    between atoms: C14_29  and  C15_30 
REMARK   21  A    between atoms: C16_31  and  O13_49 
REMARK   22  A    between atoms: C17_32  and  O12_48 
REMARK   23  A    between atoms: C18_33  and  N3_35 
REMARK   24  A    between atoms: C21_40  and  N7_47 
REMARK   25  A    between atoms: O13_49  and  P3_50 
REMARK   26  A    between atoms: P3_50  and  O15_52 
REMARK   27  A    between atoms: P3_50  and  O16_53 
ROOT
HETATM    1  C1  UNL     1       0.288   8.236   5.410  1.00  0.00     0.104 C 
HETATM    2  C2  UNL     1      -1.134   8.341   5.869  1.00  0.00     0.182 C 
HETATM    3  O1  UNL     1      -1.578   9.314   6.473  1.00  0.00    -0.286 OA
ENDROOT
BRANCH   2   4
HETATM    4  S1  UNL     1      -2.118   6.929   5.506  1.00  0.00    -0.091 SA
BRANCH   4   5
HETATM    5  C3  UNL     1      -3.512   7.721   4.639  1.00  0.00     0.102 C 
BRANCH   5   6
HETATM    6  C4  UNL     1      -3.452   7.484   3.129  1.00  0.00     0.133 C 
BRANCH   6   7
HETATM    7  N1  UNL     1      -4.241   8.442   2.381  1.00  0.00    -0.360 N 
HETATM    8  C5  UNL     1      -4.411   8.334   1.020  1.00  0.00     0.219 C 
HETATM    9  O2  UNL     1      -3.846   7.478   0.350  1.00  0.00    -0.274 OA
HETATM   10  H8  UNL     1      -4.681   9.204   2.879  1.00  0.00     0.162 HD
BRANCH   8  11
HETATM   11  C6  UNL     1      -5.314   9.403   0.443  1.00  0.00     0.122 C 
BRANCH  11  12
HETATM   12  C7  UNL     1      -4.614  10.759   0.363  1.00  0.00     0.132 C 
BRANCH  12  13
HETATM   13  N2  UNL     1      -5.338  11.724  -0.438  1.00  0.00    -0.358 N 
HETATM   14  C8  UNL     1      -4.757  12.937  -0.761  1.00  0.00     0.247 C 
HETATM   15  O3  UNL     1      -3.680  13.288  -0.295  1.00  0.00    -0.271 OA
HETATM   16  H13 UNL     1      -5.998  11.332  -1.106  1.00  0.00     0.162 HD
BRANCH  14  17
HETATM   17  C9  UNL     1      -5.556  13.789  -1.758  1.00  0.00     0.219 C 
BRANCH  17  18
HETATM   18  C10 UNL     1      -5.337  13.411  -3.246  1.00  0.00     0.009 C 
HETATM   19  C11 UNL     1      -3.879  13.027  -3.537  1.00  0.00     0.020 C 
HETATM   20  C12 UNL     1      -6.234  12.229  -3.667  1.00  0.00     0.020 C 
BRANCH  18  21
HETATM   21  C13 UNL     1      -5.717  14.677  -4.068  1.00  0.00     0.192 C 
BRANCH  21  22
HETATM   22  O4  UNL     1      -6.013  15.785  -3.243  1.00  0.00    -0.296 OA
BRANCH  22  23
HETATM   23  P1  UNL     1      -5.216  17.174  -3.332  1.00  0.00     0.401 P 
HETATM   24  O5  UNL     1      -5.627  18.043  -4.478  1.00  0.00    -0.631 OA
BRANCH  23  25
HETATM   25  O6  UNL     1      -3.648  16.812  -3.321  1.00  0.00    -0.307 OA
HETATM   26  H23 UNL     1      -3.419  16.218  -2.594  1.00  0.00     0.222 HD
ENDBRANCH  23  25
BRANCH  23  27
HETATM   27  O7  UNL     1      -5.390  17.840  -1.897  1.00  0.00    -0.195 OA
BRANCH  27  28
HETATM   28  P2  UNL     1      -6.859  18.149  -1.365  1.00  0.00     0.401 P 
HETATM   29  O8  UNL     1      -7.117  19.529  -0.854  1.00  0.00    -0.631 OA
BRANCH  28  30
HETATM   30  O9  UNL     1      -7.791  17.723  -2.590  1.00  0.00    -0.307 OA
HETATM   31  H24 UNL     1      -7.435  17.980  -3.475  1.00  0.00     0.222 HD
ENDBRANCH  28  30
BRANCH  28  32
HETATM   32  O10 UNL     1      -7.158  16.960  -0.341  1.00  0.00    -0.294 OA
BRANCH  32  33
HETATM   33  C14 UNL     1      -6.954  17.149   1.034  1.00  0.00     0.215 C 
BRANCH  33  34
HETATM   34  C15 UNL     1      -6.040  16.013   1.491  1.00  0.00     0.180 C 
HETATM   35  C16 UNL     1      -5.930  16.018   3.009  1.00  0.00     0.197 C 
HETATM   36  C17 UNL     1      -4.461  16.273   3.288  1.00  0.00     0.199 C 
HETATM   37  C18 UNL     1      -3.795  15.752   2.012  1.00  0.00     0.262 C 
HETATM   38  O11 UNL     1      -4.714  16.114   0.957  1.00  0.00    -0.353 OA
BRANCH  35  39
HETATM   39  O13 UNL     1      -6.354  14.746   3.487  1.00  0.00    -0.286 OA
BRANCH  39  40
HETATM   40  P3  UNL     1      -7.590  14.767   4.501  1.00  0.00     0.391 P 
HETATM   41  O14 UNL     1      -8.803  15.450   3.958  1.00  0.00    -0.632 OA
BRANCH  40  42
HETATM   42  O15 UNL     1      -6.901  15.401   5.799  1.00  0.00    -0.307 OA
HETATM   43  H36 UNL     1      -5.930  15.505   5.662  1.00  0.00     0.222 HD
ENDBRANCH  40  42
BRANCH  40  44
HETATM   44  O16 UNL     1      -7.717  13.227   4.875  1.00  0.00    -0.307 OA
HETATM   45  H37 UNL     1      -8.134  12.702   4.173  1.00  0.00     0.222 HD
ENDBRANCH  40  44
ENDBRANCH  39  40
ENDBRANCH  35  39
BRANCH  36  46
HETATM   46  O12 UNL     1      -4.077  15.664   4.524  1.00  0.00    -0.388 OA
HETATM   47  H35 UNL     1      -3.091  15.638   4.526  1.00  0.00     0.210 HD
ENDBRANCH  36  46
BRANCH  37  48
HETATM   48  N3  UNL     1      -2.517  16.383   1.753  1.00  0.00    -0.297 N 
HETATM   49  C19 UNL     1      -2.274  17.465   0.938  1.00  0.00     0.188 A 
HETATM   50  N4  UNL     1      -1.027  17.876   1.015  1.00  0.00    -0.346 N 
HETATM   51  C20 UNL     1      -0.434  17.023   1.929  1.00  0.00     0.116 A 
HETATM   52  H4  UNL     1      -0.594  18.652   0.514  1.00  0.00     0.167 HD
HETATM   53  C21 UNL     1       0.861  16.961   2.473  1.00  0.00     0.109 A 
HETATM   54  C23 UNL     1      -1.335  16.069   2.364  1.00  0.00     0.142 A 
HETATM   55  N5  UNL     1       1.145  15.977   3.360  1.00  0.00    -0.341 N 
HETATM   56  C22 UNL     1       0.171  15.100   3.674  1.00  0.00     0.183 A 
HETATM   57  H5  UNL     1       2.072  15.902   3.779  1.00  0.00     0.167 HD
HETATM   58  N6  UNL     1      -1.101  15.065   3.227  1.00  0.00    -0.336 N 
HETATM   59  H6  UNL     1      -1.793  14.369   3.506  1.00  0.00     0.168 HD
BRANCH  53  60
HETATM   60  N7  UNL     1       1.870  17.851   2.143  1.00  0.00    -0.287 NA
HETATM   61  H33 UNL     1       1.591  18.830   2.167  1.00  0.00     0.125 HD
HETATM   62  H34 UNL     1       2.414  17.553   1.344  1.00  0.00     0.125 HD
ENDBRANCH  53  60
ENDBRANCH  37  48
ENDBRANCH  33  34
ENDBRANCH  32  33
ENDBRANCH  28  32
ENDBRANCH  27  28
ENDBRANCH  23  27
ENDBRANCH  22  23
ENDBRANCH  21  22
ENDBRANCH  18  21
ENDBRANCH  17  18
BRANCH  17  63
HETATM   63  O17 UNL     1      -6.956  13.703  -1.468  1.00  0.00    -0.385 OA
HETATM   64  H38 UNL     1      -7.211  12.766  -1.488  1.00  0.00     0.210 HD
ENDBRANCH  17  63
ENDBRANCH  14  17
ENDBRANCH  12  13
ENDBRANCH  11  12
ENDBRANCH   8  11
ENDBRANCH   6   7
ENDBRANCH   5   6
ENDBRANCH   4   5
ENDBRANCH   2   4
TORSDOF 27
ENDMDL
MODEL 10
REMARK VINA RESULT:      -6.2      4.041      8.064
REMARK  27 active torsions:
REMARK  status: ('A' for Active; 'I' for Inactive)
REMARK    1  A    between atoms: C2_2  and  S1_4 
REMARK    2  A    between atoms: S1_4  and  C3_5 
REMARK    3  A    between atoms: C3_5  and  C4_6 
REMARK    4  A    between atoms: C4_6  and  N1_7 
REMARK       I    between atoms: N1_7  and  C5_8 
REMARK    5  A    between atoms: C5_8  and  C6_10 
REMARK    6  A    between atoms: C6_10  and  C7_11 
REMARK    7  A    between atoms: C7_11  and  N2_12 
REMARK       I    between atoms: N2_12  and  C8_13 
REMARK    8  A    between atoms: C8_13  and  C9_15 
REMARK    9  A    between atoms: C9_15  and  C10_16 
REMARK   10  A    between atoms: C9_15  and  O17_54 
REMARK   11  A    between atoms: C10_16  and  C13_19 
REMARK   12  A    between atoms: C13_19  and  O4_20 
REMARK   13  A    between atoms: O4_20  and  P1_21 
REMARK   14  A    between atoms: P1_21  and  O6_23 
REMARK   15  A    between atoms: P1_21  and  O7_24 
REMARK   16  A    between atoms: O7_24  and  P2_25 
REMARK   17  A    between atoms: P2_25  and  O9_27 
REMARK   18  A    between atoms: P2_25  and  O10_28 
REMARK   19  A    between atoms: O10_28  and  C14_29 
REMARK   20  A    between atoms: C14_29  and  C15_30 
REMARK   21  A    between atoms: C16_31  and  O13_49 
REMARK   22  A    between atoms: C17_32  and  O12_48 
REMARK   23  A    between atoms: C18_33  and  N3_35 
REMARK   24  A    between atoms: C21_40  and  N7_47 
REMARK   25  A    between atoms: O13_49  and  P3_50 
REMARK   26  A    between atoms: P3_50  and  O15_52 
REMARK   27  A    between atoms: P3_50  and  O16_53 
ROOT
HETATM    1  C1  UNL     1       0.275   8.093   4.077  1.00  0.00     0.104 C 
HETATM    2  C2  UNL     1      -1.180   7.735   4.061  1.00  0.00     0.182 C 
HETATM    3  O1  UNL     1      -1.867   7.660   5.077  1.00  0.00    -0.286 OA
ENDROOT
BRANCH   2   4
HETATM    4  S1  UNL     1      -1.824   7.387   2.463  1.00  0.00    -0.091 SA
BRANCH   4   5
HETATM    5  C3  UNL     1      -3.603   7.633   2.770  1.00  0.00     0.102 C 
BRANCH   5   6
HETATM    6  C4  UNL     1      -4.350   8.035   1.497  1.00  0.00     0.133 C 
BRANCH   6   7
HETATM    7  N1  UNL     1      -4.058   9.391   1.080  1.00  0.00    -0.360 N 
HETATM    8  C5  UNL     1      -4.963  10.140   0.364  1.00  0.00     0.219 C 
HETATM    9  O2  UNL     1      -6.029   9.685  -0.032  1.00  0.00    -0.274 OA
HETATM   10  H8  UNL     1      -3.166   9.796   1.332  1.00  0.00     0.162 HD
BRANCH   8  11
HETATM   11  C6  UNL     1      -4.483  11.547   0.079  1.00  0.00     0.122 C 
BRANCH  11  12
HETATM   12  C7  UNL     1      -5.562  12.588   0.375  1.00  0.00     0.132 C 
BRANCH  12  13
HETATM   13  N2  UNL     1      -5.267  13.888  -0.191  1.00  0.00    -0.358 N 
HETATM   14  C8  UNL     1      -5.121  14.989   0.633  1.00  0.00     0.247 C 
HETATM   15  O3  UNL     1      -5.348  14.939   1.835  1.00  0.00    -0.271 OA
HETATM   16  H13 UNL     1      -4.728  13.878  -1.054  1.00  0.00     0.162 HD
BRANCH  14  17
HETATM   17  C9  UNL     1      -4.635  16.263  -0.075  1.00  0.00     0.219 C 
BRANCH  17  18
HETATM   18  C10 UNL     1      -3.150  16.621   0.192  1.00  0.00     0.009 C 
HETATM   19  C11 UNL     1      -2.284  15.371   0.408  1.00  0.00     0.020 C 
HETATM   20  C12 UNL     1      -2.543  17.423  -0.977  1.00  0.00     0.020 C 
BRANCH  18  21
HETATM   21  C13 UNL     1      -3.145  17.489   1.483  1.00  0.00     0.192 C 
BRANCH  21  22
HETATM   22  O4  UNL     1      -1.998  17.266   2.277  1.00  0.00    -0.296 OA
BRANCH  22  23
HETATM   23  P1  UNL     1      -0.875  18.385   2.519  1.00  0.00     0.401 P 
HETATM   24  O5  UNL     1      -1.419  19.723   2.909  1.00  0.00    -0.631 OA
BRANCH  23  25
HETATM   25  O6  UNL     1       0.042  18.417   1.196  1.00  0.00    -0.307 OA
HETATM   26  H23 UNL     1      -0.126  19.202   0.659  1.00  0.00     0.222 HD
ENDBRANCH  23  25
BRANCH  23  27
HETATM   27  O7  UNL     1       0.127  17.741   3.574  1.00  0.00    -0.195 OA
BRANCH  27  28
HETATM   28  P2  UNL     1       1.241  16.726   3.057  1.00  0.00     0.401 P 
HETATM   29  O8  UNL     1       0.791  15.638   2.137  1.00  0.00    -0.631 OA
BRANCH  28  30
HETATM   30  O9  UNL     1       2.352  17.688   2.433  1.00  0.00    -0.307 OA
HETATM   31  H24 UNL     1       2.381  18.588   2.840  1.00  0.00     0.222 HD
ENDBRANCH  28  30
BRANCH  28  32
HETATM   32  O10 UNL     1       1.979  16.251   4.391  1.00  0.00    -0.294 OA
BRANCH  32  33
HETATM   33  C14 UNL     1       2.015  14.889   4.727  1.00  0.00     0.215 C 
BRANCH  33  34
HETATM   34  C15 UNL     1       1.982  14.825   6.253  1.00  0.00     0.180 C 
HETATM   35  C16 UNL     1       3.385  15.027   6.808  1.00  0.00     0.197 C 
HETATM   36  C17 UNL     1       3.701  13.733   7.535  1.00  0.00     0.199 C 
HETATM   37  C18 UNL     1       2.306  13.212   7.888  1.00  0.00     0.262 C 
HETATM   38  O11 UNL     1       1.492  13.574   6.750  1.00  0.00    -0.353 OA
BRANCH  35  39
HETATM   39  O13 UNL     1       3.354  16.144   7.690  1.00  0.00    -0.286 OA
BRANCH  39  40
HETATM   40  P3  UNL     1       4.236  17.401   7.242  1.00  0.00     0.391 P 
HETATM   41  O14 UNL     1       5.383  17.689   8.155  1.00  0.00    -0.632 OA
BRANCH  40  42
HETATM   42  O15 UNL     1       3.105  18.523   7.096  1.00  0.00    -0.307 OA
HETATM   43  H36 UNL     1       2.316  18.296   7.644  1.00  0.00     0.222 HD
ENDBRANCH  40  42
BRANCH  40  44
HETATM   44  O16 UNL     1       4.571  17.028   5.733  1.00  0.00    -0.307 OA
HETATM   45  H37 UNL     1       5.398  16.527   5.644  1.00  0.00     0.222 HD
ENDBRANCH  40  44
ENDBRANCH  39  40
ENDBRANCH  35  39
BRANCH  36  46
HETATM   46  O12 UNL     1       4.603  13.980   8.617  1.00  0.00    -0.388 OA
HETATM   47  H35 UNL     1       4.431  14.904   8.917  1.00  0.00     0.210 HD
ENDBRANCH  36  46
BRANCH  37  48
HETATM   48  N3  UNL     1       2.273  11.772   8.045  1.00  0.00    -0.297 N 
HETATM   49  C19 UNL     1       3.264  10.969   8.561  1.00  0.00     0.188 A 
HETATM   50  N4  UNL     1       2.878   9.719   8.687  1.00  0.00    -0.346 N 
HETATM   51  C20 UNL     1       1.570   9.710   8.234  1.00  0.00     0.116 A 
HETATM   52  H4  UNL     1       3.420   8.930   9.039  1.00  0.00     0.167 HD
HETATM   53  C21 UNL     1       0.597   8.699   8.151  1.00  0.00     0.109 A 
HETATM   54  C23 UNL     1       1.196  10.968   7.797  1.00  0.00     0.142 A 
HETATM   55  N5  UNL     1      -0.619   9.010   7.639  1.00  0.00    -0.341 N 
HETATM   56  C22 UNL     1      -0.835  10.276   7.230  1.00  0.00     0.183 A 
HETATM   57  H5  UNL     1      -1.352   8.304   7.567  1.00  0.00     0.167 HD
HETATM   58  N6  UNL     1       0.012  11.324   7.268  1.00  0.00    -0.336 N 
HETATM   59  H6  UNL     1      -0.215  12.263   6.939  1.00  0.00     0.168 HD
BRANCH  53  60
HETATM   60  N7  UNL     1       0.818   7.393   8.557  1.00  0.00    -0.287 NA
HETATM   61  H33 UNL     1       1.221   7.306   9.488  1.00  0.00     0.125 HD
HETATM   62  H34 UNL     1       1.222   6.817   7.831  1.00  0.00     0.125 HD
ENDBRANCH  53  60
ENDBRANCH  37  48
ENDBRANCH  33  34
ENDBRANCH  32  33
ENDBRANCH  28  32
ENDBRANCH  27  28
ENDBRANCH  23  27
ENDBRANCH  22  23
ENDBRANCH  21  22
ENDBRANCH  18  21
ENDBRANCH  17  18
BRANCH  17  63
HETATM   63  O17 UNL     1      -4.827  16.144  -1.489  1.00  0.00    -0.385 OA
HETATM   64  H38 UNL     1      -4.493  15.275  -1.767  1.00  0.00     0.210 HD
ENDBRANCH  17  63
ENDBRANCH  14  17
ENDBRANCH  12  13
ENDBRANCH  11  12
ENDBRANCH   8  11
ENDBRANCH   6   7
ENDBRANCH   5   6
ENDBRANCH   4   5
ENDBRANCH   2   4
TORSDOF 27
ENDMDL
MODEL 11
REMARK VINA RESULT:      -6.2      5.608     12.022
REMARK  27 active torsions:
REMARK  status: ('A' for Active; 'I' for Inactive)
REMARK    1  A    between atoms: C2_2  and  S1_4 
REMARK    2  A    between atoms: S1_4  and  C3_5 
REMARK    3  A    between atoms: C3_5  and  C4_6 
REMARK    4  A    between atoms: C4_6  and  N1_7 
REMARK       I    between atoms: N1_7  and  C5_8 
REMARK    5  A    between atoms: C5_8  and  C6_10 
REMARK    6  A    between atoms: C6_10  and  C7_11 
REMARK    7  A    between atoms: C7_11  and  N2_12 
REMARK       I    between atoms: N2_12  and  C8_13 
REMARK    8  A    between atoms: C8_13  and  C9_15 
REMARK    9  A    between atoms: C9_15  and  C10_16 
REMARK   10  A    between atoms: C9_15  and  O17_54 
REMARK   11  A    between atoms: C10_16  and  C13_19 
REMARK   12  A    between atoms: C13_19  and  O4_20 
REMARK   13  A    between atoms: O4_20  and  P1_21 
REMARK   14  A    between atoms: P1_21  and  O6_23 
REMARK   15  A    between atoms: P1_21  and  O7_24 
REMARK   16  A    between atoms: O7_24  and  P2_25 
REMARK   17  A    between atoms: P2_25  and  O9_27 
REMARK   18  A    between atoms: P2_25  and  O10_28 
REMARK   19  A    between atoms: O10_28  and  C14_29 
REMARK   20  A    between atoms: C14_29  and  C15_30 
REMARK   21  A    between atoms: C16_31  and  O13_49 
REMARK   22  A    between atoms: C17_32  and  O12_48 
REMARK   23  A    between atoms: C18_33  and  N3_35 
REMARK   24  A    between atoms: C21_40  and  N7_47 
REMARK   25  A    between atoms: O13_49  and  P3_50 
REMARK   26  A    between atoms: P3_50  and  O15_52 
REMARK   27  A    between atoms: P3_50  and  O16_53 
ROOT
HETATM    1  C1  UNL     1      -2.629   6.948   4.850  1.00  0.00     0.104 C 
HETATM    2  C2  UNL     1      -1.437   7.853   4.917  1.00  0.00     0.182 C 
HETATM    3  O1  UNL     1      -0.658   8.013   3.980  1.00  0.00    -0.286 OA
ENDROOT
BRANCH   2   4
HETATM    4  S1  UNL     1      -1.214   8.646   6.470  1.00  0.00    -0.091 SA
BRANCH   4   5
HETATM    5  C3  UNL     1       0.573   8.383   6.714  1.00  0.00     0.102 C 
BRANCH   5   6
HETATM    6  C4  UNL     1       1.394   9.590   6.258  1.00  0.00     0.133 C 
BRANCH   6   7
HETATM    7  N1  UNL     1       1.920  10.361   7.366  1.00  0.00    -0.360 N 
HETATM    8  C5  UNL     1       3.183  10.906   7.334  1.00  0.00     0.219 C 
HETATM    9  O2  UNL     1       3.964  10.708   6.410  1.00  0.00    -0.274 OA
HETATM   10  H8  UNL     1       1.336  10.504   8.179  1.00  0.00     0.162 HD
BRANCH   8  11
HETATM   11  C6  UNL     1       3.516  11.718   8.566  1.00  0.00     0.122 C 
BRANCH  11  12
HETATM   12  C7  UNL     1       2.542  12.879   8.765  1.00  0.00     0.132 C 
BRANCH  12  13
HETATM   13  N2  UNL     1       2.583  13.845   7.687  1.00  0.00    -0.358 N 
HETATM   14  C8  UNL     1       1.556  13.902   6.762  1.00  0.00     0.247 C 
HETATM   15  O3  UNL     1       0.650  13.078   6.744  1.00  0.00    -0.271 OA
HETATM   16  H13 UNL     1       3.069  14.715   7.896  1.00  0.00     0.162 HD
BRANCH  14  17
HETATM   17  C9  UNL     1       1.636  15.082   5.782  1.00  0.00     0.219 C 
BRANCH  17  18
HETATM   18  C10 UNL     1       2.264  14.734   4.407  1.00  0.00     0.009 C 
HETATM   19  C11 UNL     1       2.913  15.957   3.742  1.00  0.00     0.020 C 
HETATM   20  C12 UNL     1       3.340  13.637   4.538  1.00  0.00     0.020 C 
BRANCH  18  21
HETATM   21  C13 UNL     1       1.093  14.218   3.522  1.00  0.00     0.192 C 
BRANCH  21  22
HETATM   22  O4  UNL     1       0.892  15.019   2.375  1.00  0.00    -0.296 OA
BRANCH  22  23
HETATM   23  P1  UNL     1      -0.497  15.755   2.060  1.00  0.00     0.401 P 
HETATM   24  O5  UNL     1      -0.353  17.194   1.675  1.00  0.00    -0.631 OA
BRANCH  23  25
HETATM   25  O6  UNL     1      -1.450  15.517   3.335  1.00  0.00    -0.307 OA
HETATM   26  H23 UNL     1      -2.385  15.507   3.092  1.00  0.00     0.222 HD
ENDBRANCH  23  25
BRANCH  23  27
HETATM   27  O7  UNL     1      -1.208  14.843   0.968  1.00  0.00    -0.195 OA
BRANCH  27  28
HETATM   28  P2  UNL     1      -2.683  15.215   0.496  1.00  0.00     0.401 P 
HETATM   29  O8  UNL     1      -3.756  15.177   1.535  1.00  0.00    -0.631 OA
BRANCH  28  30
HETATM   30  O9  UNL     1      -2.498  16.642  -0.197  1.00  0.00    -0.307 OA
HETATM   31  H24 UNL     1      -1.565  16.852  -0.445  1.00  0.00     0.222 HD
ENDBRANCH  28  30
BRANCH  28  32
HETATM   32  O10 UNL     1      -2.922  14.295  -0.787  1.00  0.00    -0.294 OA
BRANCH  32  33
HETATM   33  C14 UNL     1      -3.201  14.882  -2.031  1.00  0.00     0.215 C 
BRANCH  33  34
HETATM   34  C15 UNL     1      -4.470  14.207  -2.547  1.00  0.00     0.180 C 
HETATM   35  C16 UNL     1      -4.325  12.694  -2.451  1.00  0.00     0.197 C 
HETATM   36  C17 UNL     1      -4.414  12.208  -3.885  1.00  0.00     0.199 C 
HETATM   37  C18 UNL     1      -5.221  13.323  -4.555  1.00  0.00     0.262 C 
HETATM   38  O11 UNL     1      -4.761  14.532  -3.911  1.00  0.00    -0.353 OA
BRANCH  35  39
HETATM   39  O13 UNL     1      -5.392  12.198  -1.649  1.00  0.00    -0.286 OA
BRANCH  39  40
HETATM   40  P3  UNL     1      -4.958  11.520  -0.268  1.00  0.00     0.391 P 
HETATM   41  O14 UNL     1      -5.607  10.197  -0.017  1.00  0.00    -0.632 OA
BRANCH  40  42
HETATM   42  O15 UNL     1      -5.271  12.705   0.759  1.00  0.00    -0.307 OA
HETATM   43  H36 UNL     1      -4.435  13.132   1.065  1.00  0.00     0.222 HD
ENDBRANCH  40  42
BRANCH  40  44
HETATM   44  O16 UNL     1      -3.372  11.552  -0.386  1.00  0.00    -0.307 OA
HETATM   45  H37 UNL     1      -2.982  10.667  -0.459  1.00  0.00     0.222 HD
ENDBRANCH  40  44
ENDBRANCH  39  40
ENDBRANCH  35  39
BRANCH  36  46
HETATM   46  O12 UNL     1      -4.958  10.886  -3.928  1.00  0.00    -0.388 OA
HETATM   47  H35 UNL     1      -5.100  10.675  -4.882  1.00  0.00     0.210 HD
ENDBRANCH  36  46
BRANCH  37  48
HETATM   48  N3  UNL     1      -4.959  13.423  -5.977  1.00  0.00    -0.297 N 
HETATM   49  C19 UNL     1      -4.215  14.385  -6.619  1.00  0.00     0.188 A 
HETATM   50  N4  UNL     1      -4.061  14.124  -7.899  1.00  0.00    -0.346 N 
HETATM   51  C20 UNL     1      -4.734  12.931  -8.095  1.00  0.00     0.116 A 
HETATM   52  H4  UNL     1      -3.558  14.678  -8.592  1.00  0.00     0.167 HD
HETATM   53  C21 UNL     1      -4.907  12.109  -9.222  1.00  0.00     0.109 A 
HETATM   54  C23 UNL     1      -5.328  12.506  -6.921  1.00  0.00     0.142 A 
HETATM   55  N5  UNL     1      -5.647  10.981  -9.095  1.00  0.00    -0.341 N 
HETATM   56  C22 UNL     1      -6.187  10.704  -7.891  1.00  0.00     0.183 A 
HETATM   57  H5  UNL     1      -5.791  10.358  -9.890  1.00  0.00     0.167 HD
HETATM   58  N6  UNL     1      -6.083  11.407  -6.745  1.00  0.00    -0.336 N 
HETATM   59  H6  UNL     1      -6.519  11.141  -5.862  1.00  0.00     0.168 HD
BRANCH  53  60
HETATM   60  N7  UNL     1      -4.366  12.397 -10.465  1.00  0.00    -0.287 NA
HETATM   61  H33 UNL     1      -4.476  11.654 -11.152  1.00  0.00     0.125 HD
HETATM   62  H34 UNL     1      -3.456  12.833 -10.409  1.00  0.00     0.125 HD
ENDBRANCH  53  60
ENDBRANCH  37  48
ENDBRANCH  33  34
ENDBRANCH  32  33
ENDBRANCH  28  32
ENDBRANCH  27  28
ENDBRANCH  23  27
ENDBRANCH  22  23
ENDBRANCH  21  22
ENDBRANCH  18  21
ENDBRANCH  17  18
BRANCH  17  63
HETATM   63  O17 UNL     1       0.331  15.628   5.562  1.00  0.00    -0.385 OA
HETATM   64  H38 UNL     1       0.311  16.012   4.669  1.00  0.00     0.210 HD
ENDBRANCH  17  63
ENDBRANCH  14  17
ENDBRANCH  12  13
ENDBRANCH  11  12
ENDBRANCH   8  11
ENDBRANCH   6   7
ENDBRANCH   5   6
ENDBRANCH   4   5
ENDBRANCH   2   4
TORSDOF 27
ENDMDL
MODEL 12
REMARK VINA RESULT:      -6.2     11.147     15.803
REMARK  27 active torsions:
REMARK  status: ('A' for Active; 'I' for Inactive)
REMARK    1  A    between atoms: C2_2  and  S1_4 
REMARK    2  A    between atoms: S1_4  and  C3_5 
REMARK    3  A    between atoms: C3_5  and  C4_6 
REMARK    4  A    between atoms: C4_6  and  N1_7 
REMARK       I    between atoms: N1_7  and  C5_8 
REMARK    5  A    between atoms: C5_8  and  C6_10 
REMARK    6  A    between atoms: C6_10  and  C7_11 
REMARK    7  A    between atoms: C7_11  and  N2_12 
REMARK       I    between atoms: N2_12  and  C8_13 
REMARK    8  A    between atoms: C8_13  and  C9_15 
REMARK    9  A    between atoms: C9_15  and  C10_16 
REMARK   10  A    between atoms: C9_15  and  O17_54 
REMARK   11  A    between atoms: C10_16  and  C13_19 
REMARK   12  A    between atoms: C13_19  and  O4_20 
REMARK   13  A    between atoms: O4_20  and  P1_21 
REMARK   14  A    between atoms: P1_21  and  O6_23 
REMARK   15  A    between atoms: P1_21  and  O7_24 
REMARK   16  A    between atoms: O7_24  and  P2_25 
REMARK   17  A    between atoms: P2_25  and  O9_27 
REMARK   18  A    between atoms: P2_25  and  O10_28 
REMARK   19  A    between atoms: O10_28  and  C14_29 
REMARK   20  A    between atoms: C14_29  and  C15_30 
REMARK   21  A    between atoms: C16_31  and  O13_49 
REMARK   22  A    between atoms: C17_32  and  O12_48 
REMARK   23  A    between atoms: C18_33  and  N3_35 
REMARK   24  A    between atoms: C21_40  and  N7_47 
REMARK   25  A    between atoms: O13_49  and  P3_50 
REMARK   26  A    between atoms: P3_50  and  O15_52 
REMARK   27  A    between atoms: P3_50  and  O16_53 
ROOT
HETATM    1  C1  UNL     1      -6.454  18.248  -4.999  1.00  0.00     0.104 C 
HETATM    2  C2  UNL     1      -5.154  17.748  -4.449  1.00  0.00     0.182 C 
HETATM    3  O1  UNL     1      -4.064  17.999  -4.958  1.00  0.00    -0.286 OA
ENDROOT
BRANCH   2   4
HETATM    4  S1  UNL     1      -5.314  16.729  -3.024  1.00  0.00    -0.091 SA
BRANCH   4   5
HETATM    5  C3  UNL     1      -3.559  16.502  -2.591  1.00  0.00     0.102 C 
BRANCH   5   6
HETATM    6  C4  UNL     1      -3.328  15.205  -1.812  1.00  0.00     0.133 C 
BRANCH   6   7
HETATM    7  N1  UNL     1      -4.258  14.158  -2.181  1.00  0.00    -0.360 N 
HETATM    8  C5  UNL     1      -3.977  12.829  -1.960  1.00  0.00     0.219 C 
HETATM    9  O2  UNL     1      -2.900  12.447  -1.516  1.00  0.00    -0.274 OA
HETATM   10  H8  UNL     1      -5.138  14.416  -2.605  1.00  0.00     0.162 HD
BRANCH   8  11
HETATM   11  C6  UNL     1      -5.103  11.903  -2.366  1.00  0.00     0.122 C 
BRANCH  11  12
HETATM   12  C7  UNL     1      -5.719  12.307  -3.705  1.00  0.00     0.132 C 
BRANCH  12  13
HETATM   13  N2  UNL     1      -5.582  11.287  -4.724  1.00  0.00    -0.358 N 
HETATM   14  C8  UNL     1      -4.434  11.220  -5.492  1.00  0.00     0.247 C 
HETATM   15  O3  UNL     1      -3.557  12.072  -5.429  1.00  0.00    -0.271 OA
HETATM   16  H13 UNL     1      -6.069  10.413  -4.537  1.00  0.00     0.162 HD
BRANCH  14  17
HETATM   17  C9  UNL     1      -4.343   9.990  -6.407  1.00  0.00     0.219 C 
BRANCH  17  18
HETATM   18  C10 UNL     1      -5.042  10.158  -7.782  1.00  0.00     0.009 C 
HETATM   19  C11 UNL     1      -5.699   8.855  -8.260  1.00  0.00     0.020 C 
HETATM   20  C12 UNL     1      -6.132  11.248  -7.732  1.00  0.00     0.020 C 
BRANCH  18  21
HETATM   21  C13 UNL     1      -3.926  10.577  -8.780  1.00  0.00     0.192 C 
BRANCH  21  22
HETATM   22  O4  UNL     1      -3.632   9.561  -9.717  1.00  0.00    -0.296 OA
BRANCH  22  23
HETATM   23  P1  UNL     1      -4.088   9.633 -11.253  1.00  0.00     0.401 P 
HETATM   24  O5  UNL     1      -5.101  10.695 -11.541  1.00  0.00    -0.631 OA
BRANCH  23  25
HETATM   25  O6  UNL     1      -4.564   8.152 -11.667  1.00  0.00    -0.307 OA
HETATM   26  H23 UNL     1      -4.838   7.633 -10.900  1.00  0.00     0.222 HD
ENDBRANCH  23  25
BRANCH  23  27
HETATM   27  O7  UNL     1      -2.734   9.765 -12.077  1.00  0.00    -0.195 OA
BRANCH  27  28
HETATM   28  P2  UNL     1      -2.179  11.218 -12.421  1.00  0.00     0.401 P 
HETATM   29  O8  UNL     1      -1.430  11.371 -13.704  1.00  0.00    -0.631 OA
BRANCH  28  30
HETATM   30  O9  UNL     1      -3.477  12.141 -12.311  1.00  0.00    -0.307 OA
HETATM   31  H24 UNL     1      -3.347  12.959 -11.771  1.00  0.00     0.222 HD
ENDBRANCH  28  30
BRANCH  28  32
HETATM   32  O10 UNL     1      -1.396  11.655 -11.099  1.00  0.00    -0.294 OA
BRANCH  32  33
HETATM   33  C14 UNL     1      -0.576  12.794 -11.112  1.00  0.00     0.215 C 
BRANCH  33  34
HETATM   34  C15 UNL     1       0.242  12.746  -9.823  1.00  0.00     0.180 C 
HETATM   35  C16 UNL     1      -0.290  11.645  -8.915  1.00  0.00     0.197 C 
HETATM   36  C17 UNL     1      -0.766  12.370  -7.670  1.00  0.00     0.199 C 
HETATM   37  C18 UNL     1       0.091  13.638  -7.688  1.00  0.00     0.262 C 
HETATM   38  O11 UNL     1       0.201  13.975  -9.089  1.00  0.00    -0.353 OA
BRANCH  35  39
HETATM   39  O13 UNL     1       0.779  10.746  -8.638  1.00  0.00    -0.286 OA
BRANCH  39  40
HETATM   40  P3  UNL     1       0.494   9.211  -8.979  1.00  0.00     0.391 P 
HETATM   41  O14 UNL     1       1.639   8.302  -8.669  1.00  0.00    -0.632 OA
BRANCH  40  42
HETATM   42  O15 UNL     1       0.031   9.324 -10.506  1.00  0.00    -0.307 OA
HETATM   43  H36 UNL     1      -0.500  10.144 -10.650  1.00  0.00     0.222 HD
ENDBRANCH  40  42
BRANCH  40  44
HETATM   44  O16 UNL     1      -0.873   8.964  -8.204  1.00  0.00    -0.307 OA
HETATM   45  H37 UNL     1      -1.576   8.624  -8.780  1.00  0.00     0.222 HD
ENDBRANCH  40  44
ENDBRANCH  39  40
ENDBRANCH  35  39
BRANCH  36  46
HETATM   46  O12 UNL     1      -0.654  11.518  -6.527  1.00  0.00    -0.388 OA
HETATM   47  H35 UNL     1      -0.292  12.076  -5.799  1.00  0.00     0.210 HD
ENDBRANCH  36  46
BRANCH  37  48
HETATM   48  N3  UNL     1      -0.535  14.743  -6.991  1.00  0.00    -0.297 N 
HETATM   49  C19 UNL     1      -1.762  14.745  -6.370  1.00  0.00     0.188 A 
HETATM   50  N4  UNL     1      -1.989  15.864  -5.718  1.00  0.00    -0.346 N 
HETATM   51  C20 UNL     1      -0.851  16.624  -5.922  1.00  0.00     0.116 A 
HETATM   52  H4  UNL     1      -2.819  16.117  -5.181  1.00  0.00     0.167 HD
HETATM   53  C21 UNL     1      -0.455  17.891  -5.460  1.00  0.00     0.109 A 
HETATM   54  C23 UNL     1       0.041  15.957  -6.741  1.00  0.00     0.142 A 
HETATM   55  N5  UNL     1       0.746  18.380  -5.854  1.00  0.00    -0.341 N 
HETATM   56  C22 UNL     1       1.503  17.626  -6.676  1.00  0.00     0.183 A 
HETATM   57  H5  UNL     1       1.068  19.294  -5.536  1.00  0.00     0.167 HD
HETATM   58  N6  UNL     1       1.234  16.402  -7.174  1.00  0.00    -0.336 N 
HETATM   59  H6  UNL     1       1.854  15.882  -7.796  1.00  0.00     0.168 HD
BRANCH  53  60
HETATM   60  N7  UNL     1      -1.236  18.676  -4.626  1.00  0.00    -0.287 NA
HETATM   61  H33 UNL     1      -1.391  19.623  -4.966  1.00  0.00     0.125 HD
HETATM   62  H34 UNL     1      -0.994  18.577  -3.650  1.00  0.00     0.125 HD
ENDBRANCH  53  60
ENDBRANCH  37  48
ENDBRANCH  33  34
ENDBRANCH  32  33
ENDBRANCH  28  32
ENDBRANCH  27  28
ENDBRANCH  23  27
ENDBRANCH  22  23
ENDBRANCH  21  22
ENDBRANCH  18  21
ENDBRANCH  17  18
BRANCH  17  63
HETATM   63  O17 UNL     1      -2.972   9.646  -6.634  1.00  0.00    -0.385 OA
HETATM   64  H38 UNL     1      -2.443  10.016  -5.908  1.00  0.00     0.210 HD
ENDBRANCH  17  63
ENDBRANCH  14  17
ENDBRANCH  12  13
ENDBRANCH  11  12
ENDBRANCH   8  11
ENDBRANCH   6   7
ENDBRANCH   5   6
ENDBRANCH   4   5
ENDBRANCH   2   4
TORSDOF 27
ENDMDL
MODEL 13
REMARK VINA RESULT:      -6.1      8.166     15.780
REMARK  27 active torsions:
REMARK  status: ('A' for Active; 'I' for Inactive)
REMARK    1  A    between atoms: C2_2  and  S1_4 
REMARK    2  A    between atoms: S1_4  and  C3_5 
REMARK    3  A    between atoms: C3_5  and  C4_6 
REMARK    4  A    between atoms: C4_6  and  N1_7 
REMARK       I    between atoms: N1_7  and  C5_8 
REMARK    5  A    between atoms: C5_8  and  C6_10 
REMARK    6  A    between atoms: C6_10  and  C7_11 
REMARK    7  A    between atoms: C7_11  and  N2_12 
REMARK       I    between atoms: N2_12  and  C8_13 
REMARK    8  A    between atoms: C8_13  and  C9_15 
REMARK    9  A    between atoms: C9_15  and  C10_16 
REMARK   10  A    between atoms: C9_15  and  O17_54 
REMARK   11  A    between atoms: C10_16  and  C13_19 
REMARK   12  A    between atoms: C13_19  and  O4_20 
REMARK   13  A    between atoms: O4_20  and  P1_21 
REMARK   14  A    between atoms: P1_21  and  O6_23 
REMARK   15  A    between atoms: P1_21  and  O7_24 
REMARK   16  A    between atoms: O7_24  and  P2_25 
REMARK   17  A    between atoms: P2_25  and  O9_27 
REMARK   18  A    between atoms: P2_25  and  O10_28 
REMARK   19  A    between atoms: O10_28  and  C14_29 
REMARK   20  A    between atoms: C14_29  and  C15_30 
REMARK   21  A    between atoms: C16_31  and  O13_49 
REMARK   22  A    between atoms: C17_32  and  O12_48 
REMARK   23  A    between atoms: C18_33  and  N3_35 
REMARK   24  A    between atoms: C21_40  and  N7_47 
REMARK   25  A    between atoms: O13_49  and  P3_50 
REMARK   26  A    between atoms: P3_50  and  O15_52 
REMARK   27  A    between atoms: P3_50  and  O16_53 
ROOT
HETATM    1  C1  UNL     1       0.297   8.120   3.859  1.00  0.00     0.104 C 
HETATM    2  C2  UNL     1      -1.156   7.764   3.950  1.00  0.00     0.182 C 
HETATM    3  O1  UNL     1      -1.772   7.711   5.012  1.00  0.00    -0.286 OA
ENDROOT
BRANCH   2   4
HETATM    4  S1  UNL     1      -1.908   7.387   2.406  1.00  0.00    -0.091 SA
BRANCH   4   5
HETATM    5  C3  UNL     1      -3.647   7.771   2.790  1.00  0.00     0.102 C 
BRANCH   5   6
HETATM    6  C4  UNL     1      -4.445   8.120   1.533  1.00  0.00     0.133 C 
BRANCH   6   7
HETATM    7  N1  UNL     1      -4.119   9.432   1.010  1.00  0.00    -0.360 N 
HETATM    8  C5  UNL     1      -5.004  10.141   0.231  1.00  0.00     0.219 C 
HETATM    9  O2  UNL     1      -6.079   9.679  -0.133  1.00  0.00    -0.274 OA
HETATM   10  H8  UNL     1      -3.219   9.835   1.234  1.00  0.00     0.162 HD
BRANCH   8  11
HETATM   11  C6  UNL     1      -4.492  11.509  -0.164  1.00  0.00     0.122 C 
BRANCH  11  12
HETATM   12  C7  UNL     1      -5.167  12.027  -1.433  1.00  0.00     0.132 C 
BRANCH  12  13
HETATM   13  N2  UNL     1      -4.715  13.347  -1.818  1.00  0.00    -0.358 N 
HETATM   14  C8  UNL     1      -5.266  14.471  -1.229  1.00  0.00     0.247 C 
HETATM   15  O3  UNL     1      -6.219  14.405  -0.464  1.00  0.00    -0.271 OA
HETATM   16  H13 UNL     1      -3.745  13.408  -2.120  1.00  0.00     0.162 HD
BRANCH  14  17
HETATM   17  C9  UNL     1      -4.576  15.794  -1.596  1.00  0.00     0.219 C 
BRANCH  17  18
HETATM   18  C10 UNL     1      -5.166  16.502  -2.843  1.00  0.00     0.009 C 
HETATM   19  C11 UNL     1      -6.584  16.012  -3.170  1.00  0.00     0.020 C 
HETATM   20  C12 UNL     1      -5.224  18.031  -2.650  1.00  0.00     0.020 C 
BRANCH  18  21
HETATM   21  C13 UNL     1      -4.209  16.159  -4.021  1.00  0.00     0.192 C 
BRANCH  21  22
HETATM   22  O4  UNL     1      -4.601  14.987  -4.708  1.00  0.00    -0.296 OA
BRANCH  22  23
HETATM   23  P1  UNL     1      -4.017  14.585  -6.146  1.00  0.00     0.401 P 
HETATM   24  O5  UNL     1      -2.528  14.681  -6.251  1.00  0.00    -0.631 OA
BRANCH  23  25
HETATM   25  O6  UNL     1      -4.803  15.476  -7.233  1.00  0.00    -0.307 OA
HETATM   26  H23 UNL     1      -5.339  16.163  -6.818  1.00  0.00     0.222 HD
ENDBRANCH  23  25
BRANCH  23  27
HETATM   27  O7  UNL     1      -4.613  13.140  -6.442  1.00  0.00    -0.195 OA
BRANCH  27  28
HETATM   28  P2  UNL     1      -4.024  11.888  -5.651  1.00  0.00     0.401 P 
HETATM   29  O8  UNL     1      -3.384  12.163  -4.330  1.00  0.00    -0.631 OA
BRANCH  28  30
HETATM   30  O9  UNL     1      -5.265  10.886  -5.578  1.00  0.00    -0.307 OA
HETATM   31  H24 UNL     1      -6.077  11.214  -6.035  1.00  0.00     0.222 HD
ENDBRANCH  28  30
BRANCH  28  32
HETATM   32  O10 UNL     1      -3.110  11.146  -6.729  1.00  0.00    -0.294 OA
BRANCH  32  33
HETATM   33  C14 UNL     1      -3.136   9.746  -6.827  1.00  0.00     0.215 C 
BRANCH  33  34
HETATM   34  C15 UNL     1      -3.096   9.421  -8.320  1.00  0.00     0.180 C 
HETATM   35  C16 UNL     1      -2.439  10.567  -9.078  1.00  0.00     0.197 C 
HETATM   36  C17 UNL     1      -3.520  11.081 -10.010  1.00  0.00     0.199 C 
HETATM   37  C18 UNL     1      -4.411   9.848 -10.181  1.00  0.00     0.262 C 
HETATM   38  O11 UNL     1      -4.396   9.215  -8.882  1.00  0.00    -0.353 OA
BRANCH  35  39
HETATM   39  O13 UNL     1      -1.322  10.042  -9.789  1.00  0.00    -0.286 OA
BRANCH  39  40
HETATM   40  P3  UNL     1       0.110  10.358  -9.152  1.00  0.00     0.391 P 
HETATM   41  O14 UNL     1       1.113  10.857 -10.142  1.00  0.00    -0.632 OA
BRANCH  40  42
HETATM   42  O15 UNL     1       0.422   8.974  -8.415  1.00  0.00    -0.307 OA
HETATM   43  H36 UNL     1       1.351   8.956  -8.084  1.00  0.00     0.222 HD
ENDBRANCH  40  42
BRANCH  40  44
HETATM   44  O16 UNL     1      -0.285  11.326  -7.953  1.00  0.00    -0.307 OA
HETATM   45  H37 UNL     1      -0.642  10.849  -7.187  1.00  0.00     0.222 HD
ENDBRANCH  40  44
ENDBRANCH  39  40
ENDBRANCH  35  39
BRANCH  36  46
HETATM   46  O12 UNL     1      -2.934  11.635 -11.191  1.00  0.00    -0.388 OA
HETATM   47  H35 UNL     1      -3.473  11.307 -11.950  1.00  0.00     0.210 HD
ENDBRANCH  36  46
BRANCH  37  48
HETATM   48  N3  UNL     1      -5.779  10.193 -10.516  1.00  0.00    -0.297 N 
HETATM   49  C19 UNL     1      -6.473   9.834 -11.648  1.00  0.00     0.188 A 
HETATM   50  N4  UNL     1      -7.735  10.197 -11.594  1.00  0.00    -0.346 N 
HETATM   51  C20 UNL     1      -7.868  10.818 -10.365  1.00  0.00     0.116 A 
HETATM   52  H4  UNL     1      -8.456  10.053 -12.301  1.00  0.00     0.167 HD
HETATM   53  C21 UNL     1      -8.968  11.384  -9.697  1.00  0.00     0.109 A 
HETATM   54  C23 UNL     1      -6.654  10.857  -9.703  1.00  0.00     0.142 A 
HETATM   55  N5  UNL     1      -8.771  11.939  -8.476  1.00  0.00    -0.341 N 
HETATM   56  C22 UNL     1      -7.524  11.925  -7.963  1.00  0.00     0.183 A 
HETATM   57  H5  UNL     1      -9.545  12.356  -7.960  1.00  0.00     0.167 HD
HETATM   58  N6  UNL     1      -6.402  11.408  -8.503  1.00  0.00    -0.336 N 
HETATM   59  H6  UNL     1      -5.483  11.431  -8.060  1.00  0.00     0.168 HD
BRANCH  53  60
HETATM   60  N7  UNL     1     -10.248  11.413 -10.226  1.00  0.00    -0.287 NA
HETATM   61  H33 UNL     1     -10.284  11.608 -11.225  1.00  0.00     0.125 HD
HETATM   62  H34 UNL     1     -10.906  11.911  -9.641  1.00  0.00     0.125 HD
ENDBRANCH  53  60
ENDBRANCH  37  48
ENDBRANCH  33  34
ENDBRANCH  32  33
ENDBRANCH  28  32
ENDBRANCH  27  28
ENDBRANCH  23  27
ENDBRANCH  22  23
ENDBRANCH  21  22
ENDBRANCH  18  21
ENDBRANCH  17  18
BRANCH  17  63
HETATM   63  O17 UNL     1      -4.630  16.701  -0.489  1.00  0.00    -0.385 OA
HETATM   64  H38 UNL     1      -4.186  17.524  -0.752  1.00  0.00     0.210 HD
ENDBRANCH  17  63
ENDBRANCH  14  17
ENDBRANCH  12  13
ENDBRANCH  11  12
ENDBRANCH   8  11
ENDBRANCH   6   7
ENDBRANCH   5   6
ENDBRANCH   4   5
ENDBRANCH   2   4
TORSDOF 27
ENDMDL
MODEL 14
REMARK VINA RESULT:      -6.1      5.871     12.486
REMARK  27 active torsions:
REMARK  status: ('A' for Active; 'I' for Inactive)
REMARK    1  A    between atoms: C2_2  and  S1_4 
REMARK    2  A    between atoms: S1_4  and  C3_5 
REMARK    3  A    between atoms: C3_5  and  C4_6 
REMARK    4  A    between atoms: C4_6  and  N1_7 
REMARK       I    between atoms: N1_7  and  C5_8 
REMARK    5  A    between atoms: C5_8  and  C6_10 
REMARK    6  A    between atoms: C6_10  and  C7_11 
REMARK    7  A    between atoms: C7_11  and  N2_12 
REMARK       I    between atoms: N2_12  and  C8_13 
REMARK    8  A    between atoms: C8_13  and  C9_15 
REMARK    9  A    between atoms: C9_15  and  C10_16 
REMARK   10  A    between atoms: C9_15  and  O17_54 
REMARK   11  A    between atoms: C10_16  and  C13_19 
REMARK   12  A    between atoms: C13_19  and  O4_20 
REMARK   13  A    between atoms: O4_20  and  P1_21 
REMARK   14  A    between atoms: P1_21  and  O6_23 
REMARK   15  A    between atoms: P1_21  and  O7_24 
REMARK   16  A    between atoms: O7_24  and  P2_25 
REMARK   17  A    between atoms: P2_25  and  O9_27 
REMARK   18  A    between atoms: P2_25  and  O10_28 
REMARK   19  A    between atoms: O10_28  and  C14_29 
REMARK   20  A    between atoms: C14_29  and  C15_30 
REMARK   21  A    between atoms: C16_31  and  O13_49 
REMARK   22  A    between atoms: C17_32  and  O12_48 
REMARK   23  A    between atoms: C18_33  and  N3_35 
REMARK   24  A    between atoms: C21_40  and  N7_47 
REMARK   25  A    between atoms: O13_49  and  P3_50 
REMARK   26  A    between atoms: P3_50  and  O15_52 
REMARK   27  A    between atoms: P3_50  and  O16_53 
ROOT
HETATM    1  C1  UNL     1       3.109  19.299   2.649  1.00  0.00     0.104 C 
HETATM    2  C2  UNL     1       4.216  18.640   1.885  1.00  0.00     0.182 C 
HETATM    3  O1  UNL     1       4.083  18.208   0.742  1.00  0.00    -0.286 OA
ENDROOT
BRANCH   2   4
HETATM    4  S1  UNL     1       5.726  18.495   2.775  1.00  0.00    -0.091 SA
BRANCH   4   5
HETATM    5  C3  UNL     1       6.818  17.865   1.459  1.00  0.00     0.102 C 
BRANCH   5   6
HETATM    6  C4  UNL     1       7.089  16.367   1.612  1.00  0.00     0.133 C 
BRANCH   6   7
HETATM    7  N1  UNL     1       6.609  15.838   2.872  1.00  0.00    -0.360 N 
HETATM    8  C5  UNL     1       7.277  14.836   3.538  1.00  0.00     0.219 C 
HETATM    9  O2  UNL     1       8.264  14.278   3.072  1.00  0.00    -0.274 OA
HETATM   10  H8  UNL     1       5.765  16.224   3.272  1.00  0.00     0.162 HD
BRANCH   8  11
HETATM   11  C6  UNL     1       6.641  14.468   4.860  1.00  0.00     0.122 C 
BRANCH  11  12
HETATM   12  C7  UNL     1       5.930  15.658   5.503  1.00  0.00     0.132 C 
BRANCH  12  13
HETATM   13  N2  UNL     1       4.592  15.342   5.959  1.00  0.00    -0.358 N 
HETATM   14  C8  UNL     1       3.525  15.398   5.082  1.00  0.00     0.247 C 
HETATM   15  O3  UNL     1       3.643  15.824   3.939  1.00  0.00    -0.271 OA
HETATM   16  H13 UNL     1       4.537  14.664   6.717  1.00  0.00     0.162 HD
BRANCH  14  17
HETATM   17  C9  UNL     1       2.198  14.870   5.646  1.00  0.00     0.219 C 
BRANCH  17  18
HETATM   18  C10 UNL     1       1.724  13.529   5.025  1.00  0.00     0.009 C 
HETATM   19  C11 UNL     1       2.895  12.574   4.749  1.00  0.00     0.020 C 
HETATM   20  C12 UNL     1       0.725  12.801   5.947  1.00  0.00     0.020 C 
BRANCH  18  21
HETATM   21  C13 UNL     1       1.027  13.902   3.686  1.00  0.00     0.192 C 
BRANCH  21  22
HETATM   22  O4  UNL     1       0.192  15.036   3.811  1.00  0.00    -0.296 OA
BRANCH  22  23
HETATM   23  P1  UNL     1      -0.318  15.885   2.551  1.00  0.00     0.401 P 
HETATM   24  O5  UNL     1       0.756  16.671   1.868  1.00  0.00    -0.631 OA
BRANCH  23  25
HETATM   25  O6  UNL     1      -1.553  16.782   3.063  1.00  0.00    -0.307 OA
HETATM   26  H23 UNL     1      -2.404  16.366   2.877  1.00  0.00     0.222 HD
ENDBRANCH  23  25
BRANCH  23  27
HETATM   27  O7  UNL     1      -1.065  14.833   1.621  1.00  0.00    -0.195 OA
BRANCH  27  28
HETATM   28  P2  UNL     1      -2.370  15.293   0.831  1.00  0.00     0.401 P 
HETATM   29  O8  UNL     1      -3.660  15.271   1.585  1.00  0.00    -0.631 OA
BRANCH  28  30
HETATM   30  O9  UNL     1      -1.970  16.733   0.269  1.00  0.00    -0.307 OA
HETATM   31  H24 UNL     1      -1.174  17.128   0.701  1.00  0.00     0.222 HD
ENDBRANCH  28  30
BRANCH  28  32
HETATM   32  O10 UNL     1      -2.333  14.431  -0.512  1.00  0.00    -0.294 OA
BRANCH  32  33
HETATM   33  C14 UNL     1      -3.347  13.497  -0.777  1.00  0.00     0.215 C 
BRANCH  33  34
HETATM   34  C15 UNL     1      -3.977  13.915  -2.104  1.00  0.00     0.180 C 
HETATM   35  C16 UNL     1      -5.482  13.693  -2.053  1.00  0.00     0.197 C 
HETATM   36  C17 UNL     1      -5.756  12.666  -3.136  1.00  0.00     0.199 C 
HETATM   37  C18 UNL     1      -4.580  12.883  -4.091  1.00  0.00     0.262 C 
HETATM   38  O11 UNL     1      -3.465  13.180  -3.222  1.00  0.00    -0.353 OA
BRANCH  35  39
HETATM   39  O13 UNL     1      -6.122  14.937  -2.318  1.00  0.00    -0.286 OA
BRANCH  39  40
HETATM   40  P3  UNL     1      -7.138  15.443  -1.193  1.00  0.00     0.391 P 
HETATM   41  O14 UNL     1      -7.746  16.777  -1.485  1.00  0.00    -0.632 OA
BRANCH  40  42
HETATM   42  O15 UNL     1      -6.225  15.315   0.115  1.00  0.00    -0.307 OA
HETATM   43  H36 UNL     1      -5.446  15.917   0.056  1.00  0.00     0.222 HD
ENDBRANCH  40  42
BRANCH  40  44
HETATM   44  O16 UNL     1      -8.120  14.198  -1.072  1.00  0.00    -0.307 OA
HETATM   45  H37 UNL     1      -8.123  13.806  -0.184  1.00  0.00     0.222 HD
ENDBRANCH  40  44
ENDBRANCH  39  40
ENDBRANCH  35  39
BRANCH  36  46
HETATM   46  O12 UNL     1      -7.073  12.843  -3.664  1.00  0.00    -0.388 OA
HETATM   47  H35 UNL     1      -7.408  11.941  -3.882  1.00  0.00     0.210 HD
ENDBRANCH  36  46
BRANCH  37  48
HETATM   48  N3  UNL     1      -4.266  11.699  -4.864  1.00  0.00    -0.297 N 
HETATM   49  C19 UNL     1      -4.959  10.511  -4.884  1.00  0.00     0.188 A 
HETATM   50  N4  UNL     1      -4.491   9.676  -5.786  1.00  0.00    -0.346 N 
HETATM   51  C20 UNL     1      -3.445  10.357  -6.383  1.00  0.00     0.116 A 
HETATM   52  H4  UNL     1      -4.824   8.735  -5.998  1.00  0.00     0.167 HD
HETATM   53  C21 UNL     1      -2.575  10.032  -7.438  1.00  0.00     0.109 A 
HETATM   54  C23 UNL     1      -3.270  11.597  -5.795  1.00  0.00     0.142 A 
HETATM   55  N5  UNL     1      -1.623  10.929  -7.794  1.00  0.00    -0.341 N 
HETATM   56  C22 UNL     1      -1.554  12.090  -7.114  1.00  0.00     0.183 A 
HETATM   57  H5  UNL     1      -0.976  10.730  -8.557  1.00  0.00     0.167 HD
HETATM   58  N6  UNL     1      -2.334  12.514  -6.098  1.00  0.00    -0.336 N 
HETATM   59  H6  UNL     1      -2.229  13.410  -5.623  1.00  0.00     0.168 HD
BRANCH  53  60
HETATM   60  N7  UNL     1      -2.632   8.833  -8.131  1.00  0.00    -0.287 NA
HETATM   61  H33 UNL     1      -2.350   8.021  -7.586  1.00  0.00     0.125 HD
HETATM   62  H34 UNL     1      -2.263   8.902  -9.070  1.00  0.00     0.125 HD
ENDBRANCH  53  60
ENDBRANCH  37  48
ENDBRANCH  33  34
ENDBRANCH  32  33
ENDBRANCH  28  32
ENDBRANCH  27  28
ENDBRANCH  23  27
ENDBRANCH  22  23
ENDBRANCH  21  22
ENDBRANCH  18  21
ENDBRANCH  17  18
BRANCH  17  63
HETATM   63  O17 UNL     1       2.298  14.703   7.065  1.00  0.00    -0.385 OA
HETATM   64  H38 UNL     1       2.742  13.857   7.239  1.00  0.00     0.210 HD
ENDBRANCH  17  63
ENDBRANCH  14  17
ENDBRANCH  12  13
ENDBRANCH  11  12
ENDBRANCH   8  11
ENDBRANCH   6   7
ENDBRANCH   5   6
ENDBRANCH   4   5
ENDBRANCH   2   4
TORSDOF 27
ENDMDL
MODEL 15
REMARK VINA RESULT:      -5.9      5.217     10.622
REMARK  27 active torsions:
REMARK  status: ('A' for Active; 'I' for Inactive)
REMARK    1  A    between atoms: C2_2  and  S1_4 
REMARK    2  A    between atoms: S1_4  and  C3_5 
REMARK    3  A    between atoms: C3_5  and  C4_6 
REMARK    4  A    between atoms: C4_6  and  N1_7 
REMARK       I    between atoms: N1_7  and  C5_8 
REMARK    5  A    between atoms: C5_8  and  C6_10 
REMARK    6  A    between atoms: C6_10  and  C7_11 
REMARK    7  A    between atoms: C7_11  and  N2_12 
REMARK       I    between atoms: N2_12  and  C8_13 
REMARK    8  A    between atoms: C8_13  and  C9_15 
REMARK    9  A    between atoms: C9_15  and  C10_16 
REMARK   10  A    between atoms: C9_15  and  O17_54 
REMARK   11  A    between atoms: C10_16  and  C13_19 
REMARK   12  A    between atoms: C13_19  and  O4_20 
REMARK   13  A    between atoms: O4_20  and  P1_21 
REMARK   14  A    between atoms: P1_21  and  O6_23 
REMARK   15  A    between atoms: P1_21  and  O7_24 
REMARK   16  A    between atoms: O7_24  and  P2_25 
REMARK   17  A    between atoms: P2_25  and  O9_27 
REMARK   18  A    between atoms: P2_25  and  O10_28 
REMARK   19  A    between atoms: O10_28  and  C14_29 
REMARK   20  A    between atoms: C14_29  and  C15_30 
REMARK   21  A    between atoms: C16_31  and  O13_49 
REMARK   22  A    between atoms: C17_32  and  O12_48 
REMARK   23  A    between atoms: C18_33  and  N3_35 
REMARK   24  A    between atoms: C21_40  and  N7_47 
REMARK   25  A    between atoms: O13_49  and  P3_50 
REMARK   26  A    between atoms: P3_50  and  O15_52 
REMARK   27  A    between atoms: P3_50  and  O16_53 
ROOT
HETATM    1  C1  UNL     1      -2.328   6.590   5.152  1.00  0.00     0.104 C 
HETATM    2  C2  UNL     1      -1.409   7.756   4.946  1.00  0.00     0.182 C 
HETATM    3  O1  UNL     1      -0.833   7.982   3.885  1.00  0.00    -0.286 OA
ENDROOT
BRANCH   2   4
HETATM    4  S1  UNL     1      -1.188   8.764   6.370  1.00  0.00    -0.091 SA
BRANCH   4   5
HETATM    5  C3  UNL     1       0.616   8.629   6.585  1.00  0.00     0.102 C 
BRANCH   5   6
HETATM    6  C4  UNL     1       1.302   9.995   6.510  1.00  0.00     0.133 C 
BRANCH   6   7
HETATM    7  N1  UNL     1       1.759  10.463   7.802  1.00  0.00    -0.360 N 
HETATM    8  C5  UNL     1       3.093  10.661   8.071  1.00  0.00     0.219 C 
HETATM    9  O2  UNL     1       3.977  10.379   7.269  1.00  0.00    -0.274 OA
HETATM   10  H8  UNL     1       1.073  10.655   8.520  1.00  0.00     0.162 HD
BRANCH   8  11
HETATM   11  C6  UNL     1       3.351  11.205   9.459  1.00  0.00     0.122 C 
BRANCH  11  12
HETATM   12  C7  UNL     1       2.964  12.679   9.575  1.00  0.00     0.132 C 
BRANCH  12  13
HETATM   13  N2  UNL     1       3.577  13.509   8.560  1.00  0.00    -0.358 N 
HETATM   14  C8  UNL     1       2.812  14.036   7.536  1.00  0.00     0.247 C 
HETATM   15  O3  UNL     1       1.636  13.733   7.378  1.00  0.00    -0.271 OA
HETATM   16  H13 UNL     1       4.384  14.050   8.865  1.00  0.00     0.162 HD
BRANCH  14  17
HETATM   17  C9  UNL     1       3.548  15.037   6.633  1.00  0.00     0.219 C 
BRANCH  17  18
HETATM   18  C10 UNL     1       3.842  14.516   5.201  1.00  0.00     0.009 C 
HETATM   19  C11 UNL     1       4.983  15.292   4.527  1.00  0.00     0.020 C 
HETATM   20  C12 UNL     1       4.225  13.022   5.211  1.00  0.00     0.020 C 
BRANCH  18  21
HETATM   21  C13 UNL     1       2.527  14.716   4.395  1.00  0.00     0.192 C 
BRANCH  21  22
HETATM   22  O4  UNL     1       2.664  15.680   3.371  1.00  0.00    -0.296 OA
BRANCH  22  23
HETATM   23  P1  UNL     1       1.622  16.880   3.160  1.00  0.00     0.401 P 
HETATM   24  O5  UNL     1       2.262  18.203   2.879  1.00  0.00    -0.631 OA
BRANCH  23  25
HETATM   25  O6  UNL     1       0.653  16.886   4.445  1.00  0.00    -0.307 OA
HETATM   26  H23 UNL     1      -0.271  16.740   4.202  1.00  0.00     0.222 HD
ENDBRANCH  23  25
BRANCH  23  27
HETATM   27  O7  UNL     1       0.630  16.368   2.027  1.00  0.00    -0.195 OA
BRANCH  27  28
HETATM   28  P2  UNL     1      -0.816  15.848   2.447  1.00  0.00     0.401 P 
HETATM   29  O8  UNL     1      -0.881  14.856   3.562  1.00  0.00    -0.631 OA
BRANCH  28  30
HETATM   30  O9  UNL     1      -1.624  17.197   2.728  1.00  0.00    -0.307 OA
HETATM   31  H24 UNL     1      -1.340  17.674   3.546  1.00  0.00     0.222 HD
ENDBRANCH  28  30
BRANCH  28  32
HETATM   32  O10 UNL     1      -1.479  15.391   1.068  1.00  0.00    -0.294 OA
BRANCH  32  33
HETATM   33  C14 UNL     1      -2.695  15.954   0.652  1.00  0.00     0.215 C 
BRANCH  33  34
HETATM   34  C15 UNL     1      -3.790  14.993   1.112  1.00  0.00     0.180 C 
HETATM   35  C16 UNL     1      -4.775  14.752  -0.024  1.00  0.00     0.197 C 
HETATM   36  C17 UNL     1      -6.099  15.280   0.496  1.00  0.00     0.199 C 
HETATM   37  C18 UNL     1      -5.920  15.160   2.012  1.00  0.00     0.262 C 
HETATM   38  O11 UNL     1      -4.531  15.486   2.234  1.00  0.00    -0.353 OA
BRANCH  35  39
HETATM   39  O13 UNL     1      -4.819  13.352  -0.280  1.00  0.00    -0.286 OA
BRANCH  39  40
HETATM   40  P3  UNL     1      -4.525  12.919  -1.791  1.00  0.00     0.391 P 
HETATM   41  O14 UNL     1      -4.842  13.980  -2.795  1.00  0.00    -0.632 OA
BRANCH  40  42
HETATM   42  O15 UNL     1      -5.348  11.550  -1.875  1.00  0.00    -0.307 OA
HETATM   43  H36 UNL     1      -4.872  10.890  -2.432  1.00  0.00     0.222 HD
ENDBRANCH  40  42
BRANCH  40  44
HETATM   44  O16 UNL     1      -3.016  12.428  -1.690  1.00  0.00    -0.307 OA
HETATM   45  H37 UNL     1      -2.545  12.484  -2.536  1.00  0.00     0.222 HD
ENDBRANCH  40  44
ENDBRANCH  39  40
ENDBRANCH  35  39
BRANCH  36  46
HETATM   46  O12 UNL     1      -7.185  14.564  -0.096  1.00  0.00    -0.388 OA
HETATM   47  H35 UNL     1      -6.950  14.437  -1.046  1.00  0.00     0.210 HD
ENDBRANCH  36  46
BRANCH  37  48
HETATM   48  N3  UNL     1      -6.743  16.101   2.745  1.00  0.00    -0.297 N 
HETATM   49  C19 UNL     1      -7.716  16.929   2.234  1.00  0.00     0.188 A 
HETATM   50  N4  UNL     1      -8.370  17.571   3.178  1.00  0.00    -0.346 N 
HETATM   51  C20 UNL     1      -7.796  17.134   4.359  1.00  0.00     0.116 A 
HETATM   52  H4  UNL     1      -9.130  18.241   3.064  1.00  0.00     0.167 HD
HETATM   53  C21 UNL     1      -8.071  17.409   5.710  1.00  0.00     0.109 A 
HETATM   54  C23 UNL     1      -6.761  16.254   4.103  1.00  0.00     0.142 A 
HETATM   55  N5  UNL     1      -7.306  16.819   6.660  1.00  0.00    -0.341 N 
HETATM   56  C22 UNL     1      -6.313  15.999   6.262  1.00  0.00     0.183 A 
HETATM   57  H5  UNL     1      -7.477  16.991   7.651  1.00  0.00     0.167 HD
HETATM   58  N6  UNL     1      -5.963  15.655   5.006  1.00  0.00    -0.336 N 
HETATM   59  H6  UNL     1      -5.196  15.025   4.771  1.00  0.00     0.168 HD
BRANCH  53  60
HETATM   60  N7  UNL     1      -9.081  18.263   6.124  1.00  0.00    -0.287 NA
HETATM   61  H33 UNL     1     -10.018  17.876   6.037  1.00  0.00     0.125 HD
HETATM   62  H34 UNL     1      -8.949  19.213   5.806  1.00  0.00     0.125 HD
ENDBRANCH  53  60
ENDBRANCH  37  48
ENDBRANCH  33  34
ENDBRANCH  32  33
ENDBRANCH  28  32
ENDBRANCH  27  28
ENDBRANCH  23  27
ENDBRANCH  22  23
ENDBRANCH  21  22
ENDBRANCH  18  21
ENDBRANCH  17  18
BRANCH  17  63
HETATM   63  O17 UNL     1       2.796  16.251   6.528  1.00  0.00    -0.385 OA
HETATM   64  H38 UNL     1       2.196  16.170   5.768  1.00  0.00     0.210 HD
ENDBRANCH  17  63
ENDBRANCH  14  17
ENDBRANCH  12  13
ENDBRANCH  11  12
ENDBRANCH   8  11
ENDBRANCH   6   7
ENDBRANCH   5   6
ENDBRANCH   4   5
ENDBRANCH   2   4
TORSDOF 27
ENDMDL
MODEL 16
REMARK VINA RESULT:      -5.8      4.737      8.504
REMARK  27 active torsions:
REMARK  status: ('A' for Active; 'I' for Inactive)
REMARK    1  A    between atoms: C2_2  and  S1_4 
REMARK    2  A    between atoms: S1_4  and  C3_5 
REMARK    3  A    between atoms: C3_5  and  C4_6 
REMARK    4  A    between atoms: C4_6  and  N1_7 
REMARK       I    between atoms: N1_7  and  C5_8 
REMARK    5  A    between atoms: C5_8  and  C6_10 
REMARK    6  A    between atoms: C6_10  and  C7_11 
REMARK    7  A    between atoms: C7_11  and  N2_12 
REMARK       I    between atoms: N2_12  and  C8_13 
REMARK    8  A    between atoms: C8_13  and  C9_15 
REMARK    9  A    between atoms: C9_15  and  C10_16 
REMARK   10  A    between atoms: C9_15  and  O17_54 
REMARK   11  A    between atoms: C10_16  and  C13_19 
REMARK   12  A    between atoms: C13_19  and  O4_20 
REMARK   13  A    between atoms: O4_20  and  P1_21 
REMARK   14  A    between atoms: P1_21  and  O6_23 
REMARK   15  A    between atoms: P1_21  and  O7_24 
REMARK   16  A    between atoms: O7_24  and  P2_25 
REMARK   17  A    between atoms: P2_25  and  O9_27 
REMARK   18  A    between atoms: P2_25  and  O10_28 
REMARK   19  A    between atoms: O10_28  and  C14_29 
REMARK   20  A    between atoms: C14_29  and  C15_30 
REMARK   21  A    between atoms: C16_31  and  O13_49 
REMARK   22  A    between atoms: C17_32  and  O12_48 
REMARK   23  A    between atoms: C18_33  and  N3_35 
REMARK   24  A    between atoms: C21_40  and  N7_47 
REMARK   25  A    between atoms: O13_49  and  P3_50 
REMARK   26  A    between atoms: P3_50  and  O15_52 
REMARK   27  A    between atoms: P3_50  and  O16_53 
ROOT
HETATM    1  C1  UNL     1      -1.167  17.467  -5.027  1.00  0.00     0.104 C 
HETATM    2  C2  UNL     1      -1.958  17.634  -3.765  1.00  0.00     0.182 C 
HETATM    3  O1  UNL     1      -1.811  18.582  -2.997  1.00  0.00    -0.286 OA
ENDROOT
BRANCH   2   4
HETATM    4  S1  UNL     1      -3.097  16.333  -3.446  1.00  0.00    -0.091 SA
BRANCH   4   5
HETATM    5  C3  UNL     1      -4.053  16.352  -4.998  1.00  0.00     0.102 C 
BRANCH   5   6
HETATM    6  C4  UNL     1      -4.405  14.939  -5.467  1.00  0.00     0.133 C 
BRANCH   6   7
HETATM    7  N1  UNL     1      -4.506  13.995  -4.373  1.00  0.00    -0.360 N 
HETATM    8  C5  UNL     1      -5.057  12.746  -4.543  1.00  0.00     0.219 C 
HETATM    9  O2  UNL     1      -5.565  12.387  -5.599  1.00  0.00    -0.274 OA
HETATM   10  H8  UNL     1      -4.153  14.264  -3.465  1.00  0.00     0.162 HD
BRANCH   8  11
HETATM   11  C6  UNL     1      -5.014  11.897  -3.291  1.00  0.00     0.122 C 
BRANCH  11  12
HETATM   12  C7  UNL     1      -4.238  12.579  -2.165  1.00  0.00     0.132 C 
BRANCH  12  13
HETATM   13  N2  UNL     1      -5.039  12.806  -0.981  1.00  0.00    -0.358 N 
HETATM   14  C8  UNL     1      -5.860  13.915  -0.897  1.00  0.00     0.247 C 
HETATM   15  O3  UNL     1      -5.855  14.795  -1.748  1.00  0.00    -0.271 OA
HETATM   16  H13 UNL     1      -5.337  11.968  -0.486  1.00  0.00     0.162 HD
BRANCH  14  17
HETATM   17  C9  UNL     1      -6.783  13.942   0.331  1.00  0.00     0.219 C 
BRANCH  17  18
HETATM   18  C10 UNL     1      -6.460  15.062   1.354  1.00  0.00     0.009 C 
HETATM   19  C11 UNL     1      -6.795  16.458   0.808  1.00  0.00     0.020 C 
HETATM   20  C12 UNL     1      -7.239  14.867   2.670  1.00  0.00     0.020 C 
BRANCH  18  21
HETATM   21  C13 UNL     1      -4.932  14.962   1.629  1.00  0.00     0.192 C 
BRANCH  21  22
HETATM   22  O4  UNL     1      -4.200  15.982   0.980  1.00  0.00    -0.296 OA
BRANCH  22  23
HETATM   23  P1  UNL     1      -2.617  15.898   0.736  1.00  0.00     0.401 P 
HETATM   24  O5  UNL     1      -2.045  17.079   0.018  1.00  0.00    -0.631 OA
BRANCH  23  25
HETATM   25  O6  UNL     1      -2.333  14.492   0.005  1.00  0.00    -0.307 OA
HETATM   26  H23 UNL     1      -1.645  13.984   0.453  1.00  0.00     0.222 HD
ENDBRANCH  23  25
BRANCH  23  27
HETATM   27  O7  UNL     1      -1.994  15.628   2.175  1.00  0.00    -0.195 OA
BRANCH  27  28
HETATM   28  P2  UNL     1      -0.416  15.734   2.363  1.00  0.00     0.401 P 
HETATM   29  O8  UNL     1       0.427  14.833   1.520  1.00  0.00    -0.631 OA
BRANCH  28  30
HETATM   30  O9  UNL     1      -0.124  17.289   2.147  1.00  0.00    -0.307 OA
HETATM   31  H24 UNL     1      -0.936  17.838   2.021  1.00  0.00     0.222 HD
ENDBRANCH  28  30
BRANCH  28  32
HETATM   32  O10 UNL     1      -0.205  15.611   3.941  1.00  0.00    -0.294 OA
BRANCH  32  33
HETATM   33  C14 UNL     1       0.122  14.372   4.512  1.00  0.00     0.215 C 
BRANCH  33  34
HETATM   34  C15 UNL     1       1.018  14.677   5.711  1.00  0.00     0.180 C 
HETATM   35  C16 UNL     1       2.472  14.750   5.263  1.00  0.00     0.197 C 
HETATM   36  C17 UNL     1       3.163  13.630   6.017  1.00  0.00     0.199 C 
HETATM   37  C18 UNL     1       2.265  13.465   7.245  1.00  0.00     0.262 C 
HETATM   38  O11 UNL     1       0.929  13.687   6.742  1.00  0.00    -0.353 OA
BRANCH  35  39
HETATM   39  O13 UNL     1       2.980  16.031   5.621  1.00  0.00    -0.286 OA
BRANCH  39  40
HETATM   40  P3  UNL     1       3.053  17.100   4.434  1.00  0.00     0.391 P 
HETATM   41  O14 UNL     1       4.304  17.918   4.436  1.00  0.00    -0.632 OA
BRANCH  40  42
HETATM   42  O15 UNL     1       1.665  17.868   4.637  1.00  0.00    -0.307 OA
HETATM   43  H36 UNL     1       1.571  18.598   3.979  1.00  0.00     0.222 HD
ENDBRANCH  40  42
BRANCH  40  44
HETATM   44  O16 UNL     1       2.776  16.181   3.166  1.00  0.00    -0.307 OA
HETATM   45  H37 UNL     1       2.105  16.552   2.572  1.00  0.00     0.222 HD
ENDBRANCH  40  44
ENDBRANCH  39  40
ENDBRANCH  35  39
BRANCH  36  46
HETATM   46  O12 UNL     1       4.535  13.960   6.247  1.00  0.00    -0.388 OA
HETATM   47  H35 UNL     1       4.879  14.327   5.397  1.00  0.00     0.210 HD
ENDBRANCH  36  46
BRANCH  37  48
HETATM   48  N3  UNL     1       2.335  12.132   7.810  1.00  0.00    -0.297 N 
HETATM   49  C19 UNL     1       2.960  11.755   8.976  1.00  0.00     0.188 A 
HETATM   50  N4  UNL     1       2.733  10.496   9.279  1.00  0.00    -0.346 N 
HETATM   51  C20 UNL     1       1.916  10.034   8.261  1.00  0.00     0.116 A 
HETATM   52  H4  UNL     1       3.081   9.975  10.083  1.00  0.00     0.167 HD
HETATM   53  C21 UNL     1       1.296   8.795   8.026  1.00  0.00     0.109 A 
HETATM   54  C23 UNL     1       1.694  11.027   7.325  1.00  0.00     0.142 A 
HETATM   55  N5  UNL     1       0.546   8.647   6.906  1.00  0.00    -0.341 N 
HETATM   56  C22 UNL     1       0.437   9.697   6.068  1.00  0.00     0.183 A 
HETATM   57  H5  UNL     1       0.078   7.764   6.704  1.00  0.00     0.167 HD
HETATM   58  N6  UNL     1       0.975  10.928   6.192  1.00  0.00    -0.336 N 
HETATM   59  H6  UNL     1       0.853  11.683   5.518  1.00  0.00     0.168 HD
BRANCH  53  60
HETATM   60  N7  UNL     1       1.417   7.708   8.877  1.00  0.00    -0.287 NA
HETATM   61  H33 UNL     1       1.671   7.950   9.832  1.00  0.00     0.125 HD
HETATM   62  H34 UNL     1       1.911   6.932   8.457  1.00  0.00     0.125 HD
ENDBRANCH  53  60
ENDBRANCH  37  48
ENDBRANCH  33  34
ENDBRANCH  32  33
ENDBRANCH  28  32
ENDBRANCH  27  28
ENDBRANCH  23  27
ENDBRANCH  22  23
ENDBRANCH  21  22
ENDBRANCH  18  21
ENDBRANCH  17  18
BRANCH  17  63
HETATM   63  O17 UNL     1      -8.147  14.083  -0.082  1.00  0.00    -0.385 OA
HETATM   64  H38 UNL     1      -8.650  14.454   0.662  1.00  0.00     0.210 HD
ENDBRANCH  17  63
ENDBRANCH  14  17
ENDBRANCH  12  13
ENDBRANCH  11  12
ENDBRANCH   8  11
ENDBRANCH   6   7
ENDBRANCH   5   6
ENDBRANCH   4   5
ENDBRANCH   2   4
TORSDOF 27
ENDMDL
MODEL 17
REMARK VINA RESULT:      -5.8     14.521     17.443
REMARK  27 active torsions:
REMARK  status: ('A' for Active; 'I' for Inactive)
REMARK    1  A    between atoms: C2_2  and  S1_4 
REMARK    2  A    between atoms: S1_4  and  C3_5 
REMARK    3  A    between atoms: C3_5  and  C4_6 
REMARK    4  A    between atoms: C4_6  and  N1_7 
REMARK       I    between atoms: N1_7  and  C5_8 
REMARK    5  A    between atoms: C5_8  and  C6_10 
REMARK    6  A    between atoms: C6_10  and  C7_11 
REMARK    7  A    between atoms: C7_11  and  N2_12 
REMARK       I    between atoms: N2_12  and  C8_13 
REMARK    8  A    between atoms: C8_13  and  C9_15 
REMARK    9  A    between atoms: C9_15  and  C10_16 
REMARK   10  A    between atoms: C9_15  and  O17_54 
REMARK   11  A    between atoms: C10_16  and  C13_19 
REMARK   12  A    between atoms: C13_19  and  O4_20 
REMARK   13  A    between atoms: O4_20  and  P1_21 
REMARK   14  A    between atoms: P1_21  and  O6_23 
REMARK   15  A    between atoms: P1_21  and  O7_24 
REMARK   16  A    between atoms: O7_24  and  P2_25 
REMARK   17  A    between atoms: P2_25  and  O9_27 
REMARK   18  A    between atoms: P2_25  and  O10_28 
REMARK   19  A    between atoms: O10_28  and  C14_29 
REMARK   20  A    between atoms: C14_29  and  C15_30 
REMARK   21  A    between atoms: C16_31  and  O13_49 
REMARK   22  A    between atoms: C17_32  and  O12_48 
REMARK   23  A    between atoms: C18_33  and  N3_35 
REMARK   24  A    between atoms: C21_40  and  N7_47 
REMARK   25  A    between atoms: O13_49  and  P3_50 
REMARK   26  A    between atoms: P3_50  and  O15_52 
REMARK   27  A    between atoms: P3_50  and  O16_53 
ROOT
HETATM    1  C1  UNL     1      -9.829   3.556  -9.495  1.00  0.00     0.104 C 
HETATM    2  C2  UNL     1      -8.360   3.353  -9.710  1.00  0.00     0.182 C 
HETATM    3  O1  UNL     1      -7.546   3.292  -8.791  1.00  0.00    -0.286 OA
ENDROOT
BRANCH   2   4
HETATM    4  S1  UNL     1      -7.881   3.248 -11.399  1.00  0.00    -0.091 SA
BRANCH   4   5
HETATM    5  C3  UNL     1      -6.554   4.496 -11.437  1.00  0.00     0.102 C 
BRANCH   5   6
HETATM    6  C4  UNL     1      -7.015   5.836 -10.861  1.00  0.00     0.133 C 
BRANCH   6   7
HETATM    7  N1  UNL     1      -7.414   6.779 -11.886  1.00  0.00    -0.360 N 
HETATM    8  C5  UNL     1      -6.531   7.692 -12.413  1.00  0.00     0.219 C 
HETATM    9  O2  UNL     1      -5.386   7.819 -11.996  1.00  0.00    -0.274 OA
HETATM   10  H8  UNL     1      -8.367   6.755 -12.225  1.00  0.00     0.162 HD
BRANCH   8  11
HETATM   11  C6  UNL     1      -7.133   8.544 -13.509  1.00  0.00     0.122 C 
BRANCH  11  12
HETATM   12  C7  UNL     1      -6.381   9.863 -13.686  1.00  0.00     0.132 C 
BRANCH  12  13
HETATM   13  N2  UNL     1      -6.057  10.504 -12.429  1.00  0.00    -0.358 N 
HETATM   14  C8  UNL     1      -6.966  11.352 -11.824  1.00  0.00     0.247 C 
HETATM   15  O3  UNL     1      -8.010  11.684 -12.371  1.00  0.00    -0.271 OA
HETATM   16  H13 UNL     1      -5.431   9.981 -11.819  1.00  0.00     0.162 HD
BRANCH  14  17
HETATM   17  C9  UNL     1      -6.571  11.822 -10.416  1.00  0.00     0.219 C 
BRANCH  17  18
HETATM   18  C10 UNL     1      -7.430  11.219  -9.273  1.00  0.00     0.009 C 
HETATM   19  C11 UNL     1      -8.720  12.019  -9.036  1.00  0.00     0.020 C 
HETATM   20  C12 UNL     1      -7.824   9.759  -9.572  1.00  0.00     0.020 C 
BRANCH  18  21
HETATM   21  C13 UNL     1      -6.541  11.273  -7.998  1.00  0.00     0.192 C 
BRANCH  21  22
HETATM   22  O4  UNL     1      -5.971  10.017  -7.686  1.00  0.00    -0.296 OA
BRANCH  22  23
HETATM   23  P1  UNL     1      -4.456   9.848  -7.190  1.00  0.00     0.401 P 
HETATM   24  O5  UNL     1      -3.774   8.624  -7.715  1.00  0.00    -0.631 OA
BRANCH  23  25
HETATM   25  O6  UNL     1      -4.479   9.940  -5.583  1.00  0.00    -0.307 OA
HETATM   26  H23 UNL     1      -5.376   9.882  -5.230  1.00  0.00     0.222 HD
ENDBRANCH  23  25
BRANCH  23  27
HETATM   27  O7  UNL     1      -3.744  11.219  -7.568  1.00  0.00    -0.195 OA
BRANCH  27  28
HETATM   28  P2  UNL     1      -2.507  11.712  -6.693  1.00  0.00     0.401 P 
HETATM   29  O8  UNL     1      -2.808  12.215  -5.319  1.00  0.00    -0.631 OA
BRANCH  28  30
HETATM   30  O9  UNL     1      -1.514  10.462  -6.726  1.00  0.00    -0.307 OA
HETATM   31  H24 UNL     1      -1.818   9.691  -6.187  1.00  0.00     0.222 HD
ENDBRANCH  28  30
BRANCH  28  32
HETATM   32  O10 UNL     1      -1.734  12.726  -7.654  1.00  0.00    -0.294 OA
BRANCH  32  33
HETATM   33  C14 UNL     1      -2.277  13.063  -8.903  1.00  0.00     0.215 C 
BRANCH  33  34
HETATM   34  C15 UNL     1      -1.144  12.913  -9.916  1.00  0.00     0.180 C 
HETATM   35  C16 UNL     1      -0.722  11.452 -10.006  1.00  0.00     0.197 C 
HETATM   36  C17 UNL     1       0.725  11.441  -9.550  1.00  0.00     0.199 C 
HETATM   37  C18 UNL     1       1.174  12.869  -9.868  1.00  0.00     0.262 C 
HETATM   38  O11 UNL     1       0.016  13.681  -9.574  1.00  0.00    -0.353 OA
BRANCH  35  39
HETATM   39  O13 UNL     1      -0.862  11.035 -11.360  1.00  0.00    -0.286 OA
BRANCH  39  40
HETATM   40  P3  UNL     1      -2.196  10.222 -11.696  1.00  0.00     0.391 P 
HETATM   41  O14 UNL     1      -3.188  10.997 -12.502  1.00  0.00    -0.632 OA
BRANCH  40  42
HETATM   42  O15 UNL     1      -2.637   9.751 -10.232  1.00  0.00    -0.307 OA
HETATM   43  H36 UNL     1      -2.580   8.769 -10.150  1.00  0.00     0.222 HD
ENDBRANCH  40  42
BRANCH  40  44
HETATM   44  O16 UNL     1      -1.602   8.894 -12.340  1.00  0.00    -0.307 OA
HETATM   45  H37 UNL     1      -2.286   8.325 -12.726  1.00  0.00     0.222 HD
ENDBRANCH  40  44
ENDBRANCH  39  40
ENDBRANCH  35  39
BRANCH  36  46
HETATM   46  O12 UNL     1       1.436  10.373 -10.182  1.00  0.00    -0.388 OA
HETATM   47  H35 UNL     1       1.064  10.293 -11.093  1.00  0.00     0.210 HD
ENDBRANCH  36  46
BRANCH  37  48
HETATM   48  N3  UNL     1       2.274  13.306  -9.030  1.00  0.00    -0.297 N 
HETATM   49  C19 UNL     1       2.190  13.968  -7.827  1.00  0.00     0.188 A 
HETATM   50  N4  UNL     1       3.365  14.110  -7.254  1.00  0.00    -0.346 N 
HETATM   51  C20 UNL     1       4.254  13.507  -8.127  1.00  0.00     0.116 A 
HETATM   52  H4  UNL     1       3.575  14.564  -6.365  1.00  0.00     0.167 HD
HETATM   53  C21 UNL     1       5.642  13.289  -8.073  1.00  0.00     0.109 A 
HETATM   54  C23 UNL     1       3.596  13.039  -9.250  1.00  0.00     0.142 A 
HETATM   55  N5  UNL     1       6.241  12.661  -9.115  1.00  0.00    -0.341 N 
HETATM   56  C22 UNL     1       5.475  12.281 -10.157  1.00  0.00     0.183 A 
HETATM   57  H5  UNL     1       7.245  12.482  -9.110  1.00  0.00     0.167 HD
HETATM   58  N6  UNL     1       4.143  12.427 -10.315  1.00  0.00    -0.336 N 
HETATM   59  H6  UNL     1       3.620  12.115 -11.133  1.00  0.00     0.168 HD
BRANCH  53  60
HETATM   60  N7  UNL     1       6.437  13.691  -7.011  1.00  0.00    -0.287 NA
HETATM   61  H33 UNL     1       7.245  14.248  -7.280  1.00  0.00     0.125 HD
HETATM   62  H34 UNL     1       6.595  12.955  -6.336  1.00  0.00     0.125 HD
ENDBRANCH  53  60
ENDBRANCH  37  48
ENDBRANCH  33  34
ENDBRANCH  32  33
ENDBRANCH  28  32
ENDBRANCH  27  28
ENDBRANCH  23  27
ENDBRANCH  22  23
ENDBRANCH  21  22
ENDBRANCH  18  21
ENDBRANCH  17  18
BRANCH  17  63
HETATM   63  O17 UNL     1      -5.196  11.515 -10.162  1.00  0.00    -0.385 OA
HETATM   64  H38 UNL     1      -4.708  11.599 -10.998  1.00  0.00     0.210 HD
ENDBRANCH  17  63
ENDBRANCH  14  17
ENDBRANCH  12  13
ENDBRANCH  11  12
ENDBRANCH   8  11
ENDBRANCH   6   7
ENDBRANCH   5   6
ENDBRANCH   4   5
ENDBRANCH   2   4
TORSDOF 27
ENDMDL
MODEL 18
REMARK VINA RESULT:      -5.8      7.017     12.560
REMARK  27 active torsions:
REMARK  status: ('A' for Active; 'I' for Inactive)
REMARK    1  A    between atoms: C2_2  and  S1_4 
REMARK    2  A    between atoms: S1_4  and  C3_5 
REMARK    3  A    between atoms: C3_5  and  C4_6 
REMARK    4  A    between atoms: C4_6  and  N1_7 
REMARK       I    between atoms: N1_7  and  C5_8 
REMARK    5  A    between atoms: C5_8  and  C6_10 
REMARK    6  A    between atoms: C6_10  and  C7_11 
REMARK    7  A    between atoms: C7_11  and  N2_12 
REMARK       I    between atoms: N2_12  and  C8_13 
REMARK    8  A    between atoms: C8_13  and  C9_15 
REMARK    9  A    between atoms: C9_15  and  C10_16 
REMARK   10  A    between atoms: C9_15  and  O17_54 
REMARK   11  A    between atoms: C10_16  and  C13_19 
REMARK   12  A    between atoms: C13_19  and  O4_20 
REMARK   13  A    between atoms: O4_20  and  P1_21 
REMARK   14  A    between atoms: P1_21  and  O6_23 
REMARK   15  A    between atoms: P1_21  and  O7_24 
REMARK   16  A    between atoms: O7_24  and  P2_25 
REMARK   17  A    between atoms: P2_25  and  O9_27 
REMARK   18  A    between atoms: P2_25  and  O10_28 
REMARK   19  A    between atoms: O10_28  and  C14_29 
REMARK   20  A    between atoms: C14_29  and  C15_30 
REMARK   21  A    between atoms: C16_31  and  O13_49 
REMARK   22  A    between atoms: C17_32  and  O12_48 
REMARK   23  A    between atoms: C18_33  and  N3_35 
REMARK   24  A    between atoms: C21_40  and  N7_47 
REMARK   25  A    between atoms: O13_49  and  P3_50 
REMARK   26  A    between atoms: P3_50  and  O15_52 
REMARK   27  A    between atoms: P3_50  and  O16_53 
ROOT
HETATM    1  C1  UNL     1       0.303   8.250   5.431  1.00  0.00     0.104 C 
HETATM    2  C2  UNL     1      -1.104   8.376   5.929  1.00  0.00     0.182 C 
HETATM    3  O1  UNL     1      -1.520   9.361   6.535  1.00  0.00    -0.286 OA
ENDROOT
BRANCH   2   4
HETATM    4  S1  UNL     1      -2.114   6.972   5.610  1.00  0.00    -0.091 SA
BRANCH   4   5
HETATM    5  C3  UNL     1      -3.477   7.756   4.690  1.00  0.00     0.102 C 
BRANCH   5   6
HETATM    6  C4  UNL     1      -3.427   7.417   3.198  1.00  0.00     0.133 C 
BRANCH   6   7
HETATM    7  N1  UNL     1      -4.207   8.331   2.390  1.00  0.00    -0.360 N 
HETATM    8  C5  UNL     1      -4.371   8.143   1.038  1.00  0.00     0.219 C 
HETATM    9  O2  UNL     1      -3.808   7.244   0.424  1.00  0.00    -0.274 OA
HETATM   10  H8  UNL     1      -4.646   9.124   2.839  1.00  0.00     0.162 HD
BRANCH   8  11
HETATM   11  C6  UNL     1      -5.266   9.178   0.392  1.00  0.00     0.122 C 
BRANCH  11  12
HETATM   12  C7  UNL     1      -4.790  10.602   0.678  1.00  0.00     0.132 C 
BRANCH  12  13
HETATM   13  N2  UNL     1      -5.117  11.534  -0.381  1.00  0.00    -0.358 N 
HETATM   14  C8  UNL     1      -5.415  12.851  -0.083  1.00  0.00     0.247 C 
HETATM   15  O3  UNL     1      -5.530  13.248   1.070  1.00  0.00    -0.271 OA
HETATM   16  H13 UNL     1      -4.677  11.348  -1.279  1.00  0.00     0.162 HD
BRANCH  14  17
HETATM   17  C9  UNL     1      -5.568  13.769  -1.305  1.00  0.00     0.219 C 
BRANCH  17  18
HETATM   18  C10 UNL     1      -4.230  14.170  -1.979  1.00  0.00     0.009 C 
HETATM   19  C11 UNL     1      -3.080  14.271  -0.967  1.00  0.00     0.020 C 
HETATM   20  C12 UNL     1      -3.819  13.156  -3.066  1.00  0.00     0.020 C 
BRANCH  18  21
HETATM   21  C13 UNL     1      -4.480  15.562  -2.627  1.00  0.00     0.192 C 
BRANCH  21  22
HETATM   22  O4  UNL     1      -5.586  16.231  -2.056  1.00  0.00    -0.296 OA
BRANCH  22  23
HETATM   23  P1  UNL     1      -5.466  17.668  -1.354  1.00  0.00     0.401 P 
HETATM   24  O5  UNL     1      -5.289  18.804  -2.312  1.00  0.00    -0.631 OA
BRANCH  23  25
HETATM   25  O6  UNL     1      -4.293  17.554  -0.258  1.00  0.00    -0.307 OA
HETATM   26  H23 UNL     1      -4.641  17.525   0.643  1.00  0.00     0.222 HD
ENDBRANCH  23  25
BRANCH  23  27
HETATM   27  O7  UNL     1      -6.751  17.778  -0.422  1.00  0.00    -0.195 OA
BRANCH  27  28
HETATM   28  P2  UNL     1      -8.193  17.795  -1.098  1.00  0.00     0.401 P 
HETATM   29  O8  UNL     1      -9.059  18.979  -0.813  1.00  0.00    -0.631 OA
BRANCH  28  30
HETATM   30  O9  UNL     1      -7.875  17.579  -2.647  1.00  0.00    -0.307 OA
HETATM   31  H24 UNL     1      -7.887  16.633  -2.934  1.00  0.00     0.222 HD
ENDBRANCH  28  30
BRANCH  28  32
HETATM   32  O10 UNL     1      -8.813  16.372  -0.724  1.00  0.00    -0.294 OA
BRANCH  32  33
HETATM   33  C14 UNL     1      -9.822  16.278   0.247  1.00  0.00     0.215 C 
BRANCH  33  34
HETATM   34  C15 UNL     1      -9.346  15.239   1.260  1.00  0.00     0.180 C 
HETATM   35  C16 UNL     1     -10.401  15.051   2.341  1.00  0.00     0.197 C 
HETATM   36  C17 UNL     1      -9.717  15.480   3.625  1.00  0.00     0.199 C 
HETATM   37  C18 UNL     1      -8.240  15.244   3.298  1.00  0.00     0.262 C 
HETATM   38  O11 UNL     1      -8.121  15.607   1.905  1.00  0.00    -0.353 OA
BRANCH  35  39
HETATM   39  O13 UNL     1     -10.770  13.676   2.363  1.00  0.00    -0.286 OA
BRANCH  39  40
HETATM   40  P3  UNL     1     -12.327  13.377   2.155  1.00  0.00     0.391 P 
HETATM   41  O14 UNL     1     -12.983  14.270   1.152  1.00  0.00    -0.632 OA
BRANCH  40  42
HETATM   42  O15 UNL     1     -12.851  13.449   3.665  1.00  0.00    -0.307 OA
HETATM   43  H36 UNL     1     -12.546  14.280   4.100  1.00  0.00     0.222 HD
ENDBRANCH  40  42
BRANCH  40  44
HETATM   44  O16 UNL     1     -12.310  11.816   1.851  1.00  0.00    -0.307 OA
HETATM   45  H37 UNL     1     -11.436  11.417   1.981  1.00  0.00     0.222 HD
ENDBRANCH  40  44
ENDBRANCH  39  40
ENDBRANCH  35  39
BRANCH  36  46
HETATM   46  O12 UNL     1     -10.264  14.770   4.740  1.00  0.00    -0.388 OA
HETATM   47  H35 UNL     1     -10.724  13.981   4.368  1.00  0.00     0.210 HD
ENDBRANCH  36  46
BRANCH  37  48
HETATM   48  N3  UNL     1      -7.356  16.088   4.077  1.00  0.00    -0.297 N 
HETATM   49  C19 UNL     1      -7.086  17.421   3.873  1.00  0.00     0.188 A 
HETATM   50  N4  UNL     1      -6.340  17.931   4.829  1.00  0.00    -0.346 N 
HETATM   51  C20 UNL     1      -6.120  16.878   5.699  1.00  0.00     0.116 A 
HETATM   52  H4  UNL     1      -6.000  18.889   4.911  1.00  0.00     0.167 HD
HETATM   53  C21 UNL     1      -5.440  16.781   6.925  1.00  0.00     0.109 A 
HETATM   54  C23 UNL     1      -6.711  15.720   5.225  1.00  0.00     0.142 A 
HETATM   55  N5  UNL     1      -5.391  15.578   7.547  1.00  0.00    -0.341 N 
HETATM   56  C22 UNL     1      -5.994  14.528   6.954  1.00  0.00     0.183 A 
HETATM   57  H5  UNL     1      -4.910  15.470   8.440  1.00  0.00     0.167 HD
HETATM   58  N6  UNL     1      -6.679  14.502   5.792  1.00  0.00    -0.336 N 
HETATM   59  H6  UNL     1      -7.114  13.668   5.396  1.00  0.00     0.168 HD
BRANCH  53  60
HETATM   60  N7  UNL     1      -4.806  17.854   7.532  1.00  0.00    -0.287 NA
HETATM   61  H33 UNL     1      -5.367  18.702   7.576  1.00  0.00     0.125 HD
HETATM   62  H34 UNL     1      -3.844  17.959   7.240  1.00  0.00     0.125 HD
ENDBRANCH  53  60
ENDBRANCH  37  48
ENDBRANCH  33  34
ENDBRANCH  32  33
ENDBRANCH  28  32
ENDBRANCH  27  28
ENDBRANCH  23  27
ENDBRANCH  22  23
ENDBRANCH  21  22
ENDBRANCH  18  21
ENDBRANCH  17  18
BRANCH  17  63
HETATM   63  O17 UNL     1      -6.404  13.146  -2.287  1.00  0.00    -0.385 OA
HETATM   64  H38 UNL     1      -6.014  12.285  -2.512  1.00  0.00     0.210 HD
ENDBRANCH  17  63
ENDBRANCH  14  17
ENDBRANCH  12  13
ENDBRANCH  11  12
ENDBRANCH   8  11
ENDBRANCH   6   7
ENDBRANCH   5   6
ENDBRANCH   4   5
ENDBRANCH   2   4
TORSDOF 27
ENDMDL
MODEL 19
REMARK VINA RESULT:      -5.7      5.599     11.193
REMARK  27 active torsions:
REMARK  status: ('A' for Active; 'I' for Inactive)
REMARK    1  A    between atoms: C2_2  and  S1_4 
REMARK    2  A    between atoms: S1_4  and  C3_5 
REMARK    3  A    between atoms: C3_5  and  C4_6 
REMARK    4  A    between atoms: C4_6  and  N1_7 
REMARK       I    between atoms: N1_7  and  C5_8 
REMARK    5  A    between atoms: C5_8  and  C6_10 
REMARK    6  A    between atoms: C6_10  and  C7_11 
REMARK    7  A    between atoms: C7_11  and  N2_12 
REMARK       I    between atoms: N2_12  and  C8_13 
REMARK    8  A    between atoms: C8_13  and  C9_15 
REMARK    9  A    between atoms: C9_15  and  C10_16 
REMARK   10  A    between atoms: C9_15  and  O17_54 
REMARK   11  A    between atoms: C10_16  and  C13_19 
REMARK   12  A    between atoms: C13_19  and  O4_20 
REMARK   13  A    between atoms: O4_20  and  P1_21 
REMARK   14  A    between atoms: P1_21  and  O6_23 
REMARK   15  A    between atoms: P1_21  and  O7_24 
REMARK   16  A    between atoms: O7_24  and  P2_25 
REMARK   17  A    between atoms: P2_25  and  O9_27 
REMARK   18  A    between atoms: P2_25  and  O10_28 
REMARK   19  A    between atoms: O10_28  and  C14_29 
REMARK   20  A    between atoms: C14_29  and  C15_30 
REMARK   21  A    between atoms: C16_31  and  O13_49 
REMARK   22  A    between atoms: C17_32  and  O12_48 
REMARK   23  A    between atoms: C18_33  and  N3_35 
REMARK   24  A    between atoms: C21_40  and  N7_47 
REMARK   25  A    between atoms: O13_49  and  P3_50 
REMARK   26  A    between atoms: P3_50  and  O15_52 
REMARK   27  A    between atoms: P3_50  and  O16_53 
ROOT
HETATM    1  C1  UNL     1      -2.466   6.635   4.815  1.00  0.00     0.104 C 
HETATM    2  C2  UNL     1      -1.425   7.698   4.636  1.00  0.00     0.182 C 
HETATM    3  O1  UNL     1      -0.805   7.865   3.588  1.00  0.00    -0.286 OA
ENDROOT
BRANCH   2   4
HETATM    4  S1  UNL     1      -1.127   8.671   6.070  1.00  0.00    -0.091 SA
BRANCH   4   5
HETATM    5  C3  UNL     1       0.691   8.579   6.152  1.00  0.00     0.102 C 
BRANCH   5   6
HETATM    6  C4  UNL     1       1.334   9.966   6.099  1.00  0.00     0.133 C 
BRANCH   6   7
HETATM    7  N1  UNL     1       1.831  10.402   7.388  1.00  0.00    -0.360 N 
HETATM    8  C5  UNL     1       3.158  10.705   7.587  1.00  0.00     0.219 C 
HETATM    9  O2  UNL     1       4.008  10.550   6.718  1.00  0.00    -0.274 OA
HETATM   10  H8  UNL     1       1.180  10.490   8.156  1.00  0.00     0.162 HD
BRANCH   8  11
HETATM   11  C6  UNL     1       3.457  11.193   8.988  1.00  0.00     0.122 C 
BRANCH  11  12
HETATM   12  C7  UNL     1       2.897  12.593   9.237  1.00  0.00     0.132 C 
BRANCH  12  13
HETATM   13  N2  UNL     1       3.320  13.559   8.245  1.00  0.00    -0.358 N 
HETATM   14  C8  UNL     1       2.422  14.036   7.309  1.00  0.00     0.247 C 
HETATM   15  O3  UNL     1       1.288  13.584   7.204  1.00  0.00    -0.271 OA
HETATM   16  H13 UNL     1       4.067  14.187   8.536  1.00  0.00     0.162 HD
BRANCH  14  17
HETATM   17  C9  UNL     1       2.951  15.181   6.433  1.00  0.00     0.219 C 
BRANCH  17  18
HETATM   18  C10 UNL     1       3.216  14.791   4.955  1.00  0.00     0.009 C 
HETATM   19  C11 UNL     1       4.257  15.706   4.293  1.00  0.00     0.020 C 
HETATM   20  C12 UNL     1       3.717  13.338   4.835  1.00  0.00     0.020 C 
BRANCH  18  21
HETATM   21  C13 UNL     1       1.851  14.938   4.224  1.00  0.00     0.192 C 
BRANCH  21  22
HETATM   22  O4  UNL     1       1.937  15.770   3.084  1.00  0.00    -0.296 OA
BRANCH  22  23
HETATM   23  P1  UNL     1       1.058  17.099   2.908  1.00  0.00     0.401 P 
HETATM   24  O5  UNL     1       1.838  18.293   2.456  1.00  0.00    -0.631 OA
BRANCH  23  25
HETATM   25  O6  UNL     1       0.271  17.323   4.294  1.00  0.00    -0.307 OA
HETATM   26  H23 UNL     1       0.572  16.717   4.983  1.00  0.00     0.222 HD
ENDBRANCH  23  25
BRANCH  23  27
HETATM   27  O7  UNL     1      -0.133  16.678   1.941  1.00  0.00    -0.195 OA
BRANCH  27  28
HETATM   28  P2  UNL     1      -1.570  16.395   2.567  1.00  0.00     0.401 P 
HETATM   29  O8  UNL     1      -1.627  15.470   3.739  1.00  0.00    -0.631 OA
BRANCH  28  30
HETATM   30  O9  UNL     1      -2.135  17.858   2.865  1.00  0.00    -0.307 OA
HETATM   31  H24 UNL     1      -2.770  18.192   2.184  1.00  0.00     0.222 HD
ENDBRANCH  28  30
BRANCH  28  32
HETATM   32  O10 UNL     1      -2.465  15.985   1.310  1.00  0.00    -0.294 OA
BRANCH  32  33
HETATM   33  C14 UNL     1      -3.800  16.412   1.228  1.00  0.00     0.215 C 
BRANCH  33  34
HETATM   34  C15 UNL     1      -4.660  15.170   1.449  1.00  0.00     0.180 C 
HETATM   35  C16 UNL     1      -5.273  14.726   0.127  1.00  0.00     0.197 C 
HETATM   36  C17 UNL     1      -6.771  14.850   0.337  1.00  0.00     0.199 C 
HETATM   37  C18 UNL     1      -6.896  14.710   1.856  1.00  0.00     0.262 C 
HETATM   38  O11 UNL     1      -5.731  15.388   2.374  1.00  0.00    -0.353 OA
BRANCH  35  39
HETATM   39  O13 UNL     1      -4.875  13.380  -0.114  1.00  0.00    -0.286 OA
BRANCH  39  40
HETATM   40  P3  UNL     1      -4.339  13.075  -1.589  1.00  0.00     0.391 P 
HETATM   41  O14 UNL     1      -2.999  12.413  -1.619  1.00  0.00    -0.632 OA
BRANCH  40  42
HETATM   42  O15 UNL     1      -4.466  14.521  -2.260  1.00  0.00    -0.307 OA
HETATM   43  H36 UNL     1      -3.577  14.934  -2.369  1.00  0.00     0.222 HD
ENDBRANCH  40  42
BRANCH  40  44
HETATM   44  O16 UNL     1      -5.567  12.279  -2.212  1.00  0.00    -0.307 OA
HETATM   45  H37 UNL     1      -5.837  12.620  -3.079  1.00  0.00     0.222 HD
ENDBRANCH  40  44
ENDBRANCH  39  40
ENDBRANCH  35  39
BRANCH  36  46
HETATM   46  O12 UNL     1      -7.465  13.895  -0.470  1.00  0.00    -0.388 OA
HETATM   47  H35 UNL     1      -7.381  14.206  -1.403  1.00  0.00     0.210 HD
ENDBRANCH  36  46
BRANCH  37  48
HETATM   48  N3  UNL     1      -8.083  15.356   2.378  1.00  0.00    -0.297 N 
HETATM   49  C19 UNL     1      -8.141  16.511   3.124  1.00  0.00     0.188 A 
HETATM   50  N4  UNL     1      -9.377  16.906   3.335  1.00  0.00    -0.346 N 
HETATM   51  C20 UNL     1     -10.160  15.964   2.691  1.00  0.00     0.116 A 
HETATM   52  H4  UNL     1      -9.690  17.725   3.857  1.00  0.00     0.167 HD
HETATM   53  C21 UNL     1     -11.549  15.842   2.510  1.00  0.00     0.109 A 
HETATM   54  C23 UNL     1      -9.372  14.977   2.128  1.00  0.00     0.142 A 
HETATM   55  N5  UNL     1     -12.022  14.774   1.823  1.00  0.00    -0.341 N 
HETATM   56  C22 UNL     1     -11.135  13.876   1.350  1.00  0.00     0.183 A 
HETATM   57  H5  UNL     1     -13.023  14.653   1.668  1.00  0.00     0.167 HD
HETATM   58  N6  UNL     1      -9.791  13.892   1.453  1.00  0.00    -0.336 N 
HETATM   59  H6  UNL     1      -9.173  13.176   1.070  1.00  0.00     0.168 HD
BRANCH  53  60
HETATM   60  N7  UNL     1     -12.465  16.755   3.007  1.00  0.00    -0.287 NA
HETATM   61  H33 UNL     1     -12.500  17.634   2.496  1.00  0.00     0.125 HD
HETATM   62  H34 UNL     1     -12.455  16.815   4.017  1.00  0.00     0.125 HD
ENDBRANCH  53  60
ENDBRANCH  37  48
ENDBRANCH  33  34
ENDBRANCH  32  33
ENDBRANCH  28  32
ENDBRANCH  27  28
ENDBRANCH  23  27
ENDBRANCH  22  23
ENDBRANCH  21  22
ENDBRANCH  18  21
ENDBRANCH  17  18
BRANCH  17  63
HETATM   63  O17 UNL     1       2.036  16.282   6.455  1.00  0.00    -0.385 OA
HETATM   64  H38 UNL     1       1.540  16.280   5.619  1.00  0.00     0.210 HD
ENDBRANCH  17  63
ENDBRANCH  14  17
ENDBRANCH  12  13
ENDBRANCH  11  12
ENDBRANCH   8  11
ENDBRANCH   6   7
ENDBRANCH   5   6
ENDBRANCH   4   5
ENDBRANCH   2   4
TORSDOF 27
ENDMDL
MODEL 20
REMARK VINA RESULT:      -5.7      8.824     15.433
REMARK  27 active torsions:
REMARK  status: ('A' for Active; 'I' for Inactive)
REMARK    1  A    between atoms: C2_2  and  S1_4 
REMARK    2  A    between atoms: S1_4  and  C3_5 
REMARK    3  A    between atoms: C3_5  and  C4_6 
REMARK    4  A    between atoms: C4_6  and  N1_7 
REMARK       I    between atoms: N1_7  and  C5_8 
REMARK    5  A    between atoms: C5_8  and  C6_10 
REMARK    6  A    between atoms: C6_10  and  C7_11 
REMARK    7  A    between atoms: C7_11  and  N2_12 
REMARK       I    between atoms: N2_12  and  C8_13 
REMARK    8  A    between atoms: C8_13  and  C9_15 
REMARK    9  A    between atoms: C9_15  and  C10_16 
REMARK   10  A    between atoms: C9_15  and  O17_54 
REMARK   11  A    between atoms: C10_16  and  C13_19 
REMARK   12  A    between atoms: C13_19  and  O4_20 
REMARK   13  A    between atoms: O4_20  and  P1_21 
REMARK   14  A    between atoms: P1_21  and  O6_23 
REMARK   15  A    between atoms: P1_21  and  O7_24 
REMARK   16  A    between atoms: O7_24  and  P2_25 
REMARK   17  A    between atoms: P2_25  and  O9_27 
REMARK   18  A    between atoms: P2_25  and  O10_28 
REMARK   19  A    between atoms: O10_28  and  C14_29 
REMARK   20  A    between atoms: C14_29  and  C15_30 
REMARK   21  A    between atoms: C16_31  and  O13_49 
REMARK   22  A    between atoms: C17_32  and  O12_48 
REMARK   23  A    between atoms: C18_33  and  N3_35 
REMARK   24  A    between atoms: C21_40  and  N7_47 
REMARK   25  A    between atoms: O13_49  and  P3_50 
REMARK   26  A    between atoms: P3_50  and  O15_52 
REMARK   27  A    between atoms: P3_50  and  O16_53 
ROOT
HETATM    1  C1  UNL     1       2.416  19.472   1.169  1.00  0.00     0.104 C 
HETATM    2  C2  UNL     1       3.590  18.623   1.552  1.00  0.00     0.182 C 
HETATM    3  O1  UNL     1       4.416  18.210   0.742  1.00  0.00    -0.286 OA
ENDROOT
BRANCH   2   4
HETATM    4  S1  UNL     1       3.671  18.228   3.263  1.00  0.00    -0.091 SA
BRANCH   4   5
HETATM    5  C3  UNL     1       2.105  18.959   3.839  1.00  0.00     0.102 C 
BRANCH   5   6
HETATM    6  C4  UNL     1       1.103  17.889   4.276  1.00  0.00     0.133 C 
BRANCH   6   7
HETATM    7  N1  UNL     1       0.031  17.703   3.320  1.00  0.00    -0.360 N 
HETATM    8  C5  UNL     1       0.071  16.706   2.373  1.00  0.00     0.219 C 
HETATM    9  O2  UNL     1       1.041  15.972   2.228  1.00  0.00    -0.274 OA
HETATM   10  H8  UNL     1      -0.769  18.320   3.360  1.00  0.00     0.162 HD
BRANCH   8  11
HETATM   11  C6  UNL     1      -1.172  16.649   1.510  1.00  0.00     0.122 C 
BRANCH  11  12
HETATM   12  C7  UNL     1      -1.589  15.211   1.204  1.00  0.00     0.132 C 
BRANCH  12  13
HETATM   13  N2  UNL     1      -3.008  15.072   0.958  1.00  0.00    -0.358 N 
HETATM   14  C8  UNL     1      -3.465  14.200  -0.014  1.00  0.00     0.247 C 
HETATM   15  O3  UNL     1      -2.704  13.612  -0.771  1.00  0.00    -0.271 OA
HETATM   16  H13 UNL     1      -3.610  15.227   1.764  1.00  0.00     0.162 HD
BRANCH  14  17
HETATM   17  C9  UNL     1      -4.990  14.017  -0.050  1.00  0.00     0.219 C 
BRANCH  17  18
HETATM   18  C10 UNL     1      -5.668  14.532  -1.347  1.00  0.00     0.009 C 
HETATM   19  C11 UNL     1      -7.099  15.028  -1.093  1.00  0.00     0.020 C 
HETATM   20  C12 UNL     1      -4.869  15.689  -1.981  1.00  0.00     0.020 C 
BRANCH  18  21
HETATM   21  C13 UNL     1      -5.700  13.321  -2.322  1.00  0.00     0.192 C 
BRANCH  21  22
HETATM   22  O4  UNL     1      -4.661  13.372  -3.279  1.00  0.00    -0.296 OA
BRANCH  22  23
HETATM   23  P1  UNL     1      -4.853  12.897  -4.798  1.00  0.00     0.401 P 
HETATM   24  O5  UNL     1      -4.991  14.020  -5.778  1.00  0.00    -0.631 OA
BRANCH  23  25
HETATM   25  O6  UNL     1      -6.091  11.868  -4.812  1.00  0.00    -0.307 OA
HETATM   26  H23 UNL     1      -6.584  11.906  -5.642  1.00  0.00     0.222 HD
ENDBRANCH  23  25
BRANCH  23  27
HETATM   27  O7  UNL     1      -3.633  11.915  -5.079  1.00  0.00    -0.195 OA
BRANCH  27  28
HETATM   28  P2  UNL     1      -3.823  10.730  -6.127  1.00  0.00     0.401 P 
HETATM   29  O8  UNL     1      -4.476   9.483  -5.626  1.00  0.00    -0.631 OA
BRANCH  28  30
HETATM   30  O9  UNL     1      -4.597  11.430  -7.335  1.00  0.00    -0.307 OA
HETATM   31  H24 UNL     1      -4.930  12.338  -7.130  1.00  0.00     0.222 HD
ENDBRANCH  28  30
BRANCH  28  32
HETATM   32  O10 UNL     1      -2.374  10.549  -6.772  1.00  0.00    -0.294 OA
BRANCH  32  33
HETATM   33  C14 UNL     1      -1.467  11.620  -6.775  1.00  0.00     0.215 C 
BRANCH  33  34
HETATM   34  C15 UNL     1      -1.054  11.825  -8.232  1.00  0.00     0.180 C 
HETATM   35  C16 UNL     1      -1.395  10.582  -9.044  1.00  0.00     0.197 C 
HETATM   36  C17 UNL     1      -0.058  10.073  -9.547  1.00  0.00     0.199 C 
HETATM   37  C18 UNL     1       0.792  11.347  -9.551  1.00  0.00     0.262 C 
HETATM   38  O11 UNL     1       0.347  12.076  -8.386  1.00  0.00    -0.353 OA
BRANCH  35  39
HETATM   39  O13 UNL     1      -2.256  10.973 -10.109  1.00  0.00    -0.286 OA
BRANCH  39  40
HETATM   40  P3  UNL     1      -3.566  10.078 -10.300  1.00  0.00     0.391 P 
HETATM   41  O14 UNL     1      -4.816  10.873 -10.497  1.00  0.00    -0.632 OA
BRANCH  40  42
HETATM   42  O15 UNL     1      -3.479   9.140  -9.007  1.00  0.00    -0.307 OA
HETATM   43  H36 UNL     1      -3.335   8.200  -9.267  1.00  0.00     0.222 HD
ENDBRANCH  40  42
BRANCH  40  44
HETATM   44  O16 UNL     1      -3.116   9.109 -11.479  1.00  0.00    -0.307 OA
HETATM   45  H37 UNL     1      -3.525   8.231 -11.422  1.00  0.00     0.222 HD
ENDBRANCH  40  44
ENDBRANCH  39  40
ENDBRANCH  35  39
BRANCH  36  46
HETATM   46  O12 UNL     1      -0.224   9.391 -10.793  1.00  0.00    -0.388 OA
HETATM   47  H35 UNL     1       0.672   9.069 -11.055  1.00  0.00     0.210 HD
ENDBRANCH  36  46
BRANCH  37  48
HETATM   48  N3  UNL     1       2.208  11.072  -9.417  1.00  0.00    -0.297 N 
HETATM   49  C19 UNL     1       2.815   9.838  -9.382  1.00  0.00     0.188 A 
HETATM   50  N4  UNL     1       4.127   9.928  -9.381  1.00  0.00    -0.346 N 
HETATM   51  C20 UNL     1       4.384  11.287  -9.422  1.00  0.00     0.116 A 
HETATM   52  H4  UNL     1       4.805   9.167  -9.355  1.00  0.00     0.167 HD
HETATM   53  C21 UNL     1       5.575  12.031  -9.483  1.00  0.00     0.109 A 
HETATM   54  C23 UNL     1       3.204  12.008  -9.405  1.00  0.00     0.142 A 
HETATM   55  N5  UNL     1       5.496  13.384  -9.501  1.00  0.00    -0.341 N 
HETATM   56  C22 UNL     1       4.274  13.952  -9.456  1.00  0.00     0.183 A 
HETATM   57  H5  UNL     1       6.338  13.957  -9.549  1.00  0.00     0.167 HD
HETATM   58  N6  UNL     1       3.070  13.346  -9.406  1.00  0.00    -0.336 N 
HETATM   59  H6  UNL     1       2.176  13.838  -9.373  1.00  0.00     0.168 HD
BRANCH  53  60
HETATM   60  N7  UNL     1       6.834  11.452  -9.514  1.00  0.00    -0.287 NA
HETATM   61  H33 UNL     1       6.992  10.753  -8.792  1.00  0.00     0.125 HD
HETATM   62  H34 UNL     1       7.574  12.125  -9.667  1.00  0.00     0.125 HD
ENDBRANCH  53  60
ENDBRANCH  37  48
ENDBRANCH  33  34
ENDBRANCH  32  33
ENDBRANCH  28  32
ENDBRANCH  27  28
ENDBRANCH  23  27
ENDBRANCH  22  23
ENDBRANCH  21  22
ENDBRANCH  18  21
ENDBRANCH  17  18
BRANCH  17  63
HETATM   63  O17 UNL     1      -5.325  12.636   0.120  1.00  0.00    -0.385 OA
HETATM   64  H38 UNL     1      -4.535  12.172   0.445  1.00  0.00     0.210 HD
ENDBRANCH  17  63
ENDBRANCH  14  17
ENDBRANCH  12  13
ENDBRANCH  11  12
ENDBRANCH   8  11
ENDBRANCH   6   7
ENDBRANCH   5   6
ENDBRANCH   4   5
ENDBRANCH   2   4
TORSDOF 27
ENDMDL
