MODEL 1
REMARK VINA RESULT:      -4.0      0.000      0.000
REMARK  2 active torsions:
REMARK  status: ('A' for Active; 'I' for Inactive)
REMARK    1  A    between atoms: C3_3  and  O1_10 
REMARK    2  A    between atoms: C6_6  and  N1_7 
ROOT
HETATM    1  C1  PAP L   1       9.029   8.518  -3.681  1.00  0.00     0.026 A 
HETATM    2  C2  PAP L   1       8.716   9.477  -2.714  1.00  0.00     0.038 A 
HETATM    3  C3  PAP L   1       7.481   9.438  -2.083  1.00  0.00     0.065 A 
HETATM    4  C4  PAP L   1       6.557   8.446  -2.392  1.00  0.00     0.038 A 
HETATM    5  C5  PAP L   1       6.877   7.490  -3.361  1.00  0.00     0.026 A 
HETATM    6  C6  PAP L   1       8.093   7.547  -4.050  1.00  0.00     0.005 A 
ENDROOT
BRANCH   6   7
HETATM    7  N1  PAP L   1       8.452   6.520  -4.930  1.00  0.00    -0.303 NA
HETATM    8  H5  PAP L   1       8.548   5.614  -4.483  1.00  0.00     0.124 HD
HETATM    9  H6  PAP L   1       9.247   6.744  -5.521  1.00  0.00     0.124 HD
ENDBRANCH   6   7
BRANCH   3  10
HETATM   10  O1  PAP L   1       7.214  10.389  -1.144  1.00  0.00    -0.361 OA
HETATM   11  H7  PAP L   1       7.716  11.191  -1.363  1.00  0.00     0.217 HD
ENDBRANCH   3  10
TORSDOF 2
ENDMDL
MODEL 2
REMARK VINA RESULT:      -3.7      2.777      3.262
REMARK  2 active torsions:
REMARK  status: ('A' for Active; 'I' for Inactive)
REMARK    1  A    between atoms: C3_3  and  O1_10 
REMARK    2  A    between atoms: C6_6  and  N1_7 
ROOT
HETATM    1  C1  PAP L   1       8.736   9.419  -2.702  1.00  0.00     0.026 A 
HETATM    2  C2  PAP L   1       9.053   8.506  -3.712  1.00  0.00     0.038 A 
HETATM    3  C3  PAP L   1       8.139   7.520  -4.059  1.00  0.00     0.065 A 
HETATM    4  C4  PAP L   1       6.905   7.443  -3.423  1.00  0.00     0.038 A 
HETATM    5  C5  PAP L   1       6.596   8.359  -2.413  1.00  0.00     0.026 A 
HETATM    6  C6  PAP L   1       7.526   9.322  -2.009  1.00  0.00     0.005 A 
ENDROOT
BRANCH   6   7
HETATM    7  N1  PAP L   1       7.163  10.308  -1.083  1.00  0.00    -0.303 NA
HETATM    8  H5  PAP L   1       7.040   9.956  -0.140  1.00  0.00     0.124 HD
HETATM    9  H6  PAP L   1       6.386  10.886  -1.384  1.00  0.00     0.124 HD
ENDBRANCH   6   7
BRANCH   3  10
HETATM   10  O1  PAP L   1       8.483   6.651  -5.049  1.00  0.00    -0.361 OA
HETATM   11  H7  PAP L   1       8.217   5.756  -4.783  1.00  0.00     0.217 HD
ENDBRANCH   3  10
TORSDOF 2
ENDMDL
MODEL 3
REMARK VINA RESULT:      -2.5      2.491      3.158
REMARK  2 active torsions:
REMARK  status: ('A' for Active; 'I' for Inactive)
REMARK    1  A    between atoms: C3_3  and  O1_10 
REMARK    2  A    between atoms: C6_6  and  N1_7 
ROOT
HETATM    1  C1  PAP L   1       7.520   7.783  -2.354  1.00  0.00     0.026 A 
HETATM    2  C2  PAP L   1       8.334   8.330  -3.349  1.00  0.00     0.038 A 
HETATM    3  C3  PAP L   1       8.640   9.683  -3.320  1.00  0.00     0.065 A 
HETATM    4  C4  PAP L   1       8.159  10.497  -2.300  1.00  0.00     0.038 A 
HETATM    5  C5  PAP L   1       7.344   9.943  -1.307  1.00  0.00     0.026 A 
HETATM    6  C6  PAP L   1       6.976   8.594  -1.353  1.00  0.00     0.005 A 
ENDROOT
BRANCH   6   7
HETATM    7  N1  PAP L   1       6.262   8.023  -0.293  1.00  0.00    -0.303 NA
HETATM    8  H5  PAP L   1       6.484   8.424   0.611  1.00  0.00     0.124 HD
HETATM    9  H6  PAP L   1       6.286   7.008  -0.282  1.00  0.00     0.124 HD
ENDBRANCH   6   7
BRANCH   3  10
HETATM   10  O1  PAP L   1       9.438  10.179  -4.306  1.00  0.00    -0.361 OA
HETATM   11  H7  PAP L   1       9.147  11.080  -4.518  1.00  0.00     0.217 HD
ENDBRANCH   3  10
TORSDOF 2
ENDMDL
MODEL 4
REMARK VINA RESULT:      -2.3      2.488      3.022
REMARK  2 active torsions:
REMARK  status: ('A' for Active; 'I' for Inactive)
REMARK    1  A    between atoms: C3_3  and  O1_10 
REMARK    2  A    between atoms: C6_6  and  N1_7 
ROOT
HETATM    1  C1  PAP L   1       7.333   9.817  -1.204  1.00  0.00     0.026 A 
HETATM    2  C2  PAP L   1       8.149  10.364  -2.198  1.00  0.00     0.038 A 
HETATM    3  C3  PAP L   1       8.606   9.559  -3.232  1.00  0.00     0.065 A 
HETATM    4  C4  PAP L   1       8.246   8.217  -3.298  1.00  0.00     0.038 A 
HETATM    5  C5  PAP L   1       7.430   7.677  -2.299  1.00  0.00     0.026 A 
HETATM    6  C6  PAP L   1       7.008   8.457  -1.218  1.00  0.00     0.005 A 
ENDROOT
BRANCH   6   7
HETATM    7  N1  PAP L   1       6.096   7.941  -0.290  1.00  0.00    -0.303 NA
HETATM    8  H5  PAP L   1       5.355   8.588  -0.043  1.00  0.00     0.124 HD
HETATM    9  H6  PAP L   1       6.532   7.524   0.526  1.00  0.00     0.124 HD
ENDBRANCH   6   7
BRANCH   3  10
HETATM   10  O1  PAP L   1       9.397  10.130  -4.183  1.00  0.00    -0.361 OA
HETATM   11  H7  PAP L   1       8.901  10.171  -5.016  1.00  0.00     0.217 HD
ENDBRANCH   3  10
TORSDOF 2
ENDMDL
MODEL 5
REMARK VINA RESULT:      -2.3      1.920      2.552
REMARK  2 active torsions:
REMARK  status: ('A' for Active; 'I' for Inactive)
REMARK    1  A    between atoms: C3_3  and  O1_10 
REMARK    2  A    between atoms: C6_6  and  N1_7 
ROOT
HETATM    1  C1  PAP L   1       8.191   8.296  -3.246  1.00  0.00     0.026 A 
HETATM    2  C2  PAP L   1       7.376   7.723  -2.265  1.00  0.00     0.038 A 
HETATM    3  C3  PAP L   1       6.917   8.501  -1.212  1.00  0.00     0.065 A 
HETATM    4  C4  PAP L   1       7.246   9.849  -1.131  1.00  0.00     0.038 A 
HETATM    5  C5  PAP L   1       8.062  10.416  -2.115  1.00  0.00     0.026 A 
HETATM    6  C6  PAP L   1       8.583   9.635  -3.152  1.00  0.00     0.005 A 
ENDROOT
BRANCH   6   7
HETATM    7  N1  PAP L   1       9.298  10.235  -4.194  1.00  0.00    -0.303 NA
HETATM    8  H5  PAP L   1       9.868   9.584  -4.725  1.00  0.00     0.124 HD
HETATM    9  H6  PAP L   1       9.816  11.062  -3.915  1.00  0.00     0.124 HD
ENDBRANCH   6   7
BRANCH   3  10
HETATM   10  O1  PAP L   1       6.124   7.906  -0.278  1.00  0.00    -0.361 OA
HETATM   11  H7  PAP L   1       5.817   7.054  -0.628  1.00  0.00     0.217 HD
ENDBRANCH   3  10
TORSDOF 2
ENDMDL
MODEL 6
REMARK VINA RESULT:      -2.2      1.925      2.397
REMARK  2 active torsions:
REMARK  status: ('A' for Active; 'I' for Inactive)
REMARK    1  A    between atoms: C3_3  and  O1_10 
REMARK    2  A    between atoms: C6_6  and  N1_7 
ROOT
HETATM    1  C1  PAP L   1       8.052  10.277  -1.991  1.00  0.00     0.026 A 
HETATM    2  C2  PAP L   1       7.205   9.701  -1.040  1.00  0.00     0.038 A 
HETATM    3  C3  PAP L   1       6.806   8.380  -1.186  1.00  0.00     0.065 A 
HETATM    4  C4  PAP L   1       7.254   7.618  -2.260  1.00  0.00     0.038 A 
HETATM    5  C5  PAP L   1       8.101   8.202  -3.207  1.00  0.00     0.026 A 
HETATM    6  C6  PAP L   1       8.467   9.549  -3.110  1.00  0.00     0.005 A 
ENDROOT
BRANCH   6   7
HETATM    7  N1  PAP L   1       9.407  10.089  -3.994  1.00  0.00    -0.303 NA
HETATM    8  H5  PAP L   1       9.479   9.585  -4.872  1.00  0.00     0.124 HD
HETATM    9  H6  PAP L   1      10.315  10.261  -3.573  1.00  0.00     0.124 HD
ENDBRANCH   6   7
BRANCH   3  10
HETATM   10  O1  PAP L   1       5.982   7.854  -0.237  1.00  0.00    -0.361 OA
HETATM   11  H7  PAP L   1       5.250   8.473  -0.084  1.00  0.00     0.217 HD
ENDBRANCH   3  10
TORSDOF 2
ENDMDL
MODEL 7
REMARK VINA RESULT:      -1.1      1.672      2.394
REMARK  2 active torsions:
REMARK  status: ('A' for Active; 'I' for Inactive)
REMARK    1  A    between atoms: C3_3  and  O1_10 
REMARK    2  A    between atoms: C6_6  and  N1_7 
ROOT
HETATM    1  C1  PAP L   1       8.760   7.938  -3.659  1.00  0.00     0.026 A 
HETATM    2  C2  PAP L   1       7.441   7.870  -3.204  1.00  0.00     0.038 A 
HETATM    3  C3  PAP L   1       6.958   8.850  -2.348  1.00  0.00     0.065 A 
HETATM    4  C4  PAP L   1       7.768   9.908  -1.953  1.00  0.00     0.038 A 
HETATM    5  C5  PAP L   1       9.088   9.969  -2.412  1.00  0.00     0.026 A 
HETATM    6  C6  PAP L   1       9.611   8.960  -3.227  1.00  0.00     0.005 A 
ENDROOT
BRANCH   6   7
HETATM    7  N1  PAP L   1      10.891   9.091  -3.777  1.00  0.00    -0.303 NA
HETATM    8  H5  PAP L   1      11.412   8.221  -3.811  1.00  0.00     0.124 HD
HETATM    9  H6  PAP L   1      11.434   9.850  -3.377  1.00  0.00     0.124 HD
ENDBRANCH   6   7
BRANCH   3  10
HETATM   10  O1  PAP L   1       5.666   8.750  -1.928  1.00  0.00    -0.361 OA
HETATM   11  H7  PAP L   1       5.642   8.206  -1.124  1.00  0.00     0.217 HD
ENDBRANCH   3  10
TORSDOF 2
ENDMDL
