MODEL 1
REMARK VINA RESULT:      -5.4      0.000      0.000
REMARK  2 active torsions:
REMARK  status: ('A' for Active; 'I' for Inactive)
REMARK    1  A    between atoms: C3_3  and  O1_10 
REMARK    2  A    between atoms: C6_6  and  N1_7 
ROOT
HETATM    1  C1  PAP L   1       8.003   8.288  -3.192  1.00  0.00     0.026 A 
HETATM    2  C2  PAP L   1       7.522   8.569  -1.911  1.00  0.00     0.038 A 
HETATM    3  C3  PAP L   1       6.754   7.626  -1.243  1.00  0.00     0.065 A 
HETATM    4  C4  PAP L   1       6.472   6.397  -1.830  1.00  0.00     0.038 A 
HETATM    5  C5  PAP L   1       6.956   6.124  -3.113  1.00  0.00     0.026 A 
HETATM    6  C6  PAP L   1       7.682   7.084  -3.826  1.00  0.00     0.005 A 
ENDROOT
BRANCH   6   7
HETATM    7  N1  PAP L   1       8.262   6.758  -5.057  1.00  0.00    -0.303 NA
HETATM    8  H5  PAP L   1       8.124   5.790  -5.329  1.00  0.00     0.124 HD
HETATM    9  H6  PAP L   1       9.230   7.050  -5.144  1.00  0.00     0.124 HD
ENDBRANCH   6   7
BRANCH   3  10
HETATM   10  O1  PAP L   1       6.305   7.936   0.006  1.00  0.00    -0.361 OA
HETATM   11  H7  PAP L   1       5.611   7.304   0.252  1.00  0.00     0.217 HD
ENDBRANCH   3  10
TORSDOF 2
ENDMDL
MODEL 2
REMARK VINA RESULT:      -5.2      2.783      3.685
REMARK  2 active torsions:
REMARK  status: ('A' for Active; 'I' for Inactive)
REMARK    1  A    between atoms: C3_3  and  O1_10 
REMARK    2  A    between atoms: C6_6  and  N1_7 
ROOT
HETATM    1  C1  PAP L   1       6.511   6.445  -2.050  1.00  0.00     0.026 A 
HETATM    2  C2  PAP L   1       7.042   6.161  -3.311  1.00  0.00     0.038 A 
HETATM    3  C3  PAP L   1       7.858   7.092  -3.938  1.00  0.00     0.065 A 
HETATM    4  C4  PAP L   1       8.166   8.297  -3.317  1.00  0.00     0.038 A 
HETATM    5  C5  PAP L   1       7.631   8.575  -2.056  1.00  0.00     0.026 A 
HETATM    6  C6  PAP L   1       6.759   7.675  -1.433  1.00  0.00     0.005 A 
ENDROOT
BRANCH   6   7
HETATM    7  N1  PAP L   1       6.325   7.907  -0.123  1.00  0.00    -0.303 NA
HETATM    8  H5  PAP L   1       5.575   7.291   0.173  1.00  0.00     0.124 HD
HETATM    9  H6  PAP L   1       6.125   8.882   0.077  1.00  0.00     0.124 HD
ENDBRANCH   6   7
BRANCH   3  10
HETATM   10  O1  PAP L   1       8.358   6.778  -5.166  1.00  0.00    -0.361 OA
HETATM   11  H7  PAP L   1       9.108   6.173  -5.050  1.00  0.00     0.217 HD
ENDBRANCH   3  10
TORSDOF 2
ENDMDL
MODEL 3
REMARK VINA RESULT:      -5.1      4.410      5.077
REMARK  2 active torsions:
REMARK  status: ('A' for Active; 'I' for Inactive)
REMARK    1  A    between atoms: C3_3  and  O1_10 
REMARK    2  A    between atoms: C6_6  and  N1_7 
ROOT
HETATM    1  C1  PAP L   1       8.147   4.787   0.924  1.00  0.00     0.026 A 
HETATM    2  C2  PAP L   1       8.877   3.596   0.910  1.00  0.00     0.038 A 
HETATM    3  C3  PAP L   1       8.858   2.791  -0.220  1.00  0.00     0.065 A 
HETATM    4  C4  PAP L   1       8.132   3.166  -1.345  1.00  0.00     0.038 A 
HETATM    5  C5  PAP L   1       7.402   4.359  -1.323  1.00  0.00     0.026 A 
HETATM    6  C6  PAP L   1       7.362   5.154  -0.173  1.00  0.00     0.005 A 
ENDROOT
BRANCH   6   7
HETATM    7  N1  PAP L   1       6.729   6.402  -0.201  1.00  0.00    -0.303 NA
HETATM    8  H5  PAP L   1       7.308   7.145  -0.578  1.00  0.00     0.124 HD
HETATM    9  H6  PAP L   1       6.292   6.660   0.678  1.00  0.00     0.124 HD
ENDBRANCH   6   7
BRANCH   3  10
HETATM   10  O1  PAP L   1       9.585   1.639  -0.196  1.00  0.00    -0.361 OA
HETATM   11  H7  PAP L   1      10.004   1.555   0.676  1.00  0.00     0.217 HD
ENDBRANCH   3  10
TORSDOF 2
ENDMDL
MODEL 4
REMARK VINA RESULT:      -5.0      4.140      4.741
REMARK  2 active torsions:
REMARK  status: ('A' for Active; 'I' for Inactive)
REMARK    1  A    between atoms: C3_3  and  O1_10 
REMARK    2  A    between atoms: C6_6  and  N1_7 
ROOT
HETATM    1  C1  PAP L   1       8.856   3.598   1.000  1.00  0.00     0.026 A 
HETATM    2  C2  PAP L   1       8.133   4.794   0.996  1.00  0.00     0.038 A 
HETATM    3  C3  PAP L   1       7.425   5.165  -0.139  1.00  0.00     0.065 A 
HETATM    4  C4  PAP L   1       7.416   4.351  -1.266  1.00  0.00     0.038 A 
HETATM    5  C5  PAP L   1       8.143   3.157  -1.255  1.00  0.00     0.026 A 
HETATM    6  C6  PAP L   1       8.910   2.794  -0.143  1.00  0.00     0.005 A 
ENDROOT
BRANCH   6   7
HETATM    7  N1  PAP L   1       9.535   1.543  -0.096  1.00  0.00    -0.303 NA
HETATM    8  H5  PAP L   1       8.916   0.787   0.177  1.00  0.00     0.124 HD
HETATM    9  H6  PAP L   1      10.404   1.538   0.428  1.00  0.00     0.124 HD
ENDBRANCH   6   7
BRANCH   3  10
HETATM   10  O1  PAP L   1       6.731   6.336  -0.102  1.00  0.00    -0.361 OA
HETATM   11  H7  PAP L   1       5.951   6.218   0.463  1.00  0.00     0.217 HD
ENDBRANCH   3  10
TORSDOF 2
ENDMDL
MODEL 5
REMARK VINA RESULT:      -5.0      4.402      5.136
REMARK  2 active torsions:
REMARK  status: ('A' for Active; 'I' for Inactive)
REMARK    1  A    between atoms: C3_3  and  O1_10 
REMARK    2  A    between atoms: C6_6  and  N1_7 
ROOT
HETATM    1  C1  PAP L   1       7.426   4.340  -1.350  1.00  0.00     0.026 A 
HETATM    2  C2  PAP L   1       8.150   3.145  -1.318  1.00  0.00     0.038 A 
HETATM    3  C3  PAP L   1       8.863   2.803  -0.177  1.00  0.00     0.065 A 
HETATM    4  C4  PAP L   1       8.851   3.631   0.940  1.00  0.00     0.038 A 
HETATM    5  C5  PAP L   1       8.126   4.825   0.900  1.00  0.00     0.026 A 
HETATM    6  C6  PAP L   1       7.449   5.215  -0.260  1.00  0.00     0.005 A 
ENDROOT
BRANCH   6   7
HETATM    7  N1  PAP L   1       6.630   6.350  -0.251  1.00  0.00    -0.303 NA
HETATM    8  H5  PAP L   1       6.557   6.808  -1.153  1.00  0.00     0.124 HD
HETATM    9  H6  PAP L   1       6.842   7.002   0.497  1.00  0.00     0.124 HD
ENDBRANCH   6   7
BRANCH   3  10
HETATM   10  O1  PAP L   1       9.554   1.629  -0.184  1.00  0.00    -0.361 OA
HETATM   11  H7  PAP L   1      10.495   1.824  -0.320  1.00  0.00     0.217 HD
ENDBRANCH   3  10
TORSDOF 2
ENDMDL
MODEL 6
REMARK VINA RESULT:      -5.0      4.163      4.850
REMARK  2 active torsions:
REMARK  status: ('A' for Active; 'I' for Inactive)
REMARK    1  A    between atoms: C3_3  and  O1_10 
REMARK    2  A    between atoms: C6_6  and  N1_7 
ROOT
HETATM    1  C1  PAP L   1       8.180   3.172  -1.182  1.00  0.00     0.026 A 
HETATM    2  C2  PAP L   1       7.462   4.371  -1.205  1.00  0.00     0.038 A 
HETATM    3  C3  PAP L   1       7.437   5.179  -0.077  1.00  0.00     0.065 A 
HETATM    4  C4  PAP L   1       8.133   4.816   1.070  1.00  0.00     0.038 A 
HETATM    5  C5  PAP L   1       8.849   3.615   1.087  1.00  0.00     0.026 A 
HETATM    6  C6  PAP L   1       8.837   2.758  -0.020  1.00  0.00     0.005 A 
ENDROOT
BRANCH   6   7
HETATM    7  N1  PAP L   1       9.651   1.620  -0.037  1.00  0.00    -0.303 NA
HETATM    8  H5  PAP L   1      10.644   1.827  -0.004  1.00  0.00     0.124 HD
HETATM    9  H6  PAP L   1       9.419   0.961  -0.773  1.00  0.00     0.124 HD
ENDBRANCH   6   7
BRANCH   3  10
HETATM   10  O1  PAP L   1       6.728   6.341  -0.140  1.00  0.00    -0.361 OA
HETATM   11  H7  PAP L   1       5.785   6.125  -0.223  1.00  0.00     0.217 HD
ENDBRANCH   3  10
TORSDOF 2
ENDMDL
MODEL 7
REMARK VINA RESULT:      -5.0      2.338      2.900
REMARK  2 active torsions:
REMARK  status: ('A' for Active; 'I' for Inactive)
REMARK    1  A    between atoms: C3_3  and  O1_10 
REMARK    2  A    between atoms: C6_6  and  N1_7 
ROOT
HETATM    1  C1  PAP L   1       6.522   7.668  -0.673  1.00  0.00     0.026 A 
HETATM    2  C2  PAP L   1       7.161   8.810  -1.162  1.00  0.00     0.038 A 
HETATM    3  C3  PAP L   1       7.673   8.813  -2.452  1.00  0.00     0.065 A 
HETATM    4  C4  PAP L   1       7.541   7.696  -3.269  1.00  0.00     0.038 A 
HETATM    5  C5  PAP L   1       6.901   6.556  -2.773  1.00  0.00     0.026 A 
HETATM    6  C6  PAP L   1       6.432   6.513  -1.456  1.00  0.00     0.005 A 
ENDROOT
BRANCH   6   7
HETATM    7  N1  PAP L   1       5.689   5.414  -1.008  1.00  0.00    -0.303 NA
HETATM    8  H5  PAP L   1       4.786   5.321  -1.462  1.00  0.00     0.124 HD
HETATM    9  H6  PAP L   1       5.622   5.349   0.002  1.00  0.00     0.124 HD
ENDBRANCH   6   7
BRANCH   3  10
HETATM   10  O1  PAP L   1       8.287   9.947  -2.892  1.00  0.00    -0.361 OA
HETATM   11  H7  PAP L   1       7.615  10.637  -3.012  1.00  0.00     0.217 HD
ENDBRANCH   3  10
TORSDOF 2
ENDMDL
MODEL 8
REMARK VINA RESULT:      -4.9      2.331      3.044
REMARK  2 active torsions:
REMARK  status: ('A' for Active; 'I' for Inactive)
REMARK    1  A    between atoms: C3_3  and  O1_10 
REMARK    2  A    between atoms: C6_6  and  N1_7 
ROOT
HETATM    1  C1  PAP L   1       6.907   6.555  -2.770  1.00  0.00     0.026 A 
HETATM    2  C2  PAP L   1       7.545   7.707  -3.236  1.00  0.00     0.038 A 
HETATM    3  C3  PAP L   1       7.657   8.815  -2.407  1.00  0.00     0.065 A 
HETATM    4  C4  PAP L   1       7.154   8.783  -1.111  1.00  0.00     0.038 A 
HETATM    5  C5  PAP L   1       6.516   7.627  -0.652  1.00  0.00     0.026 A 
HETATM    6  C6  PAP L   1       6.341   6.522  -1.492  1.00  0.00     0.005 A 
ENDROOT
BRANCH   6   7
HETATM    7  N1  PAP L   1       5.809   5.330  -0.987  1.00  0.00    -0.303 NA
HETATM    8  H5  PAP L   1       4.809   5.368  -0.820  1.00  0.00     0.124 HD
HETATM    9  H6  PAP L   1       6.320   4.957  -0.193  1.00  0.00     0.124 HD
ENDBRANCH   6   7
BRANCH   3  10
HETATM   10  O1  PAP L   1       8.288   9.918  -2.897  1.00  0.00    -0.361 OA
HETATM   11  H7  PAP L   1       7.625  10.503  -3.297  1.00  0.00     0.217 HD
ENDBRANCH   3  10
TORSDOF 2
ENDMDL
MODEL 9
REMARK VINA RESULT:      -4.9      1.748      2.249
REMARK  2 active torsions:
REMARK  status: ('A' for Active; 'I' for Inactive)
REMARK    1  A    between atoms: C3_3  and  O1_10 
REMARK    2  A    between atoms: C6_6  and  N1_7 
ROOT
HETATM    1  C1  PAP L   1       7.224   8.865  -1.183  1.00  0.00     0.026 A 
HETATM    2  C2  PAP L   1       6.561   7.737  -0.693  1.00  0.00     0.038 A 
HETATM    3  C3  PAP L   1       6.415   6.620  -1.504  1.00  0.00     0.065 A 
HETATM    4  C4  PAP L   1       6.935   6.606  -2.793  1.00  0.00     0.038 A 
HETATM    5  C5  PAP L   1       7.597   7.740  -3.276  1.00  0.00     0.026 A 
HETATM    6  C6  PAP L   1       7.703   8.896  -2.496  1.00  0.00     0.005 A 
ENDROOT
BRANCH   6   7
HETATM    7  N1  PAP L   1       8.469   9.979  -2.942  1.00  0.00    -0.303 NA
HETATM    8  H5  PAP L   1       8.469  10.768  -2.305  1.00  0.00     0.124 HD
HETATM    9  H6  PAP L   1       8.272  10.254  -3.899  1.00  0.00     0.124 HD
ENDBRANCH   6   7
BRANCH   3  10
HETATM   10  O1  PAP L   1       5.764   5.539  -0.989  1.00  0.00    -0.361 OA
HETATM   11  H7  PAP L   1       5.333   5.802  -0.160  1.00  0.00     0.217 HD
ENDBRANCH   3  10
TORSDOF 2
ENDMDL
MODEL 10
REMARK VINA RESULT:      -4.5      4.747      5.453
REMARK  2 active torsions:
REMARK  status: ('A' for Active; 'I' for Inactive)
REMARK    1  A    between atoms: C3_3  and  O1_10 
REMARK    2  A    between atoms: C6_6  and  N1_7 
ROOT
HETATM    1  C1  PAP L   1       7.095   4.148   1.194  1.00  0.00     0.026 A 
HETATM    2  C2  PAP L   1       8.272   3.492   1.565  1.00  0.00     0.038 A 
HETATM    3  C3  PAP L   1       9.061   2.893   0.593  1.00  0.00     0.065 A 
HETATM    4  C4  PAP L   1       8.700   2.952  -0.749  1.00  0.00     0.038 A 
HETATM    5  C5  PAP L   1       7.520   3.609  -1.112  1.00  0.00     0.026 A 
HETATM    6  C6  PAP L   1       6.682   4.169  -0.142  1.00  0.00     0.005 A 
ENDROOT
BRANCH   6   7
HETATM    7  N1  PAP L   1       5.569   4.926  -0.524  1.00  0.00    -0.303 NA
HETATM    8  H5  PAP L   1       5.483   5.047  -1.528  1.00  0.00     0.124 HD
HETATM    9  H6  PAP L   1       5.476   5.802  -0.021  1.00  0.00     0.124 HD
ENDBRANCH   6   7
BRANCH   3  10
HETATM   10  O1  PAP L   1      10.201   2.265   0.994  1.00  0.00    -0.361 OA
HETATM   11  H7  PAP L   1      10.726   2.885   1.525  1.00  0.00     0.217 HD
ENDBRANCH   3  10
TORSDOF 2
ENDMDL
MODEL 11
REMARK VINA RESULT:      -4.5      2.172      2.791
REMARK  2 active torsions:
REMARK  status: ('A' for Active; 'I' for Inactive)
REMARK    1  A    between atoms: C3_3  and  O1_10 
REMARK    2  A    between atoms: C6_6  and  N1_7 
ROOT
HETATM    1  C1  PAP L   1       7.112   5.678  -2.877  1.00  0.00     0.026 A 
HETATM    2  C2  PAP L   1       7.048   7.052  -3.125  1.00  0.00     0.038 A 
HETATM    3  C3  PAP L   1       7.011   7.941  -2.060  1.00  0.00     0.065 A 
HETATM    4  C4  PAP L   1       7.054   7.480  -0.749  1.00  0.00     0.038 A 
HETATM    5  C5  PAP L   1       7.117   6.104  -0.509  1.00  0.00     0.026 A 
HETATM    6  C6  PAP L   1       7.096   5.189  -1.567  1.00  0.00     0.005 A 
ENDROOT
BRANCH   6   7
HETATM    7  N1  PAP L   1       7.280   3.824  -1.322  1.00  0.00    -0.303 NA
HETATM    8  H5  PAP L   1       7.704   3.625  -0.422  1.00  0.00     0.124 HD
HETATM    9  H6  PAP L   1       7.736   3.328  -2.081  1.00  0.00     0.124 HD
ENDBRANCH   6   7
BRANCH   3  10
HETATM   10  O1  PAP L   1       6.950   9.273  -2.343  1.00  0.00    -0.361 OA
HETATM   11  H7  PAP L   1       6.164   9.439  -2.888  1.00  0.00     0.217 HD
ENDBRANCH   3  10
TORSDOF 2
ENDMDL
MODEL 12
REMARK VINA RESULT:      -4.4      2.401      3.126
REMARK  2 active torsions:
REMARK  status: ('A' for Active; 'I' for Inactive)
REMARK    1  A    between atoms: C3_3  and  O1_10 
REMARK    2  A    between atoms: C6_6  and  N1_7 
ROOT
HETATM    1  C1  PAP L   1       7.645   4.144  -0.544  1.00  0.00     0.026 A 
HETATM    2  C2  PAP L   1       7.354   5.379   0.042  1.00  0.00     0.038 A 
HETATM    3  C3  PAP L   1       6.958   6.443  -0.756  1.00  0.00     0.065 A 
HETATM    4  C4  PAP L   1       6.833   6.288  -2.133  1.00  0.00     0.038 A 
HETATM    5  C5  PAP L   1       7.128   5.050  -2.712  1.00  0.00     0.026 A 
HETATM    6  C6  PAP L   1       7.584   3.983  -1.932  1.00  0.00     0.005 A 
ENDROOT
BRANCH   6   7
HETATM    7  N1  PAP L   1       7.761   2.718  -2.503  1.00  0.00    -0.303 NA
HETATM    8  H5  PAP L   1       8.734   2.448  -2.604  1.00  0.00     0.124 HD
HETATM    9  H6  PAP L   1       7.230   2.575  -3.356  1.00  0.00     0.124 HD
ENDBRANCH   6   7
BRANCH   3  10
HETATM   10  O1  PAP L   1       6.681   7.629  -0.147  1.00  0.00    -0.361 OA
HETATM   11  H7  PAP L   1       6.491   7.460   0.790  1.00  0.00     0.217 HD
ENDBRANCH   3  10
TORSDOF 2
ENDMDL
MODEL 13
REMARK VINA RESULT:      -4.4      3.386      4.185
REMARK  2 active torsions:
REMARK  status: ('A' for Active; 'I' for Inactive)
REMARK    1  A    between atoms: C3_3  and  O1_10 
REMARK    2  A    between atoms: C6_6  and  N1_7 
ROOT
HETATM    1  C1  PAP L   1       7.443   5.211   0.086  1.00  0.00     0.026 A 
HETATM    2  C2  PAP L   1       7.803   3.963  -0.431  1.00  0.00     0.038 A 
HETATM    3  C3  PAP L   1       7.703   3.729  -1.796  1.00  0.00     0.065 A 
HETATM    4  C4  PAP L   1       7.262   4.729  -2.656  1.00  0.00     0.038 A 
HETATM    5  C5  PAP L   1       6.902   5.974  -2.131  1.00  0.00     0.026 A 
HETATM    6  C6  PAP L   1       6.941   6.210  -0.753  1.00  0.00     0.005 A 
ENDROOT
BRANCH   6   7
HETATM    7  N1  PAP L   1       6.694   7.493  -0.251  1.00  0.00    -0.303 NA
HETATM    8  H5  PAP L   1       6.535   7.515   0.751  1.00  0.00     0.124 HD
HETATM    9  H6  PAP L   1       5.985   8.006  -0.765  1.00  0.00     0.124 HD
ENDBRANCH   6   7
BRANCH   3  10
HETATM   10  O1  PAP L   1       8.066   2.501  -2.261  1.00  0.00    -0.361 OA
HETATM   11  H7  PAP L   1       8.356   2.592  -3.183  1.00  0.00     0.217 HD
ENDBRANCH   3  10
TORSDOF 2
ENDMDL
MODEL 14
REMARK VINA RESULT:      -4.4      2.343      2.972
REMARK  2 active torsions:
REMARK  status: ('A' for Active; 'I' for Inactive)
REMARK    1  A    between atoms: C3_3  and  O1_10 
REMARK    2  A    between atoms: C6_6  and  N1_7 
ROOT
HETATM    1  C1  PAP L   1       7.030   6.923  -3.045  1.00  0.00     0.026 A 
HETATM    2  C2  PAP L   1       7.075   5.543  -2.828  1.00  0.00     0.038 A 
HETATM    3  C3  PAP L   1       7.140   5.053  -1.531  1.00  0.00     0.065 A 
HETATM    4  C4  PAP L   1       7.145   5.921  -0.444  1.00  0.00     0.038 A 
HETATM    5  C5  PAP L   1       7.101   7.300  -0.669  1.00  0.00     0.026 A 
HETATM    6  C6  PAP L   1       7.095   7.815  -1.970  1.00  0.00     0.005 A 
ENDROOT
BRANCH   6   7
HETATM    7  N1  PAP L   1       6.930   9.188  -2.183  1.00  0.00    -0.303 NA
HETATM    8  H5  PAP L   1       6.538   9.416  -3.091  1.00  0.00     0.124 HD
HETATM    9  H6  PAP L   1       7.756   9.739  -1.971  1.00  0.00     0.124 HD
ENDBRANCH   6   7
BRANCH   3  10
HETATM   10  O1  PAP L   1       7.180   3.702  -1.361  1.00  0.00    -0.361 OA
HETATM   11  H7  PAP L   1       7.249   3.510  -0.412  1.00  0.00     0.217 HD
ENDBRANCH   3  10
TORSDOF 2
ENDMDL
MODEL 15
REMARK VINA RESULT:      -4.4      4.196      4.733
REMARK  2 active torsions:
REMARK  status: ('A' for Active; 'I' for Inactive)
REMARK    1  A    between atoms: C3_3  and  O1_10 
REMARK    2  A    between atoms: C6_6  and  N1_7 
ROOT
HETATM    1  C1  PAP L   1       7.521   4.388  -0.850  1.00  0.00     0.026 A 
HETATM    2  C2  PAP L   1       7.506   4.785   0.490  1.00  0.00     0.038 A 
HETATM    3  C3  PAP L   1       8.240   4.071   1.426  1.00  0.00     0.065 A 
HETATM    4  C4  PAP L   1       9.004   2.974   1.042  1.00  0.00     0.038 A 
HETATM    5  C5  PAP L   1       9.014   2.582  -0.300  1.00  0.00     0.026 A 
HETATM    6  C6  PAP L   1       8.234   3.253  -1.249  1.00  0.00     0.005 A 
ENDROOT
BRANCH   6   7
HETATM    7  N1  PAP L   1       8.343   2.930  -2.606  1.00  0.00    -0.303 NA
HETATM    8  H5  PAP L   1       9.032   2.211  -2.800  1.00  0.00     0.124 HD
HETATM    9  H6  PAP L   1       8.446   3.737  -3.213  1.00  0.00     0.124 HD
ENDBRANCH   6   7
BRANCH   3  10
HETATM   10  O1  PAP L   1       8.201   4.490   2.722  1.00  0.00    -0.361 OA
HETATM   11  H7  PAP L   1       8.103   5.455   2.733  1.00  0.00     0.217 HD
ENDBRANCH   3  10
TORSDOF 2
ENDMDL
MODEL 16
REMARK VINA RESULT:      -4.4      5.684      6.501
REMARK  2 active torsions:
REMARK  status: ('A' for Active; 'I' for Inactive)
REMARK    1  A    between atoms: C3_3  and  O1_10 
REMARK    2  A    between atoms: C6_6  and  N1_7 
ROOT
HETATM    1  C1  PAP L   1       7.646   1.369   1.375  1.00  0.00     0.026 A 
HETATM    2  C2  PAP L   1       6.912   2.557   1.431  1.00  0.00     0.038 A 
HETATM    3  C3  PAP L   1       7.519   3.757   1.085  1.00  0.00     0.065 A 
HETATM    4  C4  PAP L   1       8.845   3.786   0.669  1.00  0.00     0.038 A 
HETATM    5  C5  PAP L   1       9.574   2.594   0.617  1.00  0.00     0.026 A 
HETATM    6  C6  PAP L   1       8.998   1.383   1.017  1.00  0.00     0.005 A 
ENDROOT
BRANCH   6   7
HETATM    7  N1  PAP L   1       9.695   0.182   0.848  1.00  0.00    -0.303 NA
HETATM    8  H5  PAP L   1      10.668   0.307   0.589  1.00  0.00     0.124 HD
HETATM    9  H6  PAP L   1       9.220  -0.488   0.251  1.00  0.00     0.124 HD
ENDBRANCH   6   7
BRANCH   3  10
HETATM   10  O1  PAP L   1       6.770   4.893   1.150  1.00  0.00    -0.361 OA
HETATM   11  H7  PAP L   1       7.071   5.504   0.459  1.00  0.00     0.217 HD
ENDBRANCH   3  10
TORSDOF 2
ENDMDL
MODEL 17
REMARK VINA RESULT:      -4.3      2.884      3.729
REMARK  2 active torsions:
REMARK  status: ('A' for Active; 'I' for Inactive)
REMARK    1  A    between atoms: C3_3  and  O1_10 
REMARK    2  A    between atoms: C6_6  and  N1_7 
ROOT
HETATM    1  C1  PAP L   1       7.193   4.797  -1.665  1.00  0.00     0.026 A 
HETATM    2  C2  PAP L   1       7.195   5.306  -2.966  1.00  0.00     0.038 A 
HETATM    3  C3  PAP L   1       7.072   6.674  -3.169  1.00  0.00     0.065 A 
HETATM    4  C4  PAP L   1       6.964   7.543  -2.090  1.00  0.00     0.038 A 
HETATM    5  C5  PAP L   1       6.962   7.026  -0.791  1.00  0.00     0.026 A 
HETATM    6  C6  PAP L   1       7.025   5.647  -0.568  1.00  0.00     0.005 A 
ENDROOT
BRANCH   6   7
HETATM    7  N1  PAP L   1       7.143   5.148   0.735  1.00  0.00    -0.303 NA
HETATM    8  H5  PAP L   1       6.341   4.605   1.037  1.00  0.00     0.124 HD
HETATM    9  H6  PAP L   1       7.416   5.846   1.418  1.00  0.00     0.124 HD
ENDBRANCH   6   7
BRANCH   3  10
HETATM   10  O1  PAP L   1       7.081   7.132  -4.452  1.00  0.00    -0.361 OA
HETATM   11  H7  PAP L   1       7.163   6.373  -5.052  1.00  0.00     0.217 HD
ENDBRANCH   3  10
TORSDOF 2
ENDMDL
MODEL 18
REMARK VINA RESULT:      -4.3      2.908      3.445
REMARK  2 active torsions:
REMARK  status: ('A' for Active; 'I' for Inactive)
REMARK    1  A    between atoms: C3_3  and  O1_10 
REMARK    2  A    between atoms: C6_6  and  N1_7 
ROOT
HETATM    1  C1  PAP L   1       6.964   6.948  -0.705  1.00  0.00     0.026 A 
HETATM    2  C2  PAP L   1       6.935   7.463  -2.004  1.00  0.00     0.038 A 
HETATM    3  C3  PAP L   1       7.050   6.603  -3.087  1.00  0.00     0.065 A 
HETATM    4  C4  PAP L   1       7.179   5.233  -2.893  1.00  0.00     0.038 A 
HETATM    5  C5  PAP L   1       7.209   4.724  -1.591  1.00  0.00     0.026 A 
HETATM    6  C6  PAP L   1       7.153   5.580  -0.486  1.00  0.00     0.005 A 
ENDROOT
BRANCH   6   7
HETATM    7  N1  PAP L   1       7.063   5.055   0.808  1.00  0.00    -0.303 NA
HETATM    8  H5  PAP L   1       6.401   4.291   0.893  1.00  0.00     0.124 HD
HETATM    9  H6  PAP L   1       6.934   5.758   1.529  1.00  0.00     0.124 HD
ENDBRANCH   6   7
BRANCH   3  10
HETATM   10  O1  PAP L   1       7.015   7.144  -4.337  1.00  0.00    -0.361 OA
HETATM   11  H7  PAP L   1       6.970   8.110  -4.257  1.00  0.00     0.217 HD
ENDBRANCH   3  10
TORSDOF 2
ENDMDL
MODEL 19
REMARK VINA RESULT:      -4.1      4.987      5.689
REMARK  2 active torsions:
REMARK  status: ('A' for Active; 'I' for Inactive)
REMARK    1  A    between atoms: C3_3  and  O1_10 
REMARK    2  A    between atoms: C6_6  and  N1_7 
ROOT
HETATM    1  C1  PAP L   1       7.516   4.752   0.390  1.00  0.00     0.026 A 
HETATM    2  C2  PAP L   1       7.540   4.330  -0.942  1.00  0.00     0.038 A 
HETATM    3  C3  PAP L   1       8.321   3.243  -1.305  1.00  0.00     0.065 A 
HETATM    4  C4  PAP L   1       9.069   2.558  -0.353  1.00  0.00     0.038 A 
HETATM    5  C5  PAP L   1       9.041   2.986   0.977  1.00  0.00     0.026 A 
HETATM    6  C6  PAP L   1       8.306   4.116   1.352  1.00  0.00     0.005 A 
ENDROOT
BRANCH   6   7
HETATM    7  N1  PAP L   1       8.189   4.464   2.703  1.00  0.00    -0.303 NA
HETATM    8  H5  PAP L   1       7.507   5.194   2.878  1.00  0.00     0.124 HD
HETATM    9  H6  PAP L   1       9.077   4.648   3.158  1.00  0.00     0.124 HD
ENDBRANCH   6   7
BRANCH   3  10
HETATM   10  O1  PAP L   1       8.316   2.861  -2.613  1.00  0.00    -0.361 OA
HETATM   11  H7  PAP L   1       8.449   1.901  -2.657  1.00  0.00     0.217 HD
ENDBRANCH   3  10
TORSDOF 2
ENDMDL
MODEL 20
REMARK VINA RESULT:      -4.0      2.192      2.669
REMARK  2 active torsions:
REMARK  status: ('A' for Active; 'I' for Inactive)
REMARK    1  A    between atoms: C3_3  and  O1_10 
REMARK    2  A    between atoms: C6_6  and  N1_7 
ROOT
HETATM    1  C1  PAP L   1       7.066   6.353  -1.959  1.00  0.00     0.026 A 
HETATM    2  C2  PAP L   1       6.954   6.155  -0.580  1.00  0.00     0.038 A 
HETATM    3  C3  PAP L   1       7.130   4.884  -0.051  1.00  0.00     0.065 A 
HETATM    4  C4  PAP L   1       7.432   3.808  -0.878  1.00  0.00     0.038 A 
HETATM    5  C5  PAP L   1       7.541   4.013  -2.257  1.00  0.00     0.026 A 
HETATM    6  C6  PAP L   1       7.309   5.275  -2.815  1.00  0.00     0.005 A 
ENDROOT
BRANCH   6   7
HETATM    7  N1  PAP L   1       7.538   5.495  -4.178  1.00  0.00    -0.303 NA
HETATM    8  H5  PAP L   1       6.689   5.536  -4.733  1.00  0.00     0.124 HD
HETATM    9  H6  PAP L   1       8.233   4.876  -4.583  1.00  0.00     0.124 HD
ENDBRANCH   6   7
BRANCH   3  10
HETATM   10  O1  PAP L   1       7.016   4.733   1.298  1.00  0.00    -0.361 OA
HETATM   11  H7  PAP L   1       7.676   5.298   1.731  1.00  0.00     0.217 HD
ENDBRANCH   3  10
TORSDOF 2
ENDMDL
