HETATM    1  C1  PAP L   1       7.863   5.710   3.599  1.00  0.00     0.026 A 
HETATM    2  C2  PAP L   1       7.550   6.669   4.566  1.00  0.00     0.038 A 
HETATM    3  C3  PAP L   1       6.315   6.630   5.197  1.00  0.00     0.065 A 
HETATM    4  C4  PAP L   1       5.391   5.638   4.888  1.00  0.00     0.038 A 
HETATM    5  C5  PAP L   1       5.711   4.682   3.919  1.00  0.00     0.026 A 
HETATM    6  C6  PAP L   1       6.927   4.739   3.230  1.00  0.00     0.005 A 
HETATM    7  N1  PAP L   1       7.286   3.712   2.350  1.00  0.00    -0.303 NA
HETATM    8  H5  PAP L   1       7.382   2.806   2.797  1.00  0.00     0.124 HD
HETATM    9  H6  PAP L   1       8.081   3.936   1.759  1.00  0.00     0.124 HD
HETATM   10  O1  PAP L   1       6.048   7.581   6.136  1.00  0.00    -0.361 OA
HETATM   11  H7  PAP L   1       6.550   8.383   5.917  1.00  0.00     0.217 HD
HETATM    1  C1  PAP L   1       7.570   6.611   4.578  1.00  0.00     0.026 A 
HETATM    2  C2  PAP L   1       7.887   5.698   3.568  1.00  0.00     0.038 A 
HETATM    3  C3  PAP L   1       6.973   4.712   3.221  1.00  0.00     0.065 A 
HETATM    4  C4  PAP L   1       5.739   4.635   3.857  1.00  0.00     0.038 A 
HETATM    5  C5  PAP L   1       5.430   5.551   4.867  1.00  0.00     0.026 A 
HETATM    6  C6  PAP L   1       6.360   6.514   5.271  1.00  0.00     0.005 A 
HETATM    7  N1  PAP L   1       5.997   7.500   6.197  1.00  0.00    -0.303 NA
HETATM    8  H5  PAP L   1       5.874   7.148   7.140  1.00  0.00     0.124 HD
HETATM    9  H6  PAP L   1       5.220   8.078   5.896  1.00  0.00     0.124 HD
HETATM   10  O1  PAP L   1       7.317   3.843   2.231  1.00  0.00    -0.361 OA
HETATM   11  H7  PAP L   1       7.051   2.948   2.497  1.00  0.00     0.217 HD
HETATM    1  C1  PAP L   1       6.354   4.975   4.926  1.00  0.00     0.026 A 
HETATM    2  C2  PAP L   1       7.168   5.522   3.931  1.00  0.00     0.038 A 
HETATM    3  C3  PAP L   1       7.474   6.875   3.960  1.00  0.00     0.065 A 
HETATM    4  C4  PAP L   1       6.993   7.689   4.980  1.00  0.00     0.038 A 
HETATM    5  C5  PAP L   1       6.178   7.135   5.973  1.00  0.00     0.026 A 
HETATM    6  C6  PAP L   1       5.810   5.786   5.927  1.00  0.00     0.005 A 
HETATM    7  N1  PAP L   1       5.096   5.215   6.987  1.00  0.00    -0.303 NA
HETATM    8  H5  PAP L   1       5.318   5.616   7.891  1.00  0.00     0.124 HD
HETATM    9  H6  PAP L   1       5.120   4.200   6.998  1.00  0.00     0.124 HD
HETATM   10  O1  PAP L   1       8.272   7.371   2.974  1.00  0.00    -0.361 OA
HETATM   11  H7  PAP L   1       7.981   8.272   2.762  1.00  0.00     0.217 HD
HETATM    1  C1  PAP L   1       6.167   7.009   6.076  1.00  0.00     0.026 A 
HETATM    2  C2  PAP L   1       6.983   7.556   5.082  1.00  0.00     0.038 A 
HETATM    3  C3  PAP L   1       7.440   6.751   4.048  1.00  0.00     0.065 A 
HETATM    4  C4  PAP L   1       7.080   5.409   3.982  1.00  0.00     0.038 A 
HETATM    5  C5  PAP L   1       6.264   4.869   4.981  1.00  0.00     0.026 A 
HETATM    6  C6  PAP L   1       5.842   5.649   6.062  1.00  0.00     0.005 A 
HETATM    7  N1  PAP L   1       4.930   5.133   6.990  1.00  0.00    -0.303 NA
HETATM    8  H5  PAP L   1       4.189   5.780   7.237  1.00  0.00     0.124 HD
HETATM    9  H6  PAP L   1       5.366   4.716   7.806  1.00  0.00     0.124 HD
HETATM   10  O1  PAP L   1       8.231   7.322   3.097  1.00  0.00    -0.361 OA
HETATM   11  H7  PAP L   1       7.735   7.363   2.264  1.00  0.00     0.217 HD
HETATM    1  C1  PAP L   1       7.025   5.488   4.034  1.00  0.00     0.026 A 
HETATM    2  C2  PAP L   1       6.210   4.915   5.015  1.00  0.00     0.038 A 
HETATM    3  C3  PAP L   1       5.751   5.693   6.068  1.00  0.00     0.065 A 
HETATM    4  C4  PAP L   1       6.080   7.041   6.149  1.00  0.00     0.038 A 
HETATM    5  C5  PAP L   1       6.896   7.608   5.165  1.00  0.00     0.026 A 
HETATM    6  C6  PAP L   1       7.417   6.827   4.128  1.00  0.00     0.005 A 
HETATM    7  N1  PAP L   1       8.132   7.427   3.086  1.00  0.00    -0.303 NA
HETATM    8  H5  PAP L   1       8.702   6.776   2.555  1.00  0.00     0.124 HD
HETATM    9  H6  PAP L   1       8.650   8.254   3.365  1.00  0.00     0.124 HD
HETATM   10  O1  PAP L   1       4.958   5.098   7.002  1.00  0.00    -0.361 OA
HETATM   11  H7  PAP L   1       4.651   4.246   6.652  1.00  0.00     0.217 HD
HETATM    1  C1  PAP L   1       6.886   7.469   5.289  1.00  0.00     0.026 A 
HETATM    2  C2  PAP L   1       6.039   6.893   6.240  1.00  0.00     0.038 A 
HETATM    3  C3  PAP L   1       5.640   5.572   6.094  1.00  0.00     0.065 A 
HETATM    4  C4  PAP L   1       6.088   4.810   5.020  1.00  0.00     0.038 A 
HETATM    5  C5  PAP L   1       6.935   5.394   4.073  1.00  0.00     0.026 A 
HETATM    6  C6  PAP L   1       7.301   6.741   4.170  1.00  0.00     0.005 A 
HETATM    7  N1  PAP L   1       8.241   7.281   3.286  1.00  0.00    -0.303 NA
HETATM    8  H5  PAP L   1       8.313   6.777   2.408  1.00  0.00     0.124 HD
HETATM    9  H6  PAP L   1       9.149   7.453   3.707  1.00  0.00     0.124 HD
HETATM   10  O1  PAP L   1       4.816   5.046   7.043  1.00  0.00    -0.361 OA
HETATM   11  H7  PAP L   1       4.084   5.665   7.196  1.00  0.00     0.217 HD
HETATM    1  C1  PAP L   1       7.594   5.130   3.621  1.00  0.00     0.026 A 
HETATM    2  C2  PAP L   1       6.275   5.062   4.076  1.00  0.00     0.038 A 
HETATM    3  C3  PAP L   1       5.792   6.042   4.932  1.00  0.00     0.065 A 
HETATM    4  C4  PAP L   1       6.602   7.100   5.327  1.00  0.00     0.038 A 
HETATM    5  C5  PAP L   1       7.922   7.161   4.868  1.00  0.00     0.026 A 
HETATM    6  C6  PAP L   1       8.445   6.152   4.053  1.00  0.00     0.005 A 
HETATM    7  N1  PAP L   1       9.725   6.283   3.503  1.00  0.00    -0.303 NA
HETATM    8  H5  PAP L   1      10.246   5.413   3.469  1.00  0.00     0.124 HD
HETATM    9  H6  PAP L   1      10.268   7.042   3.903  1.00  0.00     0.124 HD
HETATM   10  O1  PAP L   1       4.500   5.942   5.352  1.00  0.00    -0.361 OA
HETATM   11  H7  PAP L   1       4.476   5.398   6.156  1.00  0.00     0.217 HD
