MODEL 1
REMARK VINA RESULT:      -5.1      0.000      0.000
REMARK  2 active torsions:
REMARK  status: ('A' for Active; 'I' for Inactive)
REMARK    1  A    between atoms: C3_3  and  O1_8 
REMARK    2  A    between atoms: C6_6  and  N1_7 
ROOT
HETATM    1  C1  UNL     1      -2.327  -0.920  -7.955  1.00  0.00     0.026 A 
HETATM    2  C2  UNL     1      -2.234  -1.049  -6.567  1.00  0.00     0.038 A 
HETATM    3  C3  UNL     1      -2.351  -2.302  -5.983  1.00  0.00     0.065 A 
HETATM    4  C4  UNL     1      -2.544  -3.434  -6.769  1.00  0.00     0.038 A 
HETATM    5  C5  UNL     1      -2.637  -3.297  -8.157  1.00  0.00     0.026 A 
HETATM    6  C6  UNL     1      -2.580  -2.035  -8.759  1.00  0.00     0.005 A 
ENDROOT
BRANCH   6   7
HETATM    7  N1  UNL     1      -2.555  -1.920 -10.153  1.00  0.00    -0.303 NA
HETATM    8  H5  UNL     1      -2.614  -0.963 -10.485  1.00  0.00     0.124 HD
HETATM    9  H6  UNL     1      -3.209  -2.534 -10.628  1.00  0.00     0.124 HD
ENDBRANCH   6   7
BRANCH   3  10
HETATM   10  O1  UNL     1      -2.252  -2.387  -4.627  1.00  0.00    -0.361 OA
HETATM   11  H7  UNL     1      -2.728  -1.637  -4.235  1.00  0.00     0.217 HD
ENDBRANCH   3  10
TORSDOF 2
ENDMDL
MODEL 2
REMARK VINA RESULT:      -5.1      0.089      1.705
REMARK  2 active torsions:
REMARK  status: ('A' for Active; 'I' for Inactive)
REMARK    1  A    between atoms: C3_3  and  O1_8 
REMARK    2  A    between atoms: C6_6  and  N1_7 
ROOT
HETATM    1  C1  UNL     1      -2.657  -3.246  -8.124  1.00  0.00     0.026 A 
HETATM    2  C2  UNL     1      -2.584  -3.348  -6.733  1.00  0.00     0.038 A 
HETATM    3  C3  UNL     1      -2.347  -2.212  -5.972  1.00  0.00     0.065 A 
HETATM    4  C4  UNL     1      -2.197  -0.970  -6.580  1.00  0.00     0.038 A 
HETATM    5  C5  UNL     1      -2.270  -0.876  -7.973  1.00  0.00     0.026 A 
HETATM    6  C6  UNL     1      -2.450  -2.018  -8.761  1.00  0.00     0.005 A 
ENDROOT
BRANCH   6   7
HETATM    7  N1  UNL     1      -2.640  -1.899 -10.142  1.00  0.00    -0.303 NA
HETATM    8  H5  UNL     1      -3.585  -2.116 -10.444  1.00  0.00     0.124 HD
HETATM    9  H6  UNL     1      -1.938  -2.377 -10.696  1.00  0.00     0.124 HD
ENDBRANCH   6   7
BRANCH   3  10
HETATM   10  O1  UNL     1      -2.285  -2.352  -4.618  1.00  0.00    -0.361 OA
HETATM   11  H7  UNL     1      -2.583  -3.246  -4.386  1.00  0.00     0.217 HD
ENDBRANCH   3  10
TORSDOF 2
ENDMDL
MODEL 3
REMARK VINA RESULT:      -5.0      2.780      3.682
REMARK  2 active torsions:
REMARK  status: ('A' for Active; 'I' for Inactive)
REMARK    1  A    between atoms: C3_3  and  O1_8 
REMARK    2  A    between atoms: C6_6  and  N1_7 
ROOT
HETATM    1  C1  UNL     1      -2.526  -3.450  -6.887  1.00  0.00     0.026 A 
HETATM    2  C2  UNL     1      -2.577  -3.347  -8.279  1.00  0.00     0.038 A 
HETATM    3  C3  UNL     1      -2.498  -2.099  -8.879  1.00  0.00     0.065 A 
HETATM    4  C4  UNL     1      -2.353  -0.950  -8.109  1.00  0.00     0.038 A 
HETATM    5  C5  UNL     1      -2.304  -1.061  -6.716  1.00  0.00     0.026 A 
HETATM    6  C6  UNL     1      -2.441  -2.304  -6.090  1.00  0.00     0.005 A 
ENDROOT
BRANCH   6   7
HETATM    7  N1  UNL     1      -2.272  -2.419  -4.706  1.00  0.00    -0.303 NA
HETATM    8  H5  UNL     1      -2.945  -1.882  -4.167  1.00  0.00     0.124 HD
HETATM    9  H6  UNL     1      -1.319  -2.267  -4.395  1.00  0.00     0.124 HD
ENDBRANCH   6   7
BRANCH   3  10
HETATM   10  O1  UNL     1      -2.548  -2.040 -10.240  1.00  0.00    -0.361 OA
HETATM   11  H7  UNL     1      -3.299  -1.482 -10.498  1.00  0.00     0.217 HD
ENDBRANCH   3  10
TORSDOF 2
ENDMDL
MODEL 4
REMARK VINA RESULT:      -4.8      2.828      3.304
REMARK  2 active torsions:
REMARK  status: ('A' for Active; 'I' for Inactive)
REMARK    1  A    between atoms: C3_3  and  O1_8 
REMARK    2  A    between atoms: C6_6  and  N1_7 
ROOT
HETATM    1  C1  UNL     1      -2.194  -0.604  -7.081  1.00  0.00     0.026 A 
HETATM    2  C2  UNL     1      -2.274  -0.612  -8.476  1.00  0.00     0.038 A 
HETATM    3  C3  UNL     1      -2.462  -1.812  -9.147  1.00  0.00     0.065 A 
HETATM    4  C4  UNL     1      -2.587  -3.005  -8.443  1.00  0.00     0.038 A 
HETATM    5  C5  UNL     1      -2.505  -2.989  -7.047  1.00  0.00     0.026 A 
HETATM    6  C6  UNL     1      -2.257  -1.798  -6.357  1.00  0.00     0.005 A 
ENDROOT
BRANCH   6   7
HETATM    7  N1  UNL     1      -2.296  -1.773  -4.958  1.00  0.00    -0.303 NA
HETATM    8  H5  UNL     1      -1.377  -1.761  -4.525  1.00  0.00     0.124 HD
HETATM    9  H6  UNL     1      -2.905  -2.475  -4.552  1.00  0.00     0.124 HD
ENDBRANCH   6   7
BRANCH   3  10
HETATM   10  O1  UNL     1      -2.537  -1.778 -10.507  1.00  0.00    -0.361 OA
HETATM   11  H7  UNL     1      -3.439  -2.019 -10.773  1.00  0.00     0.217 HD
ENDBRANCH   3  10
TORSDOF 2
ENDMDL
MODEL 5
REMARK VINA RESULT:      -4.7      2.939      3.532
REMARK  2 active torsions:
REMARK  status: ('A' for Active; 'I' for Inactive)
REMARK    1  A    between atoms: C3_3  and  O1_8 
REMARK    2  A    between atoms: C6_6  and  N1_7 
ROOT
HETATM    1  C1  UNL     1      -2.603  -2.393  -7.236  1.00  0.00     0.026 A 
HETATM    2  C2  UNL     1      -2.579  -3.139  -8.417  1.00  0.00     0.038 A 
HETATM    3  C3  UNL     1      -2.243  -4.484  -8.374  1.00  0.00     0.065 A 
HETATM    4  C4  UNL     1      -1.946  -5.102  -7.164  1.00  0.00     0.038 A 
HETATM    5  C5  UNL     1      -1.970  -4.349  -5.986  1.00  0.00     0.026 A 
HETATM    6  C6  UNL     1      -2.249  -2.979  -6.016  1.00  0.00     0.005 A 
ENDROOT
BRANCH   6   7
HETATM    7  N1  UNL     1      -2.388  -2.261  -4.823  1.00  0.00    -0.303 NA
HETATM    8  H5  UNL     1      -2.065  -1.301  -4.884  1.00  0.00     0.124 HD
HETATM    9  H6  UNL     1      -2.018  -2.742  -4.010  1.00  0.00     0.124 HD
ENDBRANCH   6   7
BRANCH   3  10
HETATM   10  O1  UNL     1      -2.234  -5.178  -9.547  1.00  0.00    -0.361 OA
HETATM   11  H7  UNL     1      -1.313  -5.361  -9.791  1.00  0.00     0.217 HD
ENDBRANCH   3  10
TORSDOF 2
ENDMDL
MODEL 6
REMARK VINA RESULT:      -4.7      3.800      4.543
REMARK  2 active torsions:
REMARK  status: ('A' for Active; 'I' for Inactive)
REMARK    1  A    between atoms: C3_3  and  O1_8 
REMARK    2  A    between atoms: C6_6  and  N1_7 
ROOT
HETATM    1  C1  UNL     1      -2.732  -4.835  -7.058  1.00  0.00     0.026 A 
HETATM    2  C2  UNL     1      -2.448  -5.754  -8.071  1.00  0.00     0.038 A 
HETATM    3  C3  UNL     1      -1.129  -6.076  -8.357  1.00  0.00     0.065 A 
HETATM    4  C4  UNL     1      -0.087  -5.505  -7.634  1.00  0.00     0.038 A 
HETATM    5  C5  UNL     1      -0.379  -4.585  -6.622  1.00  0.00     0.026 A 
HETATM    6  C6  UNL     1      -1.699  -4.204  -6.359  1.00  0.00     0.005 A 
ENDROOT
BRANCH   6   7
HETATM    7  N1  UNL     1      -1.989  -3.376  -5.268  1.00  0.00    -0.303 NA
HETATM    8  H5  UNL     1      -1.274  -3.386  -4.547  1.00  0.00     0.124 HD
HETATM    9  H6  UNL     1      -2.921  -3.506  -4.890  1.00  0.00     0.124 HD
ENDBRANCH   6   7
BRANCH   3  10
HETATM   10  O1  UNL     1      -0.893  -6.978  -9.351  1.00  0.00    -0.361 OA
HETATM   11  H7  UNL     1      -0.999  -6.532 -10.206  1.00  0.00     0.217 HD
ENDBRANCH   3  10
TORSDOF 2
ENDMDL
MODEL 7
REMARK VINA RESULT:      -4.7      1.629      2.065
REMARK  2 active torsions:
REMARK  status: ('A' for Active; 'I' for Inactive)
REMARK    1  A    between atoms: C3_3  and  O1_8 
REMARK    2  A    between atoms: C6_6  and  N1_7 
ROOT
HETATM    1  C1  UNL     1      -2.513  -2.843  -8.710  1.00  0.00     0.026 A 
HETATM    2  C2  UNL     1      -2.321  -1.668  -7.981  1.00  0.00     0.038 A 
HETATM    3  C3  UNL     1      -2.199  -1.726  -6.600  1.00  0.00     0.065 A 
HETATM    4  C4  UNL     1      -2.250  -2.947  -5.936  1.00  0.00     0.038 A 
HETATM    5  C5  UNL     1      -2.444  -4.120  -6.672  1.00  0.00     0.026 A 
HETATM    6  C6  UNL     1      -2.627  -4.075  -8.058  1.00  0.00     0.005 A 
ENDROOT
BRANCH   6   7
HETATM    7  N1  UNL     1      -2.700  -5.261  -8.798  1.00  0.00    -0.303 NA
HETATM    8  H5  UNL     1      -2.158  -6.023  -8.402  1.00  0.00     0.124 HD
HETATM    9  H6  UNL     1      -2.526  -5.137  -9.790  1.00  0.00     0.124 HD
ENDBRANCH   6   7
BRANCH   3  10
HETATM   10  O1  UNL     1      -2.010  -0.558  -5.925  1.00  0.00    -0.361 OA
HETATM   11  H7  UNL     1      -1.332  -0.699  -5.245  1.00  0.00     0.217 HD
ENDBRANCH   3  10
TORSDOF 2
ENDMDL
MODEL 8
REMARK VINA RESULT:      -4.7      3.060      3.656
REMARK  2 active torsions:
REMARK  status: ('A' for Active; 'I' for Inactive)
REMARK    1  A    between atoms: C3_3  and  O1_8 
REMARK    2  A    between atoms: C6_6  and  N1_7 
ROOT
HETATM    1  C1  UNL     1      -2.448  -5.653  -8.064  1.00  0.00     0.026 A 
HETATM    2  C2  UNL     1      -2.692  -4.771  -7.009  1.00  0.00     0.038 A 
HETATM    3  C3  UNL     1      -1.630  -4.272  -6.269  1.00  0.00     0.065 A 
HETATM    4  C4  UNL     1      -0.322  -4.629  -6.580  1.00  0.00     0.038 A 
HETATM    5  C5  UNL     1      -0.085  -5.513  -7.637  1.00  0.00     0.026 A 
HETATM    6  C6  UNL     1      -1.146  -6.072  -8.356  1.00  0.00     0.005 A 
ENDROOT
BRANCH   6   7
HETATM    7  N1  UNL     1      -0.895  -6.860  -9.485  1.00  0.00    -0.303 NA
HETATM    8  H5  UNL     1      -0.210  -7.592  -9.327  1.00  0.00     0.124 HD
HETATM    9  H6  UNL     1      -0.702  -6.324 -10.324  1.00  0.00     0.124 HD
ENDBRANCH   6   7
BRANCH   3  10
HETATM   10  O1  UNL     1      -1.909  -3.413  -5.249  1.00  0.00    -0.361 OA
HETATM   11  H7  UNL     1      -2.480  -3.867  -4.609  1.00  0.00     0.217 HD
ENDBRANCH   3  10
TORSDOF 2
ENDMDL
MODEL 9
REMARK VINA RESULT:      -4.7      1.792      2.490
REMARK  2 active torsions:
REMARK  status: ('A' for Active; 'I' for Inactive)
REMARK    1  A    between atoms: C3_3  and  O1_8 
REMARK    2  A    between atoms: C6_6  and  N1_7 
ROOT
HETATM    1  C1  UNL     1      -2.542  -2.669  -8.610  1.00  0.00     0.026 A 
HETATM    2  C2  UNL     1      -2.440  -4.014  -8.250  1.00  0.00     0.038 A 
HETATM    3  C3  UNL     1      -2.312  -4.360  -6.912  1.00  0.00     0.065 A 
HETATM    4  C4  UNL     1      -2.300  -3.381  -5.926  1.00  0.00     0.038 A 
HETATM    5  C5  UNL     1      -2.400  -2.036  -6.294  1.00  0.00     0.026 A 
HETATM    6  C6  UNL     1      -2.471  -1.664  -7.640  1.00  0.00     0.005 A 
ENDROOT
BRANCH   6   7
HETATM    7  N1  UNL     1      -2.691  -0.327  -7.992  1.00  0.00    -0.303 NA
HETATM    8  H5  UNL     1      -3.673  -0.076  -8.044  1.00  0.00     0.124 HD
HETATM    9  H6  UNL     1      -2.171  -0.027  -8.810  1.00  0.00     0.124 HD
ENDBRANCH   6   7
BRANCH   3  10
HETATM   10  O1  UNL     1      -2.219  -5.684  -6.601  1.00  0.00    -0.361 OA
HETATM   11  H7  UNL     1      -1.318  -5.866  -6.289  1.00  0.00     0.217 HD
ENDBRANCH   3  10
TORSDOF 2
ENDMDL
MODEL 10
REMARK VINA RESULT:      -4.6      2.328      2.892
REMARK  2 active torsions:
REMARK  status: ('A' for Active; 'I' for Inactive)
REMARK    1  A    between atoms: C3_3  and  O1_8 
REMARK    2  A    between atoms: C6_6  and  N1_7 
ROOT
HETATM    1  C1  UNL     1      -2.266  -3.333  -5.954  1.00  0.00     0.026 A 
HETATM    2  C2  UNL     1      -2.391  -1.968  -6.217  1.00  0.00     0.038 A 
HETATM    3  C3  UNL     1      -2.528  -1.530  -7.527  1.00  0.00     0.065 A 
HETATM    4  C4  UNL     1      -2.558  -2.439  -8.578  1.00  0.00     0.038 A 
HETATM    5  C5  UNL     1      -2.430  -3.805  -8.307  1.00  0.00     0.026 A 
HETATM    6  C6  UNL     1      -2.232  -4.261  -6.999  1.00  0.00     0.005 A 
ENDROOT
BRANCH   6   7
HETATM    7  N1  UNL     1      -2.226  -5.633  -6.725  1.00  0.00    -0.303 NA
HETATM    8  H5  UNL     1      -3.101  -5.977  -6.342  1.00  0.00     0.124 HD
HETATM    9  H6  UNL     1      -1.422  -5.941  -6.188  1.00  0.00     0.124 HD
ENDBRANCH   6   7
BRANCH   3  10
HETATM   10  O1  UNL     1      -2.651  -0.190  -7.743  1.00  0.00    -0.361 OA
HETATM   11  H7  UNL     1      -1.807   0.147  -8.085  1.00  0.00     0.217 HD
ENDBRANCH   3  10
TORSDOF 2
ENDMDL
MODEL 11
REMARK VINA RESULT:      -4.6      4.128      4.892
REMARK  2 active torsions:
REMARK  status: ('A' for Active; 'I' for Inactive)
REMARK    1  A    between atoms: C3_3  and  O1_8 
REMARK    2  A    between atoms: C6_6  and  N1_7 
ROOT
HETATM    1  C1  UNL     1      -0.474  -6.199  -8.568  1.00  0.00     0.026 A 
HETATM    2  C2  UNL     1      -1.687  -6.567  -9.156  1.00  0.00     0.038 A 
HETATM    3  C3  UNL     1      -2.882  -6.156  -8.583  1.00  0.00     0.065 A 
HETATM    4  C4  UNL     1      -2.883  -5.366  -7.438  1.00  0.00     0.038 A 
HETATM    5  C5  UNL     1      -1.666  -5.003  -6.855  1.00  0.00     0.026 A 
HETATM    6  C6  UNL     1      -0.453  -5.456  -7.384  1.00  0.00     0.005 A 
ENDROOT
BRANCH   6   7
HETATM    7  N1  UNL     1       0.760  -4.990  -6.865  1.00  0.00    -0.303 NA
HETATM    8  H5  UNL     1       1.004  -5.398  -5.968  1.00  0.00     0.124 HD
HETATM    9  H6  UNL     1       0.846  -3.980  -6.866  1.00  0.00     0.124 HD
ENDBRANCH   6   7
BRANCH   3  10
HETATM   10  O1  UNL     1      -4.043  -6.533  -9.188  1.00  0.00    -0.361 OA
HETATM   11  H7  UNL     1      -4.447  -7.245  -8.665  1.00  0.00     0.217 HD
ENDBRANCH   3  10
TORSDOF 2
ENDMDL
MODEL 12
REMARK VINA RESULT:      -4.6      3.661      4.186
REMARK  2 active torsions:
REMARK  status: ('A' for Active; 'I' for Inactive)
REMARK    1  A    between atoms: C3_3  and  O1_8 
REMARK    2  A    between atoms: C6_6  and  N1_7 
ROOT
HETATM    1  C1  UNL     1      -2.871  -5.409  -7.433  1.00  0.00     0.026 A 
HETATM    2  C2  UNL     1      -1.703  -4.986  -6.795  1.00  0.00     0.038 A 
HETATM    3  C3  UNL     1      -0.468  -5.367  -7.297  1.00  0.00     0.065 A 
HETATM    4  C4  UNL     1      -0.381  -6.155  -8.440  1.00  0.00     0.038 A 
HETATM    5  C5  UNL     1      -1.554  -6.576  -9.073  1.00  0.00     0.026 A 
HETATM    6  C6  UNL     1      -2.809  -6.251  -8.548  1.00  0.00     0.005 A 
ENDROOT
BRANCH   6   7
HETATM    7  N1  UNL     1      -3.974  -6.575  -9.253  1.00  0.00    -0.303 NA
HETATM    8  H5  UNL     1      -4.718  -6.938  -8.665  1.00  0.00     0.124 HD
HETATM    9  H6  UNL     1      -3.811  -7.152 -10.071  1.00  0.00     0.124 HD
ENDBRANCH   6   7
BRANCH   3  10
HETATM   10  O1  UNL     1       0.648  -4.931  -6.648  1.00  0.00    -0.361 OA
HETATM   11  H7  UNL     1       1.180  -4.404  -7.265  1.00  0.00     0.217 HD
ENDBRANCH   3  10
TORSDOF 2
ENDMDL
MODEL 13
REMARK VINA RESULT:      -4.6      1.647      2.543
REMARK  2 active torsions:
REMARK  status: ('A' for Active; 'I' for Inactive)
REMARK    1  A    between atoms: C3_3  and  O1_8 
REMARK    2  A    between atoms: C6_6  and  N1_7 
ROOT
HETATM    1  C1  UNL     1      -1.984  -5.167  -7.128  1.00  0.00     0.026 A 
HETATM    2  C2  UNL     1      -2.055  -4.391  -5.969  1.00  0.00     0.038 A 
HETATM    3  C3  UNL     1      -2.346  -3.037  -6.064  1.00  0.00     0.065 A 
HETATM    4  C4  UNL     1      -2.583  -2.449  -7.302  1.00  0.00     0.038 A 
HETATM    5  C5  UNL     1      -2.509  -3.232  -8.458  1.00  0.00     0.026 A 
HETATM    6  C6  UNL     1      -2.160  -4.585  -8.387  1.00  0.00     0.005 A 
ENDROOT
BRANCH   6   7
HETATM    7  N1  UNL     1      -2.205  -5.385  -9.534  1.00  0.00    -0.303 NA
HETATM    8  H5  UNL     1      -3.036  -5.241 -10.100  1.00  0.00     0.124 HD
HETATM    9  H6  UNL     1      -2.024  -6.367  -9.357  1.00  0.00     0.124 HD
ENDBRANCH   6   7
BRANCH   3  10
HETATM   10  O1  UNL     1      -2.409  -2.315  -4.910  1.00  0.00    -0.361 OA
HETATM   11  H7  UNL     1      -2.917  -1.506  -5.079  1.00  0.00     0.217 HD
ENDBRANCH   3  10
TORSDOF 2
ENDMDL
MODEL 14
REMARK VINA RESULT:      -4.6      4.352      4.913
REMARK  2 active torsions:
REMARK  status: ('A' for Active; 'I' for Inactive)
REMARK    1  A    between atoms: C3_3  and  O1_8 
REMARK    2  A    between atoms: C6_6  and  N1_7 
ROOT
HETATM    1  C1  UNL     1      -3.515  -6.738  -9.726  1.00  0.00     0.026 A 
HETATM    2  C2  UNL     1      -3.414  -6.309  -8.401  1.00  0.00     0.038 A 
HETATM    3  C3  UNL     1      -2.163  -6.083  -7.844  1.00  0.00     0.065 A 
HETATM    4  C4  UNL     1      -1.009  -6.265  -8.598  1.00  0.00     0.038 A 
HETATM    5  C5  UNL     1      -1.118  -6.696  -9.924  1.00  0.00     0.026 A 
HETATM    6  C6  UNL     1      -2.366  -6.984 -10.484  1.00  0.00     0.005 A 
ENDROOT
BRANCH   6   7
HETATM    7  N1  UNL     1      -2.472  -7.299 -11.844  1.00  0.00    -0.303 NA
HETATM    8  H5  UNL     1      -2.211  -6.536 -12.461  1.00  0.00     0.124 HD
HETATM    9  H6  UNL     1      -3.361  -7.716 -12.100  1.00  0.00     0.124 HD
ENDBRANCH   6   7
BRANCH   3  10
HETATM   10  O1  UNL     1      -2.107  -5.663  -6.549  1.00  0.00    -0.361 OA
HETATM   11  H7  UNL     1      -2.743  -4.939  -6.431  1.00  0.00     0.217 HD
ENDBRANCH   3  10
TORSDOF 2
ENDMDL
MODEL 15
REMARK VINA RESULT:      -4.6      4.695      5.429
REMARK  2 active torsions:
REMARK  status: ('A' for Active; 'I' for Inactive)
REMARK    1  A    between atoms: C3_3  and  O1_8 
REMARK    2  A    between atoms: C6_6  and  N1_7 
ROOT
HETATM    1  C1  UNL     1      -2.422  -5.727  -7.713  1.00  0.00     0.026 A 
HETATM    2  C2  UNL     1      -3.491  -6.243  -8.448  1.00  0.00     0.038 A 
HETATM    3  C3  UNL     1      -3.247  -6.911  -9.639  1.00  0.00     0.065 A 
HETATM    4  C4  UNL     1      -1.947  -7.086 -10.100  1.00  0.00     0.038 A 
HETATM    5  C5  UNL     1      -0.882  -6.565  -9.360  1.00  0.00     0.026 A 
HETATM    6  C6  UNL     1      -1.111  -5.838  -8.187  1.00  0.00     0.005 A 
ENDROOT
BRANCH   6   7
HETATM    7  N1  UNL     1      -0.036  -5.424  -7.392  1.00  0.00    -0.303 NA
HETATM    8  H5  UNL     1      -0.139  -5.662  -6.411  1.00  0.00     0.124 HD
HETATM    9  H6  UNL     1       0.226  -4.454  -7.530  1.00  0.00     0.124 HD
ENDBRANCH   6   7
BRANCH   3  10
HETATM   10  O1  UNL     1      -4.317  -7.403 -10.326  1.00  0.00    -0.361 OA
HETATM   11  H7  UNL     1      -5.065  -6.797 -10.209  1.00  0.00     0.217 HD
ENDBRANCH   3  10
TORSDOF 2
ENDMDL
MODEL 16
REMARK VINA RESULT:      -4.5      2.320      2.882
REMARK  2 active torsions:
REMARK  status: ('A' for Active; 'I' for Inactive)
REMARK    1  A    between atoms: C3_3  and  O1_8 
REMARK    2  A    between atoms: C6_6  and  N1_7 
ROOT
HETATM    1  C1  UNL     1      -2.478  -0.650  -8.698  1.00  0.00     0.026 A 
HETATM    2  C2  UNL     1      -2.626  -1.946  -9.197  1.00  0.00     0.038 A 
HETATM    3  C3  UNL     1      -2.580  -3.027  -8.328  1.00  0.00     0.065 A 
HETATM    4  C4  UNL     1      -2.404  -2.831  -6.963  1.00  0.00     0.038 A 
HETATM    5  C5  UNL     1      -2.255  -1.531  -6.471  1.00  0.00     0.026 A 
HETATM    6  C6  UNL     1      -2.240  -0.433  -7.337  1.00  0.00     0.005 A 
ENDROOT
BRANCH   6   7
HETATM    7  N1  UNL     1      -2.210   0.869  -6.825  1.00  0.00    -0.303 NA
HETATM    8  H5  UNL     1      -3.128   1.237  -6.594  1.00  0.00     0.124 HD
HETATM    9  H6  UNL     1      -1.663   1.517  -7.381  1.00  0.00     0.124 HD
ENDBRANCH   6   7
BRANCH   3  10
HETATM   10  O1  UNL     1      -2.731  -4.275  -8.854  1.00  0.00    -0.361 OA
HETATM   11  H7  UNL     1      -3.408  -4.239  -9.548  1.00  0.00     0.217 HD
ENDBRANCH   3  10
TORSDOF 2
ENDMDL
MODEL 17
REMARK VINA RESULT:      -4.5      2.197      2.969
REMARK  2 active torsions:
REMARK  status: ('A' for Active; 'I' for Inactive)
REMARK    1  A    between atoms: C3_3  and  O1_8 
REMARK    2  A    between atoms: C6_6  and  N1_7 
ROOT
HETATM    1  C1  UNL     1      -1.945  -1.445  -7.370  1.00  0.00     0.026 A 
HETATM    2  C2  UNL     1      -1.933  -0.200  -6.736  1.00  0.00     0.038 A 
HETATM    3  C3  UNL     1      -2.530   0.891  -7.351  1.00  0.00     0.065 A 
HETATM    4  C4  UNL     1      -3.155   0.753  -8.586  1.00  0.00     0.038 A 
HETATM    5  C5  UNL     1      -3.161  -0.496  -9.215  1.00  0.00     0.026 A 
HETATM    6  C6  UNL     1      -2.514  -1.593  -8.638  1.00  0.00     0.005 A 
ENDROOT
BRANCH   6   7
HETATM    7  N1  UNL     1      -2.629  -2.862  -9.216  1.00  0.00    -0.303 NA
HETATM    8  H5  UNL     1      -3.306  -3.461  -8.755  1.00  0.00     0.124 HD
HETATM    9  H6  UNL     1      -1.739  -3.328  -9.364  1.00  0.00     0.124 HD
ENDBRANCH   6   7
BRANCH   3  10
HETATM   10  O1  UNL     1      -2.499   2.087  -6.700  1.00  0.00    -0.361 OA
HETATM   11  H7  UNL     1      -1.654   2.162  -6.228  1.00  0.00     0.217 HD
ENDBRANCH   3  10
TORSDOF 2
ENDMDL
MODEL 18
REMARK VINA RESULT:      -4.4      2.360      2.997
REMARK  2 active torsions:
REMARK  status: ('A' for Active; 'I' for Inactive)
REMARK    1  A    between atoms: C3_3  and  O1_8 
REMARK    2  A    between atoms: C6_6  and  N1_7 
ROOT
HETATM    1  C1  UNL     1      -3.293   0.076  -9.440  1.00  0.00     0.026 A 
HETATM    2  C2  UNL     1      -3.279   1.196  -8.605  1.00  0.00     0.038 A 
HETATM    3  C3  UNL     1      -2.632   1.132  -7.379  1.00  0.00     0.065 A 
HETATM    4  C4  UNL     1      -1.983  -0.031  -6.981  1.00  0.00     0.038 A 
HETATM    5  C5  UNL     1      -2.002  -1.149  -7.821  1.00  0.00     0.026 A 
HETATM    6  C6  UNL     1      -2.699  -1.123  -9.033  1.00  0.00     0.005 A 
ENDROOT
BRANCH   6   7
HETATM    7  N1  UNL     1      -2.612  -2.203  -9.919  1.00  0.00    -0.303 NA
HETATM    8  H5  UNL     1      -3.505  -2.477 -10.316  1.00  0.00     0.124 HD
HETATM    9  H6  UNL     1      -2.093  -2.994  -9.553  1.00  0.00     0.124 HD
ENDBRANCH   6   7
BRANCH   3  10
HETATM   10  O1  UNL     1      -2.639   2.247  -6.595  1.00  0.00    -0.361 OA
HETATM   11  H7  UNL     1      -2.919   3.003  -7.134  1.00  0.00     0.217 HD
ENDBRANCH   3  10
TORSDOF 2
ENDMDL
MODEL 19
REMARK VINA RESULT:      -4.4      3.236      3.995
REMARK  2 active torsions:
REMARK  status: ('A' for Active; 'I' for Inactive)
REMARK    1  A    between atoms: C3_3  and  O1_8 
REMARK    2  A    between atoms: C6_6  and  N1_7 
ROOT
HETATM    1  C1  UNL     1      -2.943   1.346  -9.021  1.00  0.00     0.026 A 
HETATM    2  C2  UNL     1      -2.853   0.347  -9.993  1.00  0.00     0.038 A 
HETATM    3  C3  UNL     1      -2.488  -0.940  -9.624  1.00  0.00     0.065 A 
HETATM    4  C4  UNL     1      -2.226  -1.248  -8.294  1.00  0.00     0.038 A 
HETATM    5  C5  UNL     1      -2.316  -0.242  -7.327  1.00  0.00     0.026 A 
HETATM    6  C6  UNL     1      -2.625   1.073  -7.687  1.00  0.00     0.005 A 
ENDROOT
BRANCH   6   7
HETATM    7  N1  UNL     1      -2.830   2.045  -6.700  1.00  0.00    -0.303 NA
HETATM    8  H5  UNL     1      -3.809   2.210  -6.488  1.00  0.00     0.124 HD
HETATM    9  H6  UNL     1      -2.319   2.906  -6.860  1.00  0.00     0.124 HD
ENDBRANCH   6   7
BRANCH   3  10
HETATM   10  O1  UNL     1      -2.414  -1.887 -10.601  1.00  0.00    -0.361 OA
HETATM   11  H7  UNL     1      -3.085  -1.690 -11.275  1.00  0.00     0.217 HD
ENDBRANCH   3  10
TORSDOF 2
ENDMDL
MODEL 20
REMARK VINA RESULT:      -4.3      1.157      1.340
REMARK  2 active torsions:
REMARK  status: ('A' for Active; 'I' for Inactive)
REMARK    1  A    between atoms: C3_3  and  O1_8 
REMARK    2  A    between atoms: C6_6  and  N1_7 
ROOT
HETATM    1  C1  UNL     1      -2.441   0.251  -8.606  1.00  0.00     0.026 A 
HETATM    2  C2  UNL     1      -2.313   0.147  -7.219  1.00  0.00     0.038 A 
HETATM    3  C3  UNL     1      -2.276  -1.105  -6.623  1.00  0.00     0.065 A 
HETATM    4  C4  UNL     1      -2.349  -2.259  -7.396  1.00  0.00     0.038 A 
HETATM    5  C5  UNL     1      -2.478  -2.148  -8.784  1.00  0.00     0.026 A 
HETATM    6  C6  UNL     1      -2.576  -0.894  -9.396  1.00  0.00     0.005 A 
ENDROOT
BRANCH   6   7
HETATM    7  N1  UNL     1      -2.585  -0.791 -10.792  1.00  0.00    -0.303 NA
HETATM    8  H5  UNL     1      -2.024  -1.498 -11.257  1.00  0.00     0.124 HD
HETATM    9  H6  UNL     1      -2.391   0.144 -11.136  1.00  0.00     0.124 HD
ENDBRANCH   6   7
BRANCH   3  10
HETATM   10  O1  UNL     1      -2.148  -1.164  -5.268  1.00  0.00    -0.361 OA
HETATM   11  H7  UNL     1      -2.883  -1.688  -4.910  1.00  0.00     0.217 HD
ENDBRANCH   3  10
TORSDOF 2
ENDMDL
