MODEL 1
REMARK VINA RESULT:      -3.9      0.000      0.000
REMARK  2 active torsions:
REMARK  status: ('A' for Active; 'I' for Inactive)
REMARK    1  A    between atoms: C3_3  and  O1_8 
REMARK    2  A    between atoms: C6_6  and  N1_7 
ROOT
HETATM    1  C1  UNL     1      -1.288  -7.166  -9.434  1.00  0.00     0.026 A 
HETATM    2  C2  UNL     1      -0.034  -7.360 -10.018  1.00  0.00     0.038 A 
HETATM    3  C3  UNL     1       0.092  -7.334 -11.400  1.00  0.00     0.065 A 
HETATM    4  C4  UNL     1      -1.015  -7.101 -12.208  1.00  0.00     0.038 A 
HETATM    5  C5  UNL     1      -2.267  -6.910 -11.616  1.00  0.00     0.026 A 
HETATM    6  C6  UNL     1      -2.425  -6.990 -10.229  1.00  0.00     0.005 A 
ENDROOT
BRANCH   6   7
HETATM    7  N1  UNL     1      -3.656  -6.680  -9.640  1.00  0.00    -0.303 NA
HETATM    8  H5  UNL     1      -3.862  -7.228  -8.811  1.00  0.00     0.124 HD
HETATM    9  H6  UNL     1      -4.431  -6.663 -10.295  1.00  0.00     0.124 HD
ENDBRANCH   6   7
BRANCH   3  10
HETATM   10  O1  UNL     1       1.333  -7.525 -11.931  1.00  0.00    -0.361 OA
HETATM   11  H7  UNL     1       1.927  -6.840 -11.585  1.00  0.00     0.217 HD
ENDBRANCH   3  10
TORSDOF 2
ENDMDL
MODEL 2
REMARK VINA RESULT:      -3.9      0.076      1.705
REMARK  2 active torsions:
REMARK  status: ('A' for Active; 'I' for Inactive)
REMARK    1  A    between atoms: C3_3  and  O1_8 
REMARK    2  A    between atoms: C6_6  and  N1_7 
ROOT
HETATM    1  C1  UNL     1      -2.209  -6.906 -11.639  1.00  0.00     0.026 A 
HETATM    2  C2  UNL     1      -0.948  -7.124 -12.198  1.00  0.00     0.038 A 
HETATM    3  C3  UNL     1       0.144  -7.339 -11.369  1.00  0.00     0.065 A 
HETATM    4  C4  UNL     1      -0.009  -7.355  -9.987  1.00  0.00     0.038 A 
HETATM    5  C5  UNL     1      -1.274  -7.134  -9.434  1.00  0.00     0.026 A 
HETATM    6  C6  UNL     1      -2.375  -6.858 -10.251  1.00  0.00     0.005 A 
ENDROOT
BRANCH   6   7
HETATM    7  N1  UNL     1      -3.656  -6.757  -9.697  1.00  0.00    -0.303 NA
HETATM    8  H5  UNL     1      -3.683  -6.934  -8.697  1.00  0.00     0.124 HD
HETATM    9  H6  UNL     1      -4.364  -7.280 -10.201  1.00  0.00     0.124 HD
ENDBRANCH   6   7
BRANCH   3  10
HETATM   10  O1  UNL     1       1.356  -7.551 -11.953  1.00  0.00    -0.361 OA
HETATM   11  H7  UNL     1       2.049  -7.225 -11.356  1.00  0.00     0.217 HD
ENDBRANCH   3  10
TORSDOF 2
ENDMDL
MODEL 3
REMARK VINA RESULT:      -3.8      2.778      3.263
REMARK  2 active torsions:
REMARK  status: ('A' for Active; 'I' for Inactive)
REMARK    1  A    between atoms: C3_3  and  O1_8 
REMARK    2  A    between atoms: C6_6  and  N1_7 
ROOT
HETATM    1  C1  UNL     1      -0.052  -7.318  -9.979  1.00  0.00     0.026 A 
HETATM    2  C2  UNL     1      -1.315  -7.121  -9.416  1.00  0.00     0.038 A 
HETATM    3  C3  UNL     1      -2.414  -6.928 -10.241  1.00  0.00     0.065 A 
HETATM    4  C4  UNL     1      -2.271  -6.944 -11.624  1.00  0.00     0.038 A 
HETATM    5  C5  UNL     1      -1.004  -7.140 -12.181  1.00  0.00     0.026 A 
HETATM    6  C6  UNL     1       0.124  -7.278 -11.365  1.00  0.00     0.005 A 
ENDROOT
BRANCH   6   7
HETATM    7  N1  UNL     1       1.366  -7.592 -11.928  1.00  0.00    -0.303 NA
HETATM    8  H5  UNL     1       1.613  -8.574 -11.850  1.00  0.00     0.124 HD
HETATM    9  H6  UNL     1       2.118  -6.980 -11.630  1.00  0.00     0.124 HD
ENDBRANCH   6   7
BRANCH   3  10
HETATM   10  O1  UNL     1      -3.629  -6.742  -9.654  1.00  0.00    -0.361 OA
HETATM   11  H7  UNL     1      -3.978  -7.607  -9.384  1.00  0.00     0.217 HD
ENDBRANCH   3  10
TORSDOF 2
ENDMDL
MODEL 4
REMARK VINA RESULT:      -3.8      2.778      3.681
REMARK  2 active torsions:
REMARK  status: ('A' for Active; 'I' for Inactive)
REMARK    1  A    between atoms: C3_3  and  O1_8 
REMARK    2  A    between atoms: C6_6  and  N1_7 
ROOT
HETATM    1  C1  UNL     1      -0.990  -7.114 -12.189  1.00  0.00     0.026 A 
HETATM    2  C2  UNL     1      -2.240  -6.903 -11.603  1.00  0.00     0.038 A 
HETATM    3  C3  UNL     1      -2.362  -6.917 -10.221  1.00  0.00     0.065 A 
HETATM    4  C4  UNL     1      -1.249  -7.121  -9.414  1.00  0.00     0.038 A 
HETATM    5  C5  UNL     1      -0.001  -7.333 -10.008  1.00  0.00     0.026 A 
HETATM    6  C6  UNL     1       0.132  -7.381 -11.399  1.00  0.00     0.005 A 
ENDROOT
BRANCH   6   7
HETATM    7  N1  UNL     1       1.400  -7.474 -11.983  1.00  0.00    -0.303 NA
HETATM    8  H5  UNL     1       1.501  -6.921 -12.829  1.00  0.00     0.124 HD
HETATM    9  H6  UNL     1       1.728  -8.426 -12.103  1.00  0.00     0.124 HD
ENDBRANCH   6   7
BRANCH   3  10
HETATM   10  O1  UNL     1      -3.598  -6.705  -9.687  1.00  0.00    -0.361 OA
HETATM   11  H7  UNL     1      -3.611  -5.826  -9.275  1.00  0.00     0.217 HD
ENDBRANCH   3  10
TORSDOF 2
ENDMDL
MODEL 5
REMARK VINA RESULT:      -3.5      2.326      3.017
REMARK  2 active torsions:
REMARK  status: ('A' for Active; 'I' for Inactive)
REMARK    1  A    between atoms: C3_3  and  O1_8 
REMARK    2  A    between atoms: C6_6  and  N1_7 
ROOT
HETATM    1  C1  UNL     1      -2.741  -7.099 -11.781  1.00  0.00     0.026 A 
HETATM    2  C2  UNL     1      -2.615  -7.364 -10.415  1.00  0.00     0.038 A 
HETATM    3  C3  UNL     1      -1.371  -7.270  -9.809  1.00  0.00     0.065 A 
HETATM    4  C4  UNL     1      -0.251  -6.898 -10.544  1.00  0.00     0.038 A 
HETATM    5  C5  UNL     1      -0.385  -6.635 -11.911  1.00  0.00     0.026 A 
HETATM    6  C6  UNL     1      -1.619  -6.782 -12.552  1.00  0.00     0.005 A 
ENDROOT
BRANCH   6   7
HETATM    7  N1  UNL     1      -1.767  -6.402 -13.891  1.00  0.00    -0.303 NA
HETATM    8  H5  UNL     1      -1.133  -6.880 -14.523  1.00  0.00     0.124 HD
HETATM    9  H6  UNL     1      -1.772  -5.398 -14.035  1.00  0.00     0.124 HD
ENDBRANCH   6   7
BRANCH   3  10
HETATM   10  O1  UNL     1      -1.289  -7.534  -8.474  1.00  0.00    -0.361 OA
HETATM   11  H7  UNL     1      -0.806  -8.367  -8.352  1.00  0.00     0.217 HD
ENDBRANCH   3  10
TORSDOF 2
ENDMDL
MODEL 6
REMARK VINA RESULT:      -3.1      1.766      2.219
REMARK  2 active torsions:
REMARK  status: ('A' for Active; 'I' for Inactive)
REMARK    1  A    between atoms: C3_3  and  O1_8 
REMARK    2  A    between atoms: C6_6  and  N1_7 
ROOT
HETATM    1  C1  UNL     1      -0.241  -6.894 -10.683  1.00  0.00     0.026 A 
HETATM    2  C2  UNL     1      -0.324  -6.569 -12.039  1.00  0.00     0.038 A 
HETATM    3  C3  UNL     1      -1.544  -6.658 -12.694  1.00  0.00     0.065 A 
HETATM    4  C4  UNL     1      -2.688  -7.052 -12.009  1.00  0.00     0.038 A 
HETATM    5  C5  UNL     1      -2.597  -7.378 -10.653  1.00  0.00     0.026 A 
HETATM    6  C6  UNL     1      -1.366  -7.351  -9.990  1.00  0.00     0.005 A 
ENDROOT
BRANCH   6   7
HETATM    7  N1  UNL     1      -1.305  -7.562  -8.608  1.00  0.00    -0.303 NA
HETATM    8  H5  UNL     1      -2.182  -7.877  -8.204  1.00  0.00     0.124 HD
HETATM    9  H6  UNL     1      -0.899  -6.788  -8.092  1.00  0.00     0.124 HD
ENDBRANCH   6   7
BRANCH   3  10
HETATM   10  O1  UNL     1      -1.584  -6.329 -14.016  1.00  0.00    -0.361 OA
HETATM   11  H7  UNL     1      -0.674  -6.238 -14.340  1.00  0.00     0.217 HD
ENDBRANCH   3  10
TORSDOF 2
ENDMDL
MODEL 7
REMARK VINA RESULT:      -3.1      1.779      2.448
REMARK  2 active torsions:
REMARK  status: ('A' for Active; 'I' for Inactive)
REMARK    1  A    between atoms: C3_3  and  O1_8 
REMARK    2  A    between atoms: C6_6  and  N1_7 
ROOT
HETATM    1  C1  UNL     1      -2.604  -7.367 -10.640  1.00  0.00     0.026 A 
HETATM    2  C2  UNL     1      -2.678  -7.079 -12.005  1.00  0.00     0.038 A 
HETATM    3  C3  UNL     1      -1.542  -6.659 -12.682  1.00  0.00     0.065 A 
HETATM    4  C4  UNL     1      -0.326  -6.538 -12.018  1.00  0.00     0.038 A 
HETATM    5  C5  UNL     1      -0.260  -6.827 -10.652  1.00  0.00     0.026 A 
HETATM    6  C6  UNL     1      -1.406  -7.195  -9.940  1.00  0.00     0.005 A 
ENDROOT
BRANCH   6   7
HETATM    7  N1  UNL     1      -1.306  -7.596  -8.603  1.00  0.00    -0.303 NA
HETATM    8  H5  UNL     1      -0.852  -8.496  -8.480  1.00  0.00     0.124 HD
HETATM    9  H6  UNL     1      -2.179  -7.531  -8.089  1.00  0.00     0.124 HD
ENDBRANCH   6   7
BRANCH   3  10
HETATM   10  O1  UNL     1      -1.655  -6.391 -14.013  1.00  0.00    -0.361 OA
HETATM   11  H7  UNL     1      -0.764  -6.319 -14.392  1.00  0.00     0.217 HD
ENDBRANCH   3  10
TORSDOF 2
ENDMDL
MODEL 8
REMARK VINA RESULT:      -0.9      1.481      2.455
REMARK  2 active torsions:
REMARK  status: ('A' for Active; 'I' for Inactive)
REMARK    1  A    between atoms: C3_3  and  O1_8 
REMARK    2  A    between atoms: C6_6  and  N1_7 
ROOT
HETATM    1  C1  UNL     1      -4.036  -7.449 -10.627  1.00  0.00     0.026 A 
HETATM    2  C2  UNL     1      -3.002  -7.379 -11.563  1.00  0.00     0.038 A 
HETATM    3  C3  UNL     1      -1.721  -7.040 -11.148  1.00  0.00     0.065 A 
HETATM    4  C4  UNL     1      -1.455  -6.787  -9.807  1.00  0.00     0.038 A 
HETATM    5  C5  UNL     1      -2.496  -6.858  -8.877  1.00  0.00     0.026 A 
HETATM    6  C6  UNL     1      -3.804  -7.140  -9.284  1.00  0.00     0.005 A 
ENDROOT
BRANCH   6   7
HETATM    7  N1  UNL     1      -4.814  -7.326  -8.332  1.00  0.00    -0.303 NA
HETATM    8  H5  UNL     1      -5.588  -6.676  -8.427  1.00  0.00     0.124 HD
HETATM    9  H6  UNL     1      -4.473  -7.384  -7.379  1.00  0.00     0.124 HD
ENDBRANCH   6   7
BRANCH   3  10
HETATM   10  O1  UNL     1      -0.739  -6.985 -12.091  1.00  0.00    -0.361 OA
HETATM   11  H7  UNL     1      -0.242  -7.819 -12.070  1.00  0.00     0.217 HD
ENDBRANCH   3  10
TORSDOF 2
ENDMDL
