MODEL 1
REMARK VINA RESULT:      -3.6      0.000      0.000
REMARK  2 active torsions:
REMARK  status: ('A' for Active; 'I' for Inactive)
REMARK    1  A    between atoms: C3_3  and  O1_10 
REMARK    2  A    between atoms: C6_6  and  N1_7 
ROOT
HETATM    1  C1  PAP L   1     -21.269   1.041  16.472  1.00  0.00     0.026 A 
HETATM    2  C2  PAP L   1     -21.728   0.760  17.762  1.00  0.00     0.038 A 
HETATM    3  C3  PAP L   1     -22.222  -0.503  18.057  1.00  0.00     0.065 A 
HETATM    4  C4  PAP L   1     -22.250  -1.497  17.085  1.00  0.00     0.038 A 
HETATM    5  C5  PAP L   1     -21.790  -1.209  15.796  1.00  0.00     0.026 A 
HETATM    6  C6  PAP L   1     -21.343   0.074  15.465  1.00  0.00     0.005 A 
ENDROOT
BRANCH   6   7
HETATM    7  N1  PAP L   1     -20.775   0.320  14.209  1.00  0.00    -0.303 NA
HETATM    8  H5  PAP L   1     -20.789  -0.484  13.591  1.00  0.00     0.124 HD
HETATM    9  H6  PAP L   1     -19.861   0.758  14.252  1.00  0.00     0.124 HD
ENDBRANCH   6   7
BRANCH   3  10
HETATM   10  O1  PAP L   1     -22.658  -0.738  19.326  1.00  0.00    -0.361 OA
HETATM   11  H7  PAP L   1     -23.463  -1.279  19.283  1.00  0.00     0.217 HD
ENDBRANCH   3  10
TORSDOF 2
ENDMDL
MODEL 2
REMARK VINA RESULT:      -3.4      2.793      3.673
REMARK  2 active torsions:
REMARK  status: ('A' for Active; 'I' for Inactive)
REMARK    1  A    between atoms: C3_3  and  O1_10 
REMARK    2  A    between atoms: C6_6  and  N1_7 
ROOT
HETATM    1  C1  PAP L   1     -22.107  -1.408  16.795  1.00  0.00     0.026 A 
HETATM    2  C2  PAP L   1     -21.850  -0.904  15.517  1.00  0.00     0.038 A 
HETATM    3  C3  PAP L   1     -21.754   0.467  15.325  1.00  0.00     0.065 A 
HETATM    4  C4  PAP L   1     -21.896   1.344  16.395  1.00  0.00     0.038 A 
HETATM    5  C5  PAP L   1     -22.154   0.833  17.670  1.00  0.00     0.026 A 
HETATM    6  C6  PAP L   1     -22.313  -0.542  17.873  1.00  0.00     0.005 A 
ENDROOT
BRANCH   6   7
HETATM    7  N1  PAP L   1     -22.452  -1.051  19.170  1.00  0.00    -0.303 NA
HETATM    8  H5  PAP L   1     -21.585  -1.396  19.567  1.00  0.00     0.124 HD
HETATM    9  H6  PAP L   1     -23.214  -1.713  19.271  1.00  0.00     0.124 HD
ENDBRANCH   6   7
BRANCH   3  10
HETATM   10  O1  PAP L   1     -21.499   0.919  14.065  1.00  0.00    -0.361 OA
HETATM   11  H7  PAP L   1     -21.071   0.208  13.561  1.00  0.00     0.217 HD
ENDBRANCH   3  10
TORSDOF 2
ENDMDL
MODEL 3
REMARK VINA RESULT:      -3.3      3.895      4.685
REMARK  2 active torsions:
REMARK  status: ('A' for Active; 'I' for Inactive)
REMARK    1  A    between atoms: C3_3  and  O1_10 
REMARK    2  A    between atoms: C6_6  and  N1_7 
ROOT
HETATM    1  C1  PAP L   1     -21.164  -3.135  20.774  1.00  0.00     0.026 A 
HETATM    2  C2  PAP L   1     -21.390  -1.796  20.444  1.00  0.00     0.038 A 
HETATM    3  C3  PAP L   1     -21.801  -1.464  19.160  1.00  0.00     0.065 A 
HETATM    4  C4  PAP L   1     -22.005  -2.453  18.204  1.00  0.00     0.038 A 
HETATM    5  C5  PAP L   1     -21.776  -3.790  18.541  1.00  0.00     0.026 A 
HETATM    6  C6  PAP L   1     -21.305  -4.139  19.812  1.00  0.00     0.005 A 
ENDROOT
BRANCH   6   7
HETATM    7  N1  PAP L   1     -21.194  -5.486  20.176  1.00  0.00    -0.303 NA
HETATM    8  H5  PAP L   1     -21.577  -5.693  21.092  1.00  0.00     0.124 HD
HETATM    9  H6  PAP L   1     -20.263  -5.869  20.052  1.00  0.00     0.124 HD
ENDBRANCH   6   7
BRANCH   3  10
HETATM   10  O1  PAP L   1     -22.013  -0.148  18.878  1.00  0.00    -0.361 OA
HETATM   11  H7  PAP L   1     -22.446  -0.082  18.012  1.00  0.00     0.217 HD
ENDBRANCH   3  10
TORSDOF 2
ENDMDL
MODEL 4
REMARK VINA RESULT:      -3.3      7.279      8.237
REMARK  2 active torsions:
REMARK  status: ('A' for Active; 'I' for Inactive)
REMARK    1  A    between atoms: C3_3  and  O1_10 
REMARK    2  A    between atoms: C6_6  and  N1_7 
ROOT
HETATM    1  C1  PAP L   1     -21.398   3.917  11.838  1.00  0.00     0.026 A 
HETATM    2  C2  PAP L   1     -22.099   4.960  11.226  1.00  0.00     0.038 A 
HETATM    3  C3  PAP L   1     -21.812   5.303   9.912  1.00  0.00     0.065 A 
HETATM    4  C4  PAP L   1     -20.845   4.608   9.193  1.00  0.00     0.038 A 
HETATM    5  C5  PAP L   1     -20.147   3.567   9.812  1.00  0.00     0.026 A 
HETATM    6  C6  PAP L   1     -20.381   3.245  11.154  1.00  0.00     0.005 A 
ENDROOT
BRANCH   6   7
HETATM    7  N1  PAP L   1     -19.765   2.127  11.727  1.00  0.00    -0.303 NA
HETATM    8  H5  PAP L   1     -18.783   2.266  11.940  1.00  0.00     0.124 HD
HETATM    9  H6  PAP L   1     -19.932   1.262  11.222  1.00  0.00     0.124 HD
ENDBRANCH   6   7
BRANCH   3  10
HETATM   10  O1  PAP L   1     -22.518   6.324   9.350  1.00  0.00    -0.361 OA
HETATM   11  H7  PAP L   1     -23.340   6.445   9.851  1.00  0.00     0.217 HD
ENDBRANCH   3  10
TORSDOF 2
ENDMDL
MODEL 5
REMARK VINA RESULT:      -3.3      3.272      4.206
REMARK  2 active torsions:
REMARK  status: ('A' for Active; 'I' for Inactive)
REMARK    1  A    between atoms: C3_3  and  O1_10 
REMARK    2  A    between atoms: C6_6  and  N1_7 
ROOT
HETATM    1  C1  PAP L   1     -21.845   0.143  16.038  1.00  0.00     0.026 A 
HETATM    2  C2  PAP L   1     -21.240   0.142  14.778  1.00  0.00     0.038 A 
HETATM    3  C3  PAP L   1     -21.208   1.310  14.030  1.00  0.00     0.065 A 
HETATM    4  C4  PAP L   1     -21.758   2.487  14.528  1.00  0.00     0.038 A 
HETATM    5  C5  PAP L   1     -22.362   2.480  15.789  1.00  0.00     0.026 A 
HETATM    6  C6  PAP L   1     -22.456   1.299  16.533  1.00  0.00     0.005 A 
ENDROOT
BRANCH   6   7
HETATM    7  N1  PAP L   1     -22.954   1.328  17.841  1.00  0.00    -0.303 NA
HETATM    8  H5  PAP L   1     -22.432   0.748  18.489  1.00  0.00     0.124 HD
HETATM    9  H6  PAP L   1     -23.955   1.172  17.902  1.00  0.00     0.124 HD
ENDBRANCH   6   7
BRANCH   3  10
HETATM   10  O1  PAP L   1     -20.608   1.269  12.808  1.00  0.00    -0.361 OA
HETATM   11  H7  PAP L   1     -19.975   0.534  12.797  1.00  0.00     0.217 HD
ENDBRANCH   3  10
TORSDOF 2
ENDMDL
MODEL 6
REMARK VINA RESULT:      -3.3      1.848      2.776
REMARK  2 active torsions:
REMARK  status: ('A' for Active; 'I' for Inactive)
REMARK    1  A    between atoms: C3_3  and  O1_10 
REMARK    2  A    between atoms: C6_6  and  N1_7 
ROOT
HETATM    1  C1  PAP L   1     -21.268   0.246  14.730  1.00  0.00     0.026 A 
HETATM    2  C2  PAP L   1     -21.903   0.206  15.974  1.00  0.00     0.038 A 
HETATM    3  C3  PAP L   1     -22.450   1.366  16.505  1.00  0.00     0.065 A 
HETATM    4  C4  PAP L   1     -22.385   2.565  15.804  1.00  0.00     0.038 A 
HETATM    5  C5  PAP L   1     -21.747   2.598  14.560  1.00  0.00     0.026 A 
HETATM    6  C6  PAP L   1     -21.140   1.453  14.035  1.00  0.00     0.005 A 
ENDROOT
BRANCH   6   7
HETATM    7  N1  PAP L   1     -20.610   1.467  12.740  1.00  0.00    -0.303 NA
HETATM    8  H5  PAP L   1     -20.866   2.290  12.204  1.00  0.00     0.124 HD
HETATM    9  H6  PAP L   1     -20.765   0.607  12.224  1.00  0.00     0.124 HD
ENDBRANCH   6   7
BRANCH   3  10
HETATM   10  O1  PAP L   1     -23.062   1.286  17.720  1.00  0.00    -0.361 OA
HETATM   11  H7  PAP L   1     -23.721   0.574  17.688  1.00  0.00     0.217 HD
ENDBRANCH   3  10
TORSDOF 2
ENDMDL
MODEL 7
REMARK VINA RESULT:      -3.3      1.887      2.336
REMARK  2 active torsions:
REMARK  status: ('A' for Active; 'I' for Inactive)
REMARK    1  A    between atoms: C3_3  and  O1_10 
REMARK    2  A    between atoms: C6_6  and  N1_7 
ROOT
HETATM    1  C1  PAP L   1     -21.728   2.603  14.502  1.00  0.00     0.026 A 
HETATM    2  C2  PAP L   1     -22.342   2.578  15.757  1.00  0.00     0.038 A 
HETATM    3  C3  PAP L   1     -22.433   1.382  16.455  1.00  0.00     0.065 A 
HETATM    4  C4  PAP L   1     -21.904   0.210  15.925  1.00  0.00     0.038 A 
HETATM    5  C5  PAP L   1     -21.292   0.243  14.668  1.00  0.00     0.026 A 
HETATM    6  C6  PAP L   1     -21.243   1.426  13.924  1.00  0.00     0.005 A 
ENDROOT
BRANCH   6   7
HETATM    7  N1  PAP L   1     -20.525   1.475  12.723  1.00  0.00    -0.303 NA
HETATM    8  H5  PAP L   1     -20.927   2.101  12.033  1.00  0.00     0.124 HD
HETATM    9  H6  PAP L   1     -20.310   0.562  12.337  1.00  0.00     0.124 HD
ENDBRANCH   6   7
BRANCH   3  10
HETATM   10  O1  PAP L   1     -23.036   1.399  17.676  1.00  0.00    -0.361 OA
HETATM   11  H7  PAP L   1     -23.632   2.164  17.717  1.00  0.00     0.217 HD
ENDBRANCH   3  10
TORSDOF 2
ENDMDL
MODEL 8
REMARK VINA RESULT:      -3.3      3.341      3.997
REMARK  2 active torsions:
REMARK  status: ('A' for Active; 'I' for Inactive)
REMARK    1  A    between atoms: C3_3  and  O1_10 
REMARK    2  A    between atoms: C6_6  and  N1_7 
ROOT
HETATM    1  C1  PAP L   1     -22.322   2.672  15.614  1.00  0.00     0.026 A 
HETATM    2  C2  PAP L   1     -21.681   2.577  14.375  1.00  0.00     0.038 A 
HETATM    3  C3  PAP L   1     -21.176   1.355  13.954  1.00  0.00     0.065 A 
HETATM    4  C4  PAP L   1     -21.314   0.220  14.746  1.00  0.00     0.038 A 
HETATM    5  C5  PAP L   1     -21.955   0.323  15.984  1.00  0.00     0.026 A 
HETATM    6  C6  PAP L   1     -22.419   1.557  16.452  1.00  0.00     0.005 A 
ENDROOT
BRANCH   6   7
HETATM    7  N1  PAP L   1     -23.163   1.627  17.635  1.00  0.00    -0.303 NA
HETATM    8  H5  PAP L   1     -24.028   1.097  17.605  1.00  0.00     0.124 HD
HETATM    9  H6  PAP L   1     -23.302   2.572  17.977  1.00  0.00     0.124 HD
ENDBRANCH   6   7
BRANCH   3  10
HETATM   10  O1  PAP L   1     -20.560   1.303  12.740  1.00  0.00    -0.361 OA
HETATM   11  H7  PAP L   1     -20.853   2.063  12.211  1.00  0.00     0.217 HD
ENDBRANCH   3  10
TORSDOF 2
ENDMDL
MODEL 9
REMARK VINA RESULT:      -3.2      3.130      3.958
REMARK  2 active torsions:
REMARK  status: ('A' for Active; 'I' for Inactive)
REMARK    1  A    between atoms: C3_3  and  O1_10 
REMARK    2  A    between atoms: C6_6  and  N1_7 
ROOT
HETATM    1  C1  PAP L   1     -22.717   1.849  16.106  1.00  0.00     0.026 A 
HETATM    2  C2  PAP L   1     -21.931   0.725  15.838  1.00  0.00     0.038 A 
HETATM    3  C3  PAP L   1     -21.048   0.743  14.768  1.00  0.00     0.065 A 
HETATM    4  C4  PAP L   1     -20.925   1.875  13.969  1.00  0.00     0.038 A 
HETATM    5  C5  PAP L   1     -21.715   2.996  14.243  1.00  0.00     0.026 A 
HETATM    6  C6  PAP L   1     -22.653   2.975  15.281  1.00  0.00     0.005 A 
ENDROOT
BRANCH   6   7
HETATM    7  N1  PAP L   1     -23.352   4.139  15.622  1.00  0.00    -0.303 NA
HETATM    8  H5  PAP L   1     -24.197   3.966  16.155  1.00  0.00     0.124 HD
HETATM    9  H6  PAP L   1     -23.510   4.766  14.840  1.00  0.00     0.124 HD
ENDBRANCH   6   7
BRANCH   3  10
HETATM   10  O1  PAP L   1     -20.298  -0.371  14.540  1.00  0.00    -0.361 OA
HETATM   11  H7  PAP L   1     -19.363  -0.114  14.501  1.00  0.00     0.217 HD
ENDBRANCH   3  10
TORSDOF 2
ENDMDL
MODEL 10
REMARK VINA RESULT:      -3.2      3.060      3.781
REMARK  2 active torsions:
REMARK  status: ('A' for Active; 'I' for Inactive)
REMARK    1  A    between atoms: C3_3  and  O1_10 
REMARK    2  A    between atoms: C6_6  and  N1_7 
ROOT
HETATM    1  C1  PAP L   1     -20.955   1.988  13.882  1.00  0.00     0.026 A 
HETATM    2  C2  PAP L   1     -21.679   3.165  14.086  1.00  0.00     0.038 A 
HETATM    3  C3  PAP L   1     -22.594   3.237  15.128  1.00  0.00     0.065 A 
HETATM    4  C4  PAP L   1     -22.784   2.155  15.980  1.00  0.00     0.038 A 
HETATM    5  C5  PAP L   1     -22.056   0.980  15.769  1.00  0.00     0.026 A 
HETATM    6  C6  PAP L   1     -21.173   0.868  14.690  1.00  0.00     0.005 A 
ENDROOT
BRANCH   6   7
HETATM    7  N1  PAP L   1     -20.363  -0.266  14.557  1.00  0.00    -0.303 NA
HETATM    8  H5  PAP L   1     -19.521  -0.233  15.122  1.00  0.00     0.124 HD
HETATM    9  H6  PAP L   1     -20.173  -0.524  13.595  1.00  0.00     0.124 HD
ENDBRANCH   6   7
BRANCH   3  10
HETATM   10  O1  PAP L   1     -23.279   4.403  15.296  1.00  0.00    -0.361 OA
HETATM   11  H7  PAP L   1     -22.707   5.036  15.759  1.00  0.00     0.217 HD
ENDBRANCH   3  10
TORSDOF 2
ENDMDL
MODEL 11
REMARK VINA RESULT:      -3.1     13.522     13.876
REMARK  2 active torsions:
REMARK  status: ('A' for Active; 'I' for Inactive)
REMARK    1  A    between atoms: C3_3  and  O1_10 
REMARK    2  A    between atoms: C6_6  and  N1_7 
ROOT
HETATM    1  C1  PAP L   1     -34.078  -1.325  15.047  1.00  0.00     0.026 A 
HETATM    2  C2  PAP L   1     -35.111  -2.015  15.688  1.00  0.00     0.038 A 
HETATM    3  C3  PAP L   1     -36.314  -2.221  15.027  1.00  0.00     0.065 A 
HETATM    4  C4  PAP L   1     -36.497  -1.761  13.728  1.00  0.00     0.038 A 
HETATM    5  C5  PAP L   1     -35.459  -1.070  13.093  1.00  0.00     0.026 A 
HETATM    6  C6  PAP L   1     -34.261  -0.802  13.763  1.00  0.00     0.005 A 
ENDROOT
BRANCH   6   7
HETATM    7  N1  PAP L   1     -33.188  -0.217  13.081  1.00  0.00    -0.303 NA
HETATM    8  H5  PAP L   1     -33.409   0.683  12.670  1.00  0.00     0.124 HD
HETATM    9  H6  PAP L   1     -32.732  -0.841  12.423  1.00  0.00     0.124 HD
ENDBRANCH   6   7
BRANCH   3  10
HETATM   10  O1  PAP L   1     -37.295  -2.900  15.685  1.00  0.00    -0.361 OA
HETATM   11  H7  PAP L   1     -38.148  -2.691  15.271  1.00  0.00     0.217 HD
ENDBRANCH   3  10
TORSDOF 2
ENDMDL
MODEL 12
REMARK VINA RESULT:      -3.1     14.239     14.788
REMARK  2 active torsions:
REMARK  status: ('A' for Active; 'I' for Inactive)
REMARK    1  A    between atoms: C3_3  and  O1_10 
REMARK    2  A    between atoms: C6_6  and  N1_7 
ROOT
HETATM    1  C1  PAP L   1     -35.776  -2.950  17.438  1.00  0.00     0.026 A 
HETATM    2  C2  PAP L   1     -35.215  -3.044  18.715  1.00  0.00     0.038 A 
HETATM    3  C3  PAP L   1     -35.344  -4.222  19.437  1.00  0.00     0.065 A 
HETATM    4  C4  PAP L   1     -36.012  -5.315  18.896  1.00  0.00     0.038 A 
HETATM    5  C5  PAP L   1     -36.570  -5.213  17.618  1.00  0.00     0.026 A 
HETATM    6  C6  PAP L   1     -36.502  -4.016  16.898  1.00  0.00     0.005 A 
ENDROOT
BRANCH   6   7
HETATM    7  N1  PAP L   1     -36.958  -3.961  15.576  1.00  0.00    -0.303 NA
HETATM    8  H5  PAP L   1     -37.814  -3.429  15.462  1.00  0.00     0.124 HD
HETATM    9  H6  PAP L   1     -37.001  -4.866  15.120  1.00  0.00     0.124 HD
ENDBRANCH   6   7
BRANCH   3  10
HETATM   10  O1  PAP L   1     -34.783  -4.275  20.677  1.00  0.00    -0.361 OA
HETATM   11  H7  PAP L   1     -35.096  -3.514  21.192  1.00  0.00     0.217 HD
ENDBRANCH   3  10
TORSDOF 2
ENDMDL
MODEL 13
REMARK VINA RESULT:      -3.0      3.025      3.582
REMARK  2 active torsions:
REMARK  status: ('A' for Active; 'I' for Inactive)
REMARK    1  A    between atoms: C3_3  and  O1_10 
REMARK    2  A    between atoms: C6_6  and  N1_7 
ROOT
HETATM    1  C1  PAP L   1     -22.507   1.306  16.884  1.00  0.00     0.026 A 
HETATM    2  C2  PAP L   1     -22.359   2.313  15.926  1.00  0.00     0.038 A 
HETATM    3  C3  PAP L   1     -21.738   2.028  14.718  1.00  0.00     0.065 A 
HETATM    4  C4  PAP L   1     -21.276   0.745  14.445  1.00  0.00     0.038 A 
HETATM    5  C5  PAP L   1     -21.426  -0.258  15.408  1.00  0.00     0.026 A 
HETATM    6  C6  PAP L   1     -21.996   0.025  16.654  1.00  0.00     0.005 A 
ENDROOT
BRANCH   6   7
HETATM    7  N1  PAP L   1     -22.251  -1.009  17.562  1.00  0.00    -0.303 NA
HETATM    8  H5  PAP L   1     -22.557  -1.871  17.124  1.00  0.00     0.124 HD
HETATM    9  H6  PAP L   1     -22.848  -0.737  18.337  1.00  0.00     0.124 HD
ENDBRANCH   6   7
BRANCH   3  10
HETATM   10  O1  PAP L   1     -21.615   3.036  13.810  1.00  0.00    -0.361 OA
HETATM   11  H7  PAP L   1     -22.327   2.953  13.156  1.00  0.00     0.217 HD
ENDBRANCH   3  10
TORSDOF 2
ENDMDL
MODEL 14
REMARK VINA RESULT:      -3.0     13.504     14.045
REMARK  2 active torsions:
REMARK  status: ('A' for Active; 'I' for Inactive)
REMARK    1  A    between atoms: C3_3  and  O1_10 
REMARK    2  A    between atoms: C6_6  and  N1_7 
ROOT
HETATM    1  C1  PAP L   1     -34.929  -2.610  18.471  1.00  0.00     0.026 A 
HETATM    2  C2  PAP L   1     -34.073  -1.957  17.580  1.00  0.00     0.038 A 
HETATM    3  C3  PAP L   1     -34.341  -1.990  16.219  1.00  0.00     0.065 A 
HETATM    4  C4  PAP L   1     -35.463  -2.654  15.734  1.00  0.00     0.038 A 
HETATM    5  C5  PAP L   1     -36.315  -3.306  16.631  1.00  0.00     0.026 A 
HETATM    6  C6  PAP L   1     -36.029  -3.333  18.000  1.00  0.00     0.005 A 
ENDROOT
BRANCH   6   7
HETATM    7  N1  PAP L   1     -36.948  -3.884  18.901  1.00  0.00    -0.303 NA
HETATM    8  H5  PAP L   1     -37.606  -3.209  19.276  1.00  0.00     0.124 HD
HETATM    9  H6  PAP L   1     -36.522  -4.452  19.626  1.00  0.00     0.124 HD
ENDBRANCH   6   7
BRANCH   3  10
HETATM   10  O1  PAP L   1     -33.484  -1.340  15.383  1.00  0.00    -0.361 OA
HETATM   11  H7  PAP L   1     -33.856  -0.468  15.175  1.00  0.00     0.217 HD
ENDBRANCH   3  10
TORSDOF 2
ENDMDL
MODEL 15
REMARK VINA RESULT:      -3.0     13.295     13.758
REMARK  2 active torsions:
REMARK  status: ('A' for Active; 'I' for Inactive)
REMARK    1  A    between atoms: C3_3  and  O1_10 
REMARK    2  A    between atoms: C6_6  and  N1_7 
ROOT
HETATM    1  C1  PAP L   1     -34.115  -2.019  17.680  1.00  0.00     0.026 A 
HETATM    2  C2  PAP L   1     -34.925  -2.693  18.598  1.00  0.00     0.038 A 
HETATM    3  C3  PAP L   1     -36.056  -3.363  18.153  1.00  0.00     0.065 A 
HETATM    4  C4  PAP L   1     -36.382  -3.385  16.802  1.00  0.00     0.038 A 
HETATM    5  C5  PAP L   1     -35.567  -2.708  15.889  1.00  0.00     0.026 A 
HETATM    6  C6  PAP L   1     -34.456  -1.977  16.325  1.00  0.00     0.005 A 
ENDROOT
BRANCH   6   7
HETATM    7  N1  PAP L   1     -33.581  -1.404  15.395  1.00  0.00    -0.303 NA
HETATM    8  H5  PAP L   1     -34.016  -0.704  14.803  1.00  0.00     0.124 HD
HETATM    9  H6  PAP L   1     -33.048  -2.083  14.861  1.00  0.00     0.124 HD
ENDBRANCH   6   7
BRANCH   3  10
HETATM   10  O1  PAP L   1     -36.820  -4.010  19.078  1.00  0.00    -0.361 OA
HETATM   11  H7  PAP L   1     -37.721  -3.652  19.042  1.00  0.00     0.217 HD
ENDBRANCH   3  10
TORSDOF 2
ENDMDL
MODEL 16
REMARK VINA RESULT:      -3.0     13.810     14.237
REMARK  2 active torsions:
REMARK  status: ('A' for Active; 'I' for Inactive)
REMARK    1  A    between atoms: C3_3  and  O1_10 
REMARK    2  A    between atoms: C6_6  and  N1_7 
ROOT
HETATM    1  C1  PAP L   1     -35.057  -2.164  15.453  1.00  0.00     0.026 A 
HETATM    2  C2  PAP L   1     -34.111  -1.322  14.863  1.00  0.00     0.038 A 
HETATM    3  C3  PAP L   1     -34.372  -0.756  13.623  1.00  0.00     0.065 A 
HETATM    4  C4  PAP L   1     -35.573  -1.007  12.968  1.00  0.00     0.038 A 
HETATM    5  C5  PAP L   1     -36.515  -1.851  13.564  1.00  0.00     0.026 A 
HETATM    6  C6  PAP L   1     -36.246  -2.477  14.786  1.00  0.00     0.005 A 
ENDROOT
BRANCH   6   7
HETATM    7  N1  PAP L   1     -37.240  -3.223  15.430  1.00  0.00    -0.303 NA
HETATM    8  H5  PAP L   1     -37.240  -4.206  15.178  1.00  0.00     0.124 HD
HETATM    9  H6  PAP L   1     -38.165  -2.810  15.371  1.00  0.00     0.124 HD
ENDBRANCH   6   7
BRANCH   3  10
HETATM   10  O1  PAP L   1     -33.425   0.061  13.082  1.00  0.00    -0.361 OA
HETATM   11  H7  PAP L   1     -33.753   0.974  13.106  1.00  0.00     0.217 HD
ENDBRANCH   3  10
TORSDOF 2
ENDMDL
MODEL 17
REMARK VINA RESULT:      -3.0     13.517     14.120
REMARK  2 active torsions:
REMARK  status: ('A' for Active; 'I' for Inactive)
REMARK    1  A    between atoms: C3_3  and  O1_10 
REMARK    2  A    between atoms: C6_6  and  N1_7 
ROOT
HETATM    1  C1  PAP L   1     -36.309  -3.311  16.628  1.00  0.00     0.026 A 
HETATM    2  C2  PAP L   1     -35.421  -2.659  15.768  1.00  0.00     0.038 A 
HETATM    3  C3  PAP L   1     -34.323  -1.990  16.291  1.00  0.00     0.065 A 
HETATM    4  C4  PAP L   1     -34.088  -1.977  17.662  1.00  0.00     0.038 A 
HETATM    5  C5  PAP L   1     -34.981  -2.630  18.517  1.00  0.00     0.026 A 
HETATM    6  C6  PAP L   1     -36.125  -3.259  18.014  1.00  0.00     0.005 A 
ENDROOT
BRANCH   6   7
HETATM    7  N1  PAP L   1     -36.947  -4.010  18.862  1.00  0.00    -0.303 NA
HETATM    8  H5  PAP L   1     -37.711  -3.479  19.265  1.00  0.00     0.124 HD
HETATM    9  H6  PAP L   1     -36.438  -4.544  19.559  1.00  0.00     0.124 HD
ENDBRANCH   6   7
BRANCH   3  10
HETATM   10  O1  PAP L   1     -33.479  -1.369  15.420  1.00  0.00    -0.361 OA
HETATM   11  H7  PAP L   1     -32.570  -1.645  15.618  1.00  0.00     0.217 HD
ENDBRANCH   3  10
TORSDOF 2
ENDMDL
MODEL 18
REMARK VINA RESULT:      -3.0     14.463     15.073
REMARK  2 active torsions:
REMARK  status: ('A' for Active; 'I' for Inactive)
REMARK    1  A    between atoms: C3_3  and  O1_10 
REMARK    2  A    between atoms: C6_6  and  N1_7 
ROOT
HETATM    1  C1  PAP L   1     -35.256  -3.001  18.545  1.00  0.00     0.026 A 
HETATM    2  C2  PAP L   1     -35.846  -2.970  17.278  1.00  0.00     0.038 A 
HETATM    3  C3  PAP L   1     -36.522  -4.087  16.808  1.00  0.00     0.065 A 
HETATM    4  C4  PAP L   1     -36.632  -5.231  17.591  1.00  0.00     0.038 A 
HETATM    5  C5  PAP L   1     -36.038  -5.255  18.856  1.00  0.00     0.026 A 
HETATM    6  C6  PAP L   1     -35.303  -4.161  19.324  1.00  0.00     0.005 A 
ENDROOT
BRANCH   6   7
HETATM    7  N1  PAP L   1     -34.815  -4.149  20.636  1.00  0.00    -0.303 NA
HETATM    8  H5  PAP L   1     -35.256  -3.453  21.228  1.00  0.00     0.124 HD
HETATM    9  H6  PAP L   1     -33.803  -4.122  20.697  1.00  0.00     0.124 HD
ENDBRANCH   6   7
BRANCH   3  10
HETATM   10  O1  PAP L   1     -37.086  -4.017  15.569  1.00  0.00    -0.361 OA
HETATM   11  H7  PAP L   1     -36.380  -4.060  14.904  1.00  0.00     0.217 HD
ENDBRANCH   3  10
TORSDOF 2
ENDMDL
MODEL 19
REMARK VINA RESULT:      -2.9     13.831     14.205
REMARK  2 active torsions:
REMARK  status: ('A' for Active; 'I' for Inactive)
REMARK    1  A    between atoms: C3_3  and  O1_10 
REMARK    2  A    between atoms: C6_6  and  N1_7 
ROOT
HETATM    1  C1  PAP L   1     -35.254  -1.855  18.632  1.00  0.00     0.026 A 
HETATM    2  C2  PAP L   1     -34.853  -2.263  19.907  1.00  0.00     0.038 A 
HETATM    3  C3  PAP L   1     -35.037  -3.583  20.296  1.00  0.00     0.065 A 
HETATM    4  C4  PAP L   1     -35.601  -4.507  19.424  1.00  0.00     0.038 A 
HETATM    5  C5  PAP L   1     -36.001  -4.091  18.150  1.00  0.00     0.026 A 
HETATM    6  C6  PAP L   1     -35.878  -2.753  17.761  1.00  0.00     0.005 A 
ENDROOT
BRANCH   6   7
HETATM    7  N1  PAP L   1     -36.169  -2.372  16.446  1.00  0.00    -0.303 NA
HETATM    8  H5  PAP L   1     -35.697  -2.933  15.745  1.00  0.00     0.124 HD
HETATM    9  H6  PAP L   1     -36.068  -1.377  16.275  1.00  0.00     0.124 HD
ENDBRANCH   6   7
BRANCH   3  10
HETATM   10  O1  PAP L   1     -34.631  -3.942  21.546  1.00  0.00    -0.361 OA
HETATM   11  H7  PAP L   1     -33.944  -4.622  21.466  1.00  0.00     0.217 HD
ENDBRANCH   3  10
TORSDOF 2
ENDMDL
MODEL 20
REMARK VINA RESULT:      -2.8      9.171      9.615
REMARK  2 active torsions:
REMARK  status: ('A' for Active; 'I' for Inactive)
REMARK    1  A    between atoms: C3_3  and  O1_10 
REMARK    2  A    between atoms: C6_6  and  N1_7 
ROOT
HETATM    1  C1  PAP L   1     -20.953   6.859   9.986  1.00  0.00     0.026 A 
HETATM    2  C2  PAP L   1     -20.321   5.623   9.821  1.00  0.00     0.038 A 
HETATM    3  C3  PAP L   1     -21.075   4.504   9.499  1.00  0.00     0.065 A 
HETATM    4  C4  PAP L   1     -22.451   4.602   9.322  1.00  0.00     0.038 A 
HETATM    5  C5  PAP L   1     -23.076   5.842   9.489  1.00  0.00     0.026 A 
HETATM    6  C6  PAP L   1     -22.342   6.970   9.871  1.00  0.00     0.005 A 
ENDROOT
BRANCH   6   7
HETATM    7  N1  PAP L   1     -22.955   8.227   9.919  1.00  0.00    -0.303 NA
HETATM    8  H5  PAP L   1     -23.917   8.199  10.241  1.00  0.00     0.124 HD
HETATM    9  H6  PAP L   1     -22.849   8.768   9.067  1.00  0.00     0.124 HD
ENDBRANCH   6   7
BRANCH   3  10
HETATM   10  O1  PAP L   1     -20.423   3.318   9.345  1.00  0.00    -0.361 OA
HETATM   11  H7  PAP L   1     -21.049   2.661   9.001  1.00  0.00     0.217 HD
ENDBRANCH   3  10
TORSDOF 2
ENDMDL
