MODEL 1
REMARK VINA RESULT:      -4.8      0.000      0.000
REMARK  2 active torsions:
REMARK  status: ('A' for Active; 'I' for Inactive)
REMARK    1  A    between atoms: C3_3  and  O1_8 
REMARK    2  A    between atoms: C6_6  and  N1_7 
ROOT
HETATM    1  C1  UNL     1     -15.978 -29.526  -2.840  1.00  0.00     0.026 A 
HETATM    2  C2  UNL     1     -16.033 -29.698  -1.455  1.00  0.00     0.038 A 
HETATM    3  C3  UNL     1     -15.467 -28.744  -0.620  1.00  0.00     0.065 A 
HETATM    4  C4  UNL     1     -14.860 -27.611  -1.150  1.00  0.00     0.038 A 
HETATM    5  C5  UNL     1     -14.808 -27.447  -2.538  1.00  0.00     0.026 A 
HETATM    6  C6  UNL     1     -15.320 -28.425  -3.396  1.00  0.00     0.005 A 
ENDROOT
BRANCH   6   7
HETATM    7  N1  UNL     1     -15.370 -28.196  -4.776  1.00  0.00    -0.303 NA
HETATM    8  H5  UNL     1     -15.508 -27.221  -5.023  1.00  0.00     0.124 HD
HETATM    9  H6  UNL     1     -16.005 -28.814  -5.271  1.00  0.00     0.124 HD
ENDBRANCH   6   7
BRANCH   3  10
HETATM   10  O1  UNL     1     -15.543 -28.947   0.725  1.00  0.00    -0.361 OA
HETATM   11  H7  UNL     1     -15.776 -29.875   0.886  1.00  0.00     0.217 HD
ENDBRANCH   3  10
TORSDOF 2
ENDMDL
MODEL 2
REMARK VINA RESULT:      -4.7      2.780      3.682
REMARK  2 active torsions:
REMARK  status: ('A' for Active; 'I' for Inactive)
REMARK    1  A    between atoms: C3_3  and  O1_8 
REMARK    2  A    between atoms: C6_6  and  N1_7 
ROOT
HETATM    1  C1  UNL     1     -14.852 -27.580  -1.243  1.00  0.00     0.026 A 
HETATM    2  C2  UNL     1     -14.796 -27.366  -2.622  1.00  0.00     0.038 A 
HETATM    3  C3  UNL     1     -15.335 -28.308  -3.487  1.00  0.00     0.065 A 
HETATM    4  C4  UNL     1     -15.943 -29.456  -2.993  1.00  0.00     0.038 A 
HETATM    5  C5  UNL     1     -15.994 -29.665  -1.611  1.00  0.00     0.026 A 
HETATM    6  C6  UNL     1     -15.405 -28.756  -0.727  1.00  0.00     0.005 A 
ENDROOT
BRANCH   6   7
HETATM    7  N1  UNL     1     -15.564 -28.913   0.655  1.00  0.00    -0.303 NA
HETATM    8  H5  UNL     1     -15.644 -29.881   0.949  1.00  0.00     0.124 HD
HETATM    9  H6  UNL     1     -16.291 -28.327   1.053  1.00  0.00     0.124 HD
ENDBRANCH   6   7
BRANCH   3  10
HETATM   10  O1  UNL     1     -15.264 -28.060  -4.825  1.00  0.00    -0.361 OA
HETATM   11  H7  UNL     1     -14.872 -28.833  -5.263  1.00  0.00     0.217 HD
ENDBRANCH   3  10
TORSDOF 2
ENDMDL
MODEL 3
REMARK VINA RESULT:      -4.5     27.582     27.998
REMARK  2 active torsions:
REMARK  status: ('A' for Active; 'I' for Inactive)
REMARK    1  A    between atoms: C3_3  and  O1_8 
REMARK    2  A    between atoms: C6_6  and  N1_7 
ROOT
HETATM    1  C1  UNL     1     -27.522  -5.024   8.522  1.00  0.00     0.026 A 
HETATM    2  C2  UNL     1     -27.734  -6.074   9.419  1.00  0.00     0.038 A 
HETATM    3  C3  UNL     1     -28.618  -7.092   9.090  1.00  0.00     0.065 A 
HETATM    4  C4  UNL     1     -29.283  -7.084   7.869  1.00  0.00     0.038 A 
HETATM    5  C5  UNL     1     -29.067  -6.030   6.977  1.00  0.00     0.026 A 
HETATM    6  C6  UNL     1     -28.225  -4.966   7.315  1.00  0.00     0.005 A 
ENDROOT
BRANCH   6   7
HETATM    7  N1  UNL     1     -27.923  -3.978   6.370  1.00  0.00    -0.303 NA
HETATM    8  H5  UNL     1     -27.571  -4.348   5.492  1.00  0.00     0.124 HD
HETATM    9  H6  UNL     1     -27.346  -3.227   6.732  1.00  0.00     0.124 HD
ENDBRANCH   6   7
BRANCH   3  10
HETATM   10  O1  UNL     1     -28.795  -8.099   9.990  1.00  0.00    -0.361 OA
HETATM   11  H7  UNL     1     -29.417  -7.799  10.672  1.00  0.00     0.217 HD
ENDBRANCH   3  10
TORSDOF 2
ENDMDL
MODEL 4
REMARK VINA RESULT:      -4.4     28.264     28.874
REMARK  2 active torsions:
REMARK  status: ('A' for Active; 'I' for Inactive)
REMARK    1  A    between atoms: C3_3  and  O1_8 
REMARK    2  A    between atoms: C6_6  and  N1_7 
ROOT
HETATM    1  C1  UNL     1     -30.512  -5.813   8.619  1.00  0.00     0.026 A 
HETATM    2  C2  UNL     1     -30.580  -4.671   7.817  1.00  0.00     0.038 A 
HETATM    3  C3  UNL     1     -29.547  -4.389   6.935  1.00  0.00     0.065 A 
HETATM    4  C4  UNL     1     -28.453  -5.240   6.829  1.00  0.00     0.038 A 
HETATM    5  C5  UNL     1     -28.391  -6.380   7.636  1.00  0.00     0.026 A 
HETATM    6  C6  UNL     1     -29.394  -6.651   8.573  1.00  0.00     0.005 A 
ENDROOT
BRANCH   6   7
HETATM    7  N1  UNL     1     -29.383  -7.853   9.290  1.00  0.00    -0.303 NA
HETATM    8  H5  UNL     1     -28.570  -7.964   9.888  1.00  0.00     0.124 HD
HETATM    9  H6  UNL     1     -29.557  -8.673   8.718  1.00  0.00     0.124 HD
ENDBRANCH   6   7
BRANCH   3  10
HETATM   10  O1  UNL     1     -29.651  -3.267   6.168  1.00  0.00    -0.361 OA
HETATM   11  H7  UNL     1     -29.073  -2.583   6.540  1.00  0.00     0.217 HD
ENDBRANCH   3  10
TORSDOF 2
ENDMDL
MODEL 5
REMARK VINA RESULT:      -4.3     19.633     20.234
REMARK  2 active torsions:
REMARK  status: ('A' for Active; 'I' for Inactive)
REMARK    1  A    between atoms: C3_3  and  O1_8 
REMARK    2  A    between atoms: C6_6  and  N1_7 
ROOT
HETATM    1  C1  UNL     1     -12.419  -9.075  -0.794  1.00  0.00     0.026 A 
HETATM    2  C2  UNL     1     -12.682  -8.206  -1.855  1.00  0.00     0.038 A 
HETATM    3  C3  UNL     1     -11.789  -8.123  -2.914  1.00  0.00     0.065 A 
HETATM    4  C4  UNL     1     -10.643  -8.910  -2.937  1.00  0.00     0.038 A 
HETATM    5  C5  UNL     1     -10.386  -9.777  -1.870  1.00  0.00     0.026 A 
HETATM    6  C6  UNL     1     -11.244  -9.831  -0.767  1.00  0.00     0.005 A 
ENDROOT
BRANCH   6   7
HETATM    7  N1  UNL     1     -11.042 -10.786   0.236  1.00  0.00    -0.303 NA
HETATM    8  H5  UNL     1     -10.423 -11.542  -0.039  1.00  0.00     0.124 HD
HETATM    9  H6  UNL     1     -11.899 -11.123   0.661  1.00  0.00     0.124 HD
ENDBRANCH   6   7
BRANCH   3  10
HETATM   10  O1  UNL     1     -12.082  -7.265  -3.932  1.00  0.00    -0.361 OA
HETATM   11  H7  UNL     1     -11.252  -6.973  -4.339  1.00  0.00     0.217 HD
ENDBRANCH   3  10
TORSDOF 2
ENDMDL
MODEL 6
REMARK VINA RESULT:      -4.3     19.373     19.925
REMARK  2 active torsions:
REMARK  status: ('A' for Active; 'I' for Inactive)
REMARK    1  A    between atoms: C3_3  and  O1_8 
REMARK    2  A    between atoms: C6_6  and  N1_7 
ROOT
HETATM    1  C1  UNL     1     -10.675  -9.099  -2.850  1.00  0.00     0.026 A 
HETATM    2  C2  UNL     1     -10.436  -9.943  -1.763  1.00  0.00     0.038 A 
HETATM    3  C3  UNL     1     -11.301  -9.928  -0.678  1.00  0.00     0.065 A 
HETATM    4  C4  UNL     1     -12.413  -9.093  -0.671  1.00  0.00     0.038 A 
HETATM    5  C5  UNL     1     -12.645  -8.250  -1.762  1.00  0.00     0.026 A 
HETATM    6  C6  UNL     1     -11.752  -8.208  -2.838  1.00  0.00     0.005 A 
ENDROOT
BRANCH   6   7
HETATM    7  N1  UNL     1     -12.055  -7.451  -3.975  1.00  0.00    -0.303 NA
HETATM    8  H5  UNL     1     -12.706  -7.907  -4.607  1.00  0.00     0.124 HD
HETATM    9  H6  UNL     1     -11.238  -7.089  -4.457  1.00  0.00     0.124 HD
ENDBRANCH   6   7
BRANCH   3  10
HETATM   10  O1  UNL     1     -11.036 -10.768   0.361  1.00  0.00    -0.361 OA
HETATM   11  H7  UNL     1     -11.106 -11.683   0.046  1.00  0.00     0.217 HD
ENDBRANCH   3  10
TORSDOF 2
ENDMDL
MODEL 7
REMARK VINA RESULT:      -4.0     28.378     29.027
REMARK  2 active torsions:
REMARK  status: ('A' for Active; 'I' for Inactive)
REMARK    1  A    between atoms: C3_3  and  O1_8 
REMARK    2  A    between atoms: C6_6  and  N1_7 
ROOT
HETATM    1  C1  UNL     1     -28.270  -5.655   9.556  1.00  0.00     0.026 A 
HETATM    2  C2  UNL     1     -28.142  -6.245   8.297  1.00  0.00     0.038 A 
HETATM    3  C3  UNL     1     -27.989  -5.443   7.174  1.00  0.00     0.065 A 
HETATM    4  C4  UNL     1     -27.946  -4.059   7.293  1.00  0.00     0.038 A 
HETATM    5  C5  UNL     1     -28.076  -3.475   8.557  1.00  0.00     0.026 A 
HETATM    6  C6  UNL     1     -28.290  -4.263   9.692  1.00  0.00     0.005 A 
ENDROOT
BRANCH   6   7
HETATM    7  N1  UNL     1     -28.299  -3.679  10.964  1.00  0.00    -0.303 NA
HETATM    8  H5  UNL     1     -28.687  -2.741  10.979  1.00  0.00     0.124 HD
HETATM    9  H6  UNL     1     -27.410  -3.737  11.449  1.00  0.00     0.124 HD
ENDBRANCH   6   7
BRANCH   3  10
HETATM   10  O1  UNL     1     -27.865  -6.057   5.964  1.00  0.00    -0.361 OA
HETATM   11  H7  UNL     1     -28.150  -5.439   5.272  1.00  0.00     0.217 HD
ENDBRANCH   3  10
TORSDOF 2
ENDMDL
MODEL 8
REMARK VINA RESULT:      -4.0     34.842     35.635
REMARK  2 active torsions:
REMARK  status: ('A' for Active; 'I' for Inactive)
REMARK    1  A    between atoms: C3_3  and  O1_8 
REMARK    2  A    between atoms: C6_6  and  N1_7 
ROOT
HETATM    1  C1  UNL     1     -38.813 -24.308  24.813  1.00  0.00     0.026 A 
HETATM    2  C2  UNL     1     -40.162 -24.644  24.944  1.00  0.00     0.038 A 
HETATM    3  C3  UNL     1     -40.683 -25.700  24.210  1.00  0.00     0.065 A 
HETATM    4  C4  UNL     1     -39.869 -26.438  23.357  1.00  0.00     0.038 A 
HETATM    5  C5  UNL     1     -38.520 -26.095  23.230  1.00  0.00     0.026 A 
HETATM    6  C6  UNL     1     -37.991 -24.998  23.917  1.00  0.00     0.005 A 
ENDROOT
BRANCH   6   7
HETATM    7  N1  UNL     1     -36.616 -24.736  23.875  1.00  0.00    -0.303 NA
HETATM    8  H5  UNL     1     -36.345 -23.900  24.383  1.00  0.00     0.124 HD
HETATM    9  H6  UNL     1     -36.220 -24.768  22.942  1.00  0.00     0.124 HD
ENDBRANCH   6   7
BRANCH   3  10
HETATM   10  O1  UNL     1     -42.003 -25.998  24.367  1.00  0.00    -0.361 OA
HETATM   11  H7  UNL     1     -42.480 -25.183  24.592  1.00  0.00     0.217 HD
ENDBRANCH   3  10
TORSDOF 2
ENDMDL
MODEL 9
REMARK VINA RESULT:      -3.9     33.412     33.944
REMARK  2 active torsions:
REMARK  status: ('A' for Active; 'I' for Inactive)
REMARK    1  A    between atoms: C3_3  and  O1_8 
REMARK    2  A    between atoms: C6_6  and  N1_7 
ROOT
HETATM    1  C1  UNL     1     -39.374 -26.948  22.873  1.00  0.00     0.026 A 
HETATM    2  C2  UNL     1     -38.641 -25.857  23.344  1.00  0.00     0.038 A 
HETATM    3  C3  UNL     1     -37.292 -26.009  23.636  1.00  0.00     0.065 A 
HETATM    4  C4  UNL     1     -36.661 -27.234  23.448  1.00  0.00     0.038 A 
HETATM    5  C5  UNL     1     -37.402 -28.322  22.978  1.00  0.00     0.026 A 
HETATM    6  C6  UNL     1     -38.774 -28.204  22.734  1.00  0.00     0.005 A 
ENDROOT
BRANCH   6   7
HETATM    7  N1  UNL     1     -39.480 -29.262  22.152  1.00  0.00    -0.303 NA
HETATM    8  H5  UNL     1     -39.803 -29.067  21.209  1.00  0.00     0.124 HD
HETATM    9  H6  UNL     1     -40.215 -29.639  22.741  1.00  0.00     0.124 HD
ENDBRANCH   6   7
BRANCH   3  10
HETATM   10  O1  UNL     1     -36.611 -24.920  24.091  1.00  0.00    -0.361 OA
HETATM   11  H7  UNL     1     -36.928 -24.707  24.983  1.00  0.00     0.217 HD
ENDBRANCH   3  10
TORSDOF 2
ENDMDL
