HETATM    1  C1  PAP L   1     -28.354   2.459  22.455  1.00  0.00     0.026 A 
HETATM    2  C2  PAP L   1     -28.813   2.178  23.745  1.00  0.00     0.038 A 
HETATM    3  C3  PAP L   1     -29.307   0.915  24.040  1.00  0.00     0.065 A 
HETATM    4  C4  PAP L   1     -29.335  -0.079  23.068  1.00  0.00     0.038 A 
HETATM    5  C5  PAP L   1     -28.875   0.209  21.779  1.00  0.00     0.026 A 
HETATM    6  C6  PAP L   1     -28.428   1.492  21.448  1.00  0.00     0.005 A 
HETATM    7  N1  PAP L   1     -27.860   1.738  20.192  1.00  0.00    -0.303 NA
HETATM    8  H5  PAP L   1     -27.874   0.934  19.574  1.00  0.00     0.124 HD
HETATM    9  H6  PAP L   1     -26.946   2.176  20.235  1.00  0.00     0.124 HD
HETATM   10  O1  PAP L   1     -29.743   0.680  25.309  1.00  0.00    -0.361 OA
HETATM   11  H7  PAP L   1     -30.548   0.139  25.266  1.00  0.00     0.217 HD
HETATM    1  C1  PAP L   1     -29.192   0.010  22.778  1.00  0.00     0.026 A 
HETATM    2  C2  PAP L   1     -28.935   0.514  21.500  1.00  0.00     0.038 A 
HETATM    3  C3  PAP L   1     -28.839   1.885  21.308  1.00  0.00     0.065 A 
HETATM    4  C4  PAP L   1     -28.981   2.762  22.378  1.00  0.00     0.038 A 
HETATM    5  C5  PAP L   1     -29.239   2.251  23.653  1.00  0.00     0.026 A 
HETATM    6  C6  PAP L   1     -29.398   0.876  23.856  1.00  0.00     0.005 A 
HETATM    7  N1  PAP L   1     -29.537   0.367  25.153  1.00  0.00    -0.303 NA
HETATM    8  H5  PAP L   1     -28.670   0.022  25.550  1.00  0.00     0.124 HD
HETATM    9  H6  PAP L   1     -30.299  -0.295  25.254  1.00  0.00     0.124 HD
HETATM   10  O1  PAP L   1     -28.584   2.337  20.048  1.00  0.00    -0.361 OA
HETATM   11  H7  PAP L   1     -28.156   1.626  19.544  1.00  0.00     0.217 HD
HETATM    1  C1  PAP L   1     -28.249  -1.717  26.757  1.00  0.00     0.026 A 
HETATM    2  C2  PAP L   1     -28.475  -0.378  26.427  1.00  0.00     0.038 A 
HETATM    3  C3  PAP L   1     -28.886  -0.046  25.143  1.00  0.00     0.065 A 
HETATM    4  C4  PAP L   1     -29.090  -1.035  24.187  1.00  0.00     0.038 A 
HETATM    5  C5  PAP L   1     -28.861  -2.372  24.524  1.00  0.00     0.026 A 
HETATM    6  C6  PAP L   1     -28.390  -2.721  25.795  1.00  0.00     0.005 A 
HETATM    7  N1  PAP L   1     -28.279  -4.068  26.159  1.00  0.00    -0.303 NA
HETATM    8  H5  PAP L   1     -28.662  -4.275  27.075  1.00  0.00     0.124 HD
HETATM    9  H6  PAP L   1     -27.348  -4.451  26.035  1.00  0.00     0.124 HD
HETATM   10  O1  PAP L   1     -29.098   1.270  24.861  1.00  0.00    -0.361 OA
HETATM   11  H7  PAP L   1     -29.531   1.336  23.995  1.00  0.00     0.217 HD
HETATM    1  C1  PAP L   1     -28.483   5.335  17.821  1.00  0.00     0.026 A 
HETATM    2  C2  PAP L   1     -29.184   6.378  17.209  1.00  0.00     0.038 A 
HETATM    3  C3  PAP L   1     -28.897   6.721  15.895  1.00  0.00     0.065 A 
HETATM    4  C4  PAP L   1     -27.930   6.026  15.176  1.00  0.00     0.038 A 
HETATM    5  C5  PAP L   1     -27.232   4.985  15.795  1.00  0.00     0.026 A 
HETATM    6  C6  PAP L   1     -27.466   4.663  17.137  1.00  0.00     0.005 A 
HETATM    7  N1  PAP L   1     -26.850   3.545  17.710  1.00  0.00    -0.303 NA
HETATM    8  H5  PAP L   1     -25.868   3.684  17.923  1.00  0.00     0.124 HD
HETATM    9  H6  PAP L   1     -27.017   2.680  17.205  1.00  0.00     0.124 HD
HETATM   10  O1  PAP L   1     -29.603   7.742  15.333  1.00  0.00    -0.361 OA
HETATM   11  H7  PAP L   1     -30.425   7.863  15.834  1.00  0.00     0.217 HD
HETATM    1  C1  PAP L   1     -28.930   1.561  22.021  1.00  0.00     0.026 A 
HETATM    2  C2  PAP L   1     -28.325   1.560  20.761  1.00  0.00     0.038 A 
HETATM    3  C3  PAP L   1     -28.293   2.728  20.013  1.00  0.00     0.065 A 
HETATM    4  C4  PAP L   1     -28.843   3.905  20.511  1.00  0.00     0.038 A 
HETATM    5  C5  PAP L   1     -29.447   3.898  21.772  1.00  0.00     0.026 A 
HETATM    6  C6  PAP L   1     -29.541   2.717  22.516  1.00  0.00     0.005 A 
HETATM    7  N1  PAP L   1     -30.039   2.746  23.824  1.00  0.00    -0.303 NA
HETATM    8  H5  PAP L   1     -29.517   2.166  24.472  1.00  0.00     0.124 HD
HETATM    9  H6  PAP L   1     -31.040   2.590  23.885  1.00  0.00     0.124 HD
HETATM   10  O1  PAP L   1     -27.693   2.687  18.791  1.00  0.00    -0.361 OA
HETATM   11  H7  PAP L   1     -27.060   1.952  18.780  1.00  0.00     0.217 HD
HETATM    1  C1  PAP L   1     -28.353   1.664  20.713  1.00  0.00     0.026 A 
HETATM    2  C2  PAP L   1     -28.988   1.624  21.957  1.00  0.00     0.038 A 
HETATM    3  C3  PAP L   1     -29.535   2.784  22.488  1.00  0.00     0.065 A 
HETATM    4  C4  PAP L   1     -29.470   3.983  21.787  1.00  0.00     0.038 A 
HETATM    5  C5  PAP L   1     -28.832   4.016  20.543  1.00  0.00     0.026 A 
HETATM    6  C6  PAP L   1     -28.225   2.871  20.018  1.00  0.00     0.005 A 
HETATM    7  N1  PAP L   1     -27.695   2.885  18.723  1.00  0.00    -0.303 NA
HETATM    8  H5  PAP L   1     -27.951   3.708  18.187  1.00  0.00     0.124 HD
HETATM    9  H6  PAP L   1     -27.850   2.025  18.207  1.00  0.00     0.124 HD
HETATM   10  O1  PAP L   1     -30.147   2.704  23.703  1.00  0.00    -0.361 OA
HETATM   11  H7  PAP L   1     -30.806   1.992  23.671  1.00  0.00     0.217 HD
HETATM    1  C1  PAP L   1     -28.813   4.021  20.485  1.00  0.00     0.026 A 
HETATM    2  C2  PAP L   1     -29.427   3.996  21.740  1.00  0.00     0.038 A 
HETATM    3  C3  PAP L   1     -29.518   2.800  22.438  1.00  0.00     0.065 A 
HETATM    4  C4  PAP L   1     -28.989   1.628  21.908  1.00  0.00     0.038 A 
HETATM    5  C5  PAP L   1     -28.377   1.661  20.651  1.00  0.00     0.026 A 
HETATM    6  C6  PAP L   1     -28.328   2.844  19.907  1.00  0.00     0.005 A 
HETATM    7  N1  PAP L   1     -27.610   2.893  18.706  1.00  0.00    -0.303 NA
HETATM    8  H5  PAP L   1     -28.012   3.519  18.016  1.00  0.00     0.124 HD
HETATM    9  H6  PAP L   1     -27.395   1.980  18.320  1.00  0.00     0.124 HD
HETATM   10  O1  PAP L   1     -30.121   2.817  23.659  1.00  0.00    -0.361 OA
HETATM   11  H7  PAP L   1     -30.717   3.582  23.700  1.00  0.00     0.217 HD
HETATM    1  C1  PAP L   1     -29.407   4.090  21.597  1.00  0.00     0.026 A 
HETATM    2  C2  PAP L   1     -28.766   3.995  20.358  1.00  0.00     0.038 A 
HETATM    3  C3  PAP L   1     -28.261   2.773  19.937  1.00  0.00     0.065 A 
HETATM    4  C4  PAP L   1     -28.399   1.638  20.729  1.00  0.00     0.038 A 
HETATM    5  C5  PAP L   1     -29.040   1.741  21.967  1.00  0.00     0.026 A 
HETATM    6  C6  PAP L   1     -29.504   2.975  22.435  1.00  0.00     0.005 A 
HETATM    7  N1  PAP L   1     -30.248   3.045  23.618  1.00  0.00    -0.303 NA
HETATM    8  H5  PAP L   1     -31.113   2.515  23.588  1.00  0.00     0.124 HD
HETATM    9  H6  PAP L   1     -30.387   3.990  23.960  1.00  0.00     0.124 HD
HETATM   10  O1  PAP L   1     -27.645   2.721  18.723  1.00  0.00    -0.361 OA
HETATM   11  H7  PAP L   1     -27.938   3.481  18.194  1.00  0.00     0.217 HD
HETATM    1  C1  PAP L   1     -29.802   3.267  22.089  1.00  0.00     0.026 A 
HETATM    2  C2  PAP L   1     -29.016   2.143  21.821  1.00  0.00     0.038 A 
HETATM    3  C3  PAP L   1     -28.133   2.161  20.751  1.00  0.00     0.065 A 
HETATM    4  C4  PAP L   1     -28.010   3.293  19.952  1.00  0.00     0.038 A 
HETATM    5  C5  PAP L   1     -28.800   4.414  20.226  1.00  0.00     0.026 A 
HETATM    6  C6  PAP L   1     -29.738   4.393  21.264  1.00  0.00     0.005 A 
HETATM    7  N1  PAP L   1     -30.437   5.557  21.605  1.00  0.00    -0.303 NA
HETATM    8  H5  PAP L   1     -31.282   5.384  22.138  1.00  0.00     0.124 HD
HETATM    9  H6  PAP L   1     -30.595   6.184  20.823  1.00  0.00     0.124 HD
HETATM   10  O1  PAP L   1     -27.383   1.047  20.523  1.00  0.00    -0.361 OA
HETATM   11  H7  PAP L   1     -26.448   1.304  20.484  1.00  0.00     0.217 HD
HETATM    1  C1  PAP L   1     -28.040   3.406  19.865  1.00  0.00     0.026 A 
HETATM    2  C2  PAP L   1     -28.764   4.583  20.069  1.00  0.00     0.038 A 
HETATM    3  C3  PAP L   1     -29.679   4.655  21.111  1.00  0.00     0.065 A 
HETATM    4  C4  PAP L   1     -29.869   3.573  21.963  1.00  0.00     0.038 A 
HETATM    5  C5  PAP L   1     -29.141   2.398  21.752  1.00  0.00     0.026 A 
HETATM    6  C6  PAP L   1     -28.258   2.286  20.673  1.00  0.00     0.005 A 
HETATM    7  N1  PAP L   1     -27.448   1.152  20.540  1.00  0.00    -0.303 NA
HETATM    8  H5  PAP L   1     -26.606   1.185  21.105  1.00  0.00     0.124 HD
HETATM    9  H6  PAP L   1     -27.258   0.894  19.578  1.00  0.00     0.124 HD
HETATM   10  O1  PAP L   1     -30.364   5.821  21.279  1.00  0.00    -0.361 OA
HETATM   11  H7  PAP L   1     -29.792   6.454  21.742  1.00  0.00     0.217 HD
HETATM    1  C1  PAP L   1     -41.163   0.093  21.030  1.00  0.00     0.026 A 
HETATM    2  C2  PAP L   1     -42.196  -0.597  21.671  1.00  0.00     0.038 A 
HETATM    3  C3  PAP L   1     -43.399  -0.803  21.010  1.00  0.00     0.065 A 
HETATM    4  C4  PAP L   1     -43.582  -0.343  19.711  1.00  0.00     0.038 A 
HETATM    5  C5  PAP L   1     -42.544   0.348  19.076  1.00  0.00     0.026 A 
HETATM    6  C6  PAP L   1     -41.346   0.616  19.746  1.00  0.00     0.005 A 
HETATM    7  N1  PAP L   1     -40.273   1.201  19.064  1.00  0.00    -0.303 NA
HETATM    8  H5  PAP L   1     -40.494   2.101  18.653  1.00  0.00     0.124 HD
HETATM    9  H6  PAP L   1     -39.817   0.577  18.406  1.00  0.00     0.124 HD
HETATM   10  O1  PAP L   1     -44.380  -1.482  21.668  1.00  0.00    -0.361 OA
HETATM   11  H7  PAP L   1     -45.233  -1.273  21.254  1.00  0.00     0.217 HD
HETATM    1  C1  PAP L   1     -42.861  -1.532  23.421  1.00  0.00     0.026 A 
HETATM    2  C2  PAP L   1     -42.300  -1.626  24.698  1.00  0.00     0.038 A 
HETATM    3  C3  PAP L   1     -42.429  -2.804  25.420  1.00  0.00     0.065 A 
HETATM    4  C4  PAP L   1     -43.097  -3.897  24.879  1.00  0.00     0.038 A 
HETATM    5  C5  PAP L   1     -43.655  -3.795  23.601  1.00  0.00     0.026 A 
HETATM    6  C6  PAP L   1     -43.587  -2.598  22.881  1.00  0.00     0.005 A 
HETATM    7  N1  PAP L   1     -44.043  -2.543  21.559  1.00  0.00    -0.303 NA
HETATM    8  H5  PAP L   1     -44.899  -2.011  21.445  1.00  0.00     0.124 HD
HETATM    9  H6  PAP L   1     -44.086  -3.448  21.103  1.00  0.00     0.124 HD
HETATM   10  O1  PAP L   1     -41.868  -2.857  26.660  1.00  0.00    -0.361 OA
HETATM   11  H7  PAP L   1     -42.181  -2.096  27.175  1.00  0.00     0.217 HD
HETATM    1  C1  PAP L   1     -29.592   2.724  22.867  1.00  0.00     0.026 A 
HETATM    2  C2  PAP L   1     -29.444   3.731  21.909  1.00  0.00     0.038 A 
HETATM    3  C3  PAP L   1     -28.823   3.446  20.701  1.00  0.00     0.065 A 
HETATM    4  C4  PAP L   1     -28.361   2.163  20.428  1.00  0.00     0.038 A 
HETATM    5  C5  PAP L   1     -28.511   1.160  21.391  1.00  0.00     0.026 A 
HETATM    6  C6  PAP L   1     -29.081   1.443  22.637  1.00  0.00     0.005 A 
HETATM    7  N1  PAP L   1     -29.336   0.409  23.545  1.00  0.00    -0.303 NA
HETATM    8  H5  PAP L   1     -29.642  -0.453  23.107  1.00  0.00     0.124 HD
HETATM    9  H6  PAP L   1     -29.933   0.681  24.320  1.00  0.00     0.124 HD
HETATM   10  O1  PAP L   1     -28.700   4.454  19.793  1.00  0.00    -0.361 OA
HETATM   11  H7  PAP L   1     -29.412   4.371  19.139  1.00  0.00     0.217 HD
HETATM    1  C1  PAP L   1     -42.014  -1.192  24.454  1.00  0.00     0.026 A 
HETATM    2  C2  PAP L   1     -41.158  -0.539  23.563  1.00  0.00     0.038 A 
HETATM    3  C3  PAP L   1     -41.426  -0.572  22.202  1.00  0.00     0.065 A 
HETATM    4  C4  PAP L   1     -42.548  -1.236  21.717  1.00  0.00     0.038 A 
HETATM    5  C5  PAP L   1     -43.400  -1.888  22.614  1.00  0.00     0.026 A 
HETATM    6  C6  PAP L   1     -43.114  -1.915  23.983  1.00  0.00     0.005 A 
HETATM    7  N1  PAP L   1     -44.033  -2.466  24.884  1.00  0.00    -0.303 NA
HETATM    8  H5  PAP L   1     -44.691  -1.791  25.259  1.00  0.00     0.124 HD
HETATM    9  H6  PAP L   1     -43.607  -3.034  25.609  1.00  0.00     0.124 HD
HETATM   10  O1  PAP L   1     -40.569   0.078  21.366  1.00  0.00    -0.361 OA
HETATM   11  H7  PAP L   1     -40.941   0.950  21.158  1.00  0.00     0.217 HD
HETATM    1  C1  PAP L   1     -41.200  -0.601  23.663  1.00  0.00     0.026 A 
HETATM    2  C2  PAP L   1     -42.010  -1.275  24.581  1.00  0.00     0.038 A 
HETATM    3  C3  PAP L   1     -43.141  -1.945  24.136  1.00  0.00     0.065 A 
HETATM    4  C4  PAP L   1     -43.467  -1.967  22.785  1.00  0.00     0.038 A 
HETATM    5  C5  PAP L   1     -42.652  -1.290  21.872  1.00  0.00     0.026 A 
HETATM    6  C6  PAP L   1     -41.541  -0.559  22.308  1.00  0.00     0.005 A 
HETATM    7  N1  PAP L   1     -40.666   0.014  21.378  1.00  0.00    -0.303 NA
HETATM    8  H5  PAP L   1     -41.101   0.714  20.786  1.00  0.00     0.124 HD
HETATM    9  H6  PAP L   1     -40.133  -0.665  20.844  1.00  0.00     0.124 HD
HETATM   10  O1  PAP L   1     -43.905  -2.592  25.061  1.00  0.00    -0.361 OA
HETATM   11  H7  PAP L   1     -44.806  -2.234  25.025  1.00  0.00     0.217 HD
HETATM    1  C1  PAP L   1     -42.142  -0.746  21.436  1.00  0.00     0.026 A 
HETATM    2  C2  PAP L   1     -41.196   0.096  20.846  1.00  0.00     0.038 A 
HETATM    3  C3  PAP L   1     -41.457   0.662  19.606  1.00  0.00     0.065 A 
HETATM    4  C4  PAP L   1     -42.658   0.411  18.951  1.00  0.00     0.038 A 
HETATM    5  C5  PAP L   1     -43.600  -0.433  19.547  1.00  0.00     0.026 A 
HETATM    6  C6  PAP L   1     -43.331  -1.059  20.769  1.00  0.00     0.005 A 
HETATM    7  N1  PAP L   1     -44.325  -1.805  21.413  1.00  0.00    -0.303 NA
HETATM    8  H5  PAP L   1     -44.325  -2.788  21.161  1.00  0.00     0.124 HD
HETATM    9  H6  PAP L   1     -45.250  -1.392  21.354  1.00  0.00     0.124 HD
HETATM   10  O1  PAP L   1     -40.510   1.479  19.065  1.00  0.00    -0.361 OA
HETATM   11  H7  PAP L   1     -40.838   2.392  19.089  1.00  0.00     0.217 HD
HETATM    1  C1  PAP L   1     -43.394  -1.893  22.611  1.00  0.00     0.026 A 
HETATM    2  C2  PAP L   1     -42.506  -1.241  21.751  1.00  0.00     0.038 A 
HETATM    3  C3  PAP L   1     -41.408  -0.572  22.274  1.00  0.00     0.065 A 
HETATM    4  C4  PAP L   1     -41.173  -0.559  23.645  1.00  0.00     0.038 A 
HETATM    5  C5  PAP L   1     -42.066  -1.212  24.500  1.00  0.00     0.026 A 
HETATM    6  C6  PAP L   1     -43.210  -1.841  23.997  1.00  0.00     0.005 A 
HETATM    7  N1  PAP L   1     -44.032  -2.592  24.845  1.00  0.00    -0.303 NA
HETATM    8  H5  PAP L   1     -44.796  -2.061  25.248  1.00  0.00     0.124 HD
HETATM    9  H6  PAP L   1     -43.523  -3.126  25.542  1.00  0.00     0.124 HD
HETATM   10  O1  PAP L   1     -40.564   0.049  21.403  1.00  0.00    -0.361 OA
HETATM   11  H7  PAP L   1     -39.655  -0.227  21.601  1.00  0.00     0.217 HD
HETATM    1  C1  PAP L   1     -42.341  -1.583  24.528  1.00  0.00     0.026 A 
HETATM    2  C2  PAP L   1     -42.931  -1.552  23.261  1.00  0.00     0.038 A 
HETATM    3  C3  PAP L   1     -43.607  -2.669  22.791  1.00  0.00     0.065 A 
HETATM    4  C4  PAP L   1     -43.717  -3.813  23.574  1.00  0.00     0.038 A 
HETATM    5  C5  PAP L   1     -43.123  -3.837  24.839  1.00  0.00     0.026 A 
HETATM    6  C6  PAP L   1     -42.388  -2.743  25.307  1.00  0.00     0.005 A 
HETATM    7  N1  PAP L   1     -41.900  -2.731  26.619  1.00  0.00    -0.303 NA
HETATM    8  H5  PAP L   1     -42.341  -2.035  27.211  1.00  0.00     0.124 HD
HETATM    9  H6  PAP L   1     -40.888  -2.704  26.680  1.00  0.00     0.124 HD
HETATM   10  O1  PAP L   1     -44.171  -2.599  21.552  1.00  0.00    -0.361 OA
HETATM   11  H7  PAP L   1     -43.465  -2.642  20.887  1.00  0.00     0.217 HD
HETATM    1  C1  PAP L   1     -42.339  -0.437  24.615  1.00  0.00     0.026 A 
HETATM    2  C2  PAP L   1     -41.938  -0.845  25.890  1.00  0.00     0.038 A 
HETATM    3  C3  PAP L   1     -42.122  -2.165  26.279  1.00  0.00     0.065 A 
HETATM    4  C4  PAP L   1     -42.686  -3.089  25.407  1.00  0.00     0.038 A 
HETATM    5  C5  PAP L   1     -43.086  -2.673  24.133  1.00  0.00     0.026 A 
HETATM    6  C6  PAP L   1     -42.963  -1.335  23.744  1.00  0.00     0.005 A 
HETATM    7  N1  PAP L   1     -43.254  -0.954  22.429  1.00  0.00    -0.303 NA
HETATM    8  H5  PAP L   1     -42.782  -1.515  21.728  1.00  0.00     0.124 HD
HETATM    9  H6  PAP L   1     -43.153   0.041  22.258  1.00  0.00     0.124 HD
HETATM   10  O1  PAP L   1     -41.716  -2.524  27.529  1.00  0.00    -0.361 OA
HETATM   11  H7  PAP L   1     -41.029  -3.204  27.449  1.00  0.00     0.217 HD
HETATM    1  C1  PAP L   1     -28.038   8.277  15.969  1.00  0.00     0.026 A 
HETATM    2  C2  PAP L   1     -27.406   7.041  15.804  1.00  0.00     0.038 A 
HETATM    3  C3  PAP L   1     -28.160   5.922  15.482  1.00  0.00     0.065 A 
HETATM    4  C4  PAP L   1     -29.536   6.020  15.305  1.00  0.00     0.038 A 
HETATM    5  C5  PAP L   1     -30.161   7.260  15.472  1.00  0.00     0.026 A 
HETATM    6  C6  PAP L   1     -29.427   8.388  15.854  1.00  0.00     0.005 A 
HETATM    7  N1  PAP L   1     -30.040   9.645  15.902  1.00  0.00    -0.303 NA
HETATM    8  H5  PAP L   1     -31.002   9.617  16.224  1.00  0.00     0.124 HD
HETATM    9  H6  PAP L   1     -29.934  10.186  15.050  1.00  0.00     0.124 HD
HETATM   10  O1  PAP L   1     -27.508   4.736  15.328  1.00  0.00    -0.361 OA
HETATM   11  H7  PAP L   1     -28.134   4.079  14.984  1.00  0.00     0.217 HD
