MODEL 1
REMARK VINA RESULT:      -5.3      0.000      0.000
REMARK  27 active torsions:
REMARK  status: ('A' for Active; 'I' for Inactive)
REMARK    1  A    between atoms: C2_2  and  S1_4 
REMARK    2  A    between atoms: S1_4  and  C3_5 
REMARK    3  A    between atoms: C3_5  and  C4_6 
REMARK    4  A    between atoms: C4_6  and  N1_7 
REMARK       I    between atoms: N1_7  and  C5_8 
REMARK    5  A    between atoms: C5_8  and  C6_10 
REMARK    6  A    between atoms: C6_10  and  C7_11 
REMARK    7  A    between atoms: C7_11  and  N2_12 
REMARK       I    between atoms: N2_12  and  C8_13 
REMARK    8  A    between atoms: C8_13  and  C9_15 
REMARK    9  A    between atoms: C9_15  and  C10_16 
REMARK   10  A    between atoms: C9_15  and  O17_54 
REMARK   11  A    between atoms: C10_16  and  C13_19 
REMARK   12  A    between atoms: C13_19  and  O4_20 
REMARK   13  A    between atoms: O4_20  and  P1_21 
REMARK   14  A    between atoms: P1_21  and  O6_23 
REMARK   15  A    between atoms: P1_21  and  O7_24 
REMARK   16  A    between atoms: O7_24  and  P2_25 
REMARK   17  A    between atoms: P2_25  and  O9_27 
REMARK   18  A    between atoms: P2_25  and  O10_28 
REMARK   19  A    between atoms: O10_28  and  C14_29 
REMARK   20  A    between atoms: C14_29  and  C15_30 
REMARK   21  A    between atoms: C16_31  and  O13_49 
REMARK   22  A    between atoms: C17_32  and  O12_48 
REMARK   23  A    between atoms: C18_33  and  N3_35 
REMARK   24  A    between atoms: C21_40  and  N7_47 
REMARK   25  A    between atoms: O13_49  and  P3_50 
REMARK   26  A    between atoms: P3_50  and  O15_52 
REMARK   27  A    between atoms: P3_50  and  O16_53 
ROOT
HETATM    1  C1  UNL     1     -28.179   4.046  17.938  1.00  0.00     0.104 C 
HETATM    2  C2  UNL     1     -28.765   2.814  17.317  1.00  0.00     0.182 C 
HETATM    3  O1  UNL     1     -28.126   2.054  16.594  1.00  0.00    -0.286 OA
ENDROOT
BRANCH   2   4
HETATM    4  S1  UNL     1     -30.467   2.560  17.678  1.00  0.00    -0.091 SA
BRANCH   4   5
HETATM    5  C3  UNL     1     -30.387   0.929  18.486  1.00  0.00     0.102 C 
BRANCH   5   6
HETATM    6  C4  UNL     1     -30.968  -0.175  17.600  1.00  0.00     0.133 C 
BRANCH   6   7
HETATM    7  N1  UNL     1     -29.974  -0.785  16.741  1.00  0.00    -0.360 N 
HETATM    8  C5  UNL     1     -29.969  -0.581  15.381  1.00  0.00     0.219 C 
HETATM    9  O2  UNL     1     -30.845   0.056  14.806  1.00  0.00    -0.274 OA
HETATM   10  H8  UNL     1     -29.262  -1.368  17.159  1.00  0.00     0.162 HD
BRANCH   8  11
HETATM   11  C6  UNL     1     -28.815  -1.261  14.677  1.00  0.00     0.122 C 
BRANCH  11  12
HETATM   12  C7  UNL     1     -28.934  -1.159  13.156  1.00  0.00     0.132 C 
BRANCH  12  13
HETATM   13  N2  UNL     1     -28.548   0.138  12.642  1.00  0.00    -0.358 N 
HETATM   14  C8  UNL     1     -27.270   0.341  12.154  1.00  0.00     0.247 C 
HETATM   15  O3  UNL     1     -26.395  -0.511  12.242  1.00  0.00    -0.271 OA
HETATM   16  H13 UNL     1     -29.298   0.686  12.226  1.00  0.00     0.162 HD
BRANCH  14  17
HETATM   17  C9  UNL     1     -27.048   1.703  11.479  1.00  0.00     0.219 C 
BRANCH  17  18
HETATM   18  C10 UNL     1     -25.992   2.601  12.176  1.00  0.00     0.009 C 
HETATM   19  C11 UNL     1     -24.772   1.797  12.650  1.00  0.00     0.020 C 
HETATM   20  C12 UNL     1     -25.491   3.717  11.237  1.00  0.00     0.020 C 
BRANCH  18  21
HETATM   21  C13 UNL     1     -26.711   3.231  13.403  1.00  0.00     0.192 C 
BRANCH  21  22
HETATM   22  O4  UNL     1     -27.740   4.123  13.025  1.00  0.00    -0.296 OA
BRANCH  22  23
HETATM   23  P1  UNL     1     -29.245   3.994  13.562  1.00  0.00     0.401 P 
HETATM   24  O5  UNL     1     -29.607   4.996  14.613  1.00  0.00    -0.631 OA
BRANCH  23  25
HETATM   25  O6  UNL     1     -29.444   2.466  14.026  1.00  0.00    -0.307 OA
HETATM   26  H23 UNL     1     -30.358   2.280  14.278  1.00  0.00     0.222 HD
ENDBRANCH  23  25
BRANCH  23  27
HETATM   27  O7  UNL     1     -30.153   4.042  12.257  1.00  0.00    -0.195 OA
BRANCH  27  28
HETATM   28  P2  UNL     1     -31.452   3.123  12.189  1.00  0.00     0.401 P 
HETATM   29  O8  UNL     1     -32.086   2.748  13.489  1.00  0.00    -0.631 OA
BRANCH  28  30
HETATM   30  O9  UNL     1     -32.417   3.925  11.202  1.00  0.00    -0.307 OA
HETATM   31  H24 UNL     1     -32.666   4.825  11.524  1.00  0.00     0.222 HD
ENDBRANCH  28  30
BRANCH  28  32
HETATM   32  O10 UNL     1     -31.017   1.907  11.250  1.00  0.00    -0.294 OA
BRANCH  32  33
HETATM   33  C14 UNL     1     -30.079   2.111  10.226  1.00  0.00     0.215 C 
BRANCH  33  34
HETATM   34  C15 UNL     1     -30.441   1.130   9.112  1.00  0.00     0.180 C 
HETATM   35  C16 UNL     1     -31.575   0.223   9.574  1.00  0.00     0.197 C 
HETATM   36  C17 UNL     1     -30.983  -1.173   9.551  1.00  0.00     0.199 C 
HETATM   37  C18 UNL     1     -29.868  -1.035   8.511  1.00  0.00     0.262 C 
HETATM   38  O11 UNL     1     -29.345   0.294   8.725  1.00  0.00    -0.353 OA
BRANCH  35  39
HETATM   39  O13 UNL     1     -32.654   0.364   8.655  1.00  0.00    -0.286 OA
BRANCH  39  40
HETATM   40  P3  UNL     1     -34.114   0.390   9.307  1.00  0.00     0.391 P 
HETATM   41  O14 UNL     1     -34.617  -0.958   9.711  1.00  0.00    -0.632 OA
BRANCH  40  42
HETATM   42  O15 UNL     1     -34.930   1.178   8.179  1.00  0.00    -0.307 OA
HETATM   43  H36 UNL     1     -34.812   2.153   8.280  1.00  0.00     0.222 HD
ENDBRANCH  40  42
BRANCH  40  44
HETATM   44  O16 UNL     1     -33.930   1.480  10.449  1.00  0.00    -0.307 OA
HETATM   45  H37 UNL     1     -34.730   2.009  10.597  1.00  0.00     0.222 HD
ENDBRANCH  40  44
ENDBRANCH  39  40
ENDBRANCH  35  39
BRANCH  36  46
HETATM   46  O12 UNL     1     -32.004  -2.141   9.294  1.00  0.00    -0.388 OA
HETATM   47  H35 UNL     1     -31.544  -2.952   8.971  1.00  0.00     0.210 HD
ENDBRANCH  36  46
BRANCH  37  48
HETATM   48  N3  UNL     1     -28.800  -1.994   8.710  1.00  0.00    -0.297 N 
HETATM   49  C19 UNL     1     -27.491  -1.725   9.033  1.00  0.00     0.188 A 
HETATM   50  N4  UNL     1     -26.800  -2.819   9.268  1.00  0.00    -0.346 N 
HETATM   51  C20 UNL     1     -27.708  -3.849   9.093  1.00  0.00     0.116 A 
HETATM   52  H4  UNL     1     -25.815  -2.893   9.523  1.00  0.00     0.167 HD
HETATM   53  C21 UNL     1     -27.606  -5.244   9.237  1.00  0.00     0.109 A 
HETATM   54  C23 UNL     1     -28.941  -3.354   8.709  1.00  0.00     0.142 A 
HETATM   55  N5  UNL     1     -28.697  -6.004   8.977  1.00  0.00    -0.341 N 
HETATM   56  C22 UNL     1     -29.829  -5.384   8.587  1.00  0.00     0.183 A 
HETATM   57  H5  UNL     1     -28.663  -7.019   9.074  1.00  0.00     0.167 HD
HETATM   58  N6  UNL     1     -30.047  -4.063   8.424  1.00  0.00    -0.336 N 
HETATM   59  H6  UNL     1     -30.933  -3.656   8.124  1.00  0.00     0.168 HD
BRANCH  53  60
HETATM   60  N7  UNL     1     -26.441  -5.887   9.624  1.00  0.00    -0.287 NA
HETATM   61  H33 UNL     1     -25.924  -6.313   8.858  1.00  0.00     0.125 HD
HETATM   62  H34 UNL     1     -26.556  -6.443  10.460  1.00  0.00     0.125 HD
ENDBRANCH  53  60
ENDBRANCH  37  48
ENDBRANCH  33  34
ENDBRANCH  32  33
ENDBRANCH  28  32
ENDBRANCH  27  28
ENDBRANCH  23  27
ENDBRANCH  22  23
ENDBRANCH  21  22
ENDBRANCH  18  21
ENDBRANCH  17  18
BRANCH  17  63
HETATM   63  O17 UNL     1     -26.657   1.518  10.114  1.00  0.00    -0.385 OA
HETATM   64  H38 UNL     1     -27.111   2.190   9.577  1.00  0.00     0.210 HD
ENDBRANCH  17  63
ENDBRANCH  14  17
ENDBRANCH  12  13
ENDBRANCH  11  12
ENDBRANCH   8  11
ENDBRANCH   6   7
ENDBRANCH   5   6
ENDBRANCH   4   5
ENDBRANCH   2   4
TORSDOF 27
ENDMDL
MODEL 2
REMARK VINA RESULT:      -5.3      4.438      9.067
REMARK  27 active torsions:
REMARK  status: ('A' for Active; 'I' for Inactive)
REMARK    1  A    between atoms: C2_2  and  S1_4 
REMARK    2  A    between atoms: S1_4  and  C3_5 
REMARK    3  A    between atoms: C3_5  and  C4_6 
REMARK    4  A    between atoms: C4_6  and  N1_7 
REMARK       I    between atoms: N1_7  and  C5_8 
REMARK    5  A    between atoms: C5_8  and  C6_10 
REMARK    6  A    between atoms: C6_10  and  C7_11 
REMARK    7  A    between atoms: C7_11  and  N2_12 
REMARK       I    between atoms: N2_12  and  C8_13 
REMARK    8  A    between atoms: C8_13  and  C9_15 
REMARK    9  A    between atoms: C9_15  and  C10_16 
REMARK   10  A    between atoms: C9_15  and  O17_54 
REMARK   11  A    between atoms: C10_16  and  C13_19 
REMARK   12  A    between atoms: C13_19  and  O4_20 
REMARK   13  A    between atoms: O4_20  and  P1_21 
REMARK   14  A    between atoms: P1_21  and  O6_23 
REMARK   15  A    between atoms: P1_21  and  O7_24 
REMARK   16  A    between atoms: O7_24  and  P2_25 
REMARK   17  A    between atoms: P2_25  and  O9_27 
REMARK   18  A    between atoms: P2_25  and  O10_28 
REMARK   19  A    between atoms: O10_28  and  C14_29 
REMARK   20  A    between atoms: C14_29  and  C15_30 
REMARK   21  A    between atoms: C16_31  and  O13_49 
REMARK   22  A    between atoms: C17_32  and  O12_48 
REMARK   23  A    between atoms: C18_33  and  N3_35 
REMARK   24  A    between atoms: C21_40  and  N7_47 
REMARK   25  A    between atoms: O13_49  and  P3_50 
REMARK   26  A    between atoms: P3_50  and  O15_52 
REMARK   27  A    between atoms: P3_50  and  O16_53 
ROOT
HETATM    1  C1  UNL     1     -28.903  -8.028   8.852  1.00  0.00     0.104 C 
HETATM    2  C2  UNL     1     -29.266  -6.879   7.962  1.00  0.00     0.182 C 
HETATM    3  O1  UNL     1     -29.141  -6.906   6.740  1.00  0.00    -0.286 OA
ENDROOT
BRANCH   2   4
HETATM    4  S1  UNL     1     -29.853  -5.458   8.816  1.00  0.00    -0.091 SA
BRANCH   4   5
HETATM    5  C3  UNL     1     -28.388  -5.058   9.824  1.00  0.00     0.102 C 
BRANCH   5   6
HETATM    6  C4  UNL     1     -28.556  -3.734  10.572  1.00  0.00     0.133 C 
BRANCH   6   7
HETATM    7  N1  UNL     1     -27.766  -2.664   9.998  1.00  0.00    -0.360 N 
HETATM    8  C5  UNL     1     -28.297  -1.781   9.087  1.00  0.00     0.219 C 
HETATM    9  O2  UNL     1     -29.435  -1.892   8.646  1.00  0.00    -0.274 OA
HETATM   10  H8  UNL     1     -26.802  -2.563  10.285  1.00  0.00     0.162 HD
BRANCH   8  11
HETATM   11  C6  UNL     1     -27.322  -0.707   8.655  1.00  0.00     0.122 C 
BRANCH  11  12
HETATM   12  C7  UNL     1     -28.008   0.646   8.471  1.00  0.00     0.132 C 
BRANCH  12  13
HETATM   13  N2  UNL     1     -28.841   1.018   9.595  1.00  0.00    -0.358 N 
HETATM   14  C8  UNL     1     -30.163   1.370   9.397  1.00  0.00     0.247 C 
HETATM   15  O3  UNL     1     -30.643   1.496   8.277  1.00  0.00    -0.271 OA
HETATM   16  H13 UNL     1     -28.605   0.575  10.480  1.00  0.00     0.162 HD
BRANCH  14  17
HETATM   17  C9  UNL     1     -30.977   1.568  10.684  1.00  0.00     0.219 C 
BRANCH  17  18
HETATM   18  C10 UNL     1     -31.641   0.277  11.230  1.00  0.00     0.009 C 
HETATM   19  C11 UNL     1     -32.695   0.579  12.306  1.00  0.00     0.020 C 
HETATM   20  C12 UNL     1     -32.326  -0.526  10.106  1.00  0.00     0.020 C 
BRANCH  18  21
HETATM   21  C13 UNL     1     -30.489  -0.565  11.849  1.00  0.00     0.192 C 
BRANCH  21  22
HETATM   22  O4  UNL     1     -30.314  -0.308  13.228  1.00  0.00    -0.296 OA
BRANCH  22  23
HETATM   23  P1  UNL     1     -28.916  -0.521  13.983  1.00  0.00     0.401 P 
HETATM   24  O5  UNL     1     -28.103  -1.661  13.455  1.00  0.00    -0.631 OA
BRANCH  23  25
HETATM   25  O6  UNL     1     -29.248  -0.634  15.554  1.00  0.00    -0.307 OA
HETATM   26  H23 UNL     1     -29.657  -1.480  15.778  1.00  0.00     0.222 HD
ENDBRANCH  23  25
BRANCH  23  27
HETATM   27  O7  UNL     1     -28.195   0.895  13.921  1.00  0.00    -0.195 OA
BRANCH  27  28
HETATM   28  P2  UNL     1     -28.727   2.072  14.853  1.00  0.00     0.401 P 
HETATM   29  O8  UNL     1     -30.201   2.314  14.863  1.00  0.00    -0.631 OA
BRANCH  28  30
HETATM   30  O9  UNL     1     -28.118   1.710  16.284  1.00  0.00    -0.307 OA
HETATM   31  H24 UNL     1     -28.797   1.573  16.989  1.00  0.00     0.222 HD
ENDBRANCH  28  30
BRANCH  28  32
HETATM   32  O10 UNL     1     -27.817   3.322  14.455  1.00  0.00    -0.294 OA
BRANCH  32  33
HETATM   33  C14 UNL     1     -26.845   3.797  15.349  1.00  0.00     0.215 C 
BRANCH  33  34
HETATM   34  C15 UNL     1     -25.661   4.246  14.494  1.00  0.00     0.180 C 
HETATM   35  C16 UNL     1     -25.347   3.183  13.450  1.00  0.00     0.197 C 
HETATM   36  C17 UNL     1     -23.938   2.726  13.779  1.00  0.00     0.199 C 
HETATM   37  C18 UNL     1     -23.362   3.949  14.497  1.00  0.00     0.262 C 
HETATM   38  O11 UNL     1     -24.472   4.471  15.260  1.00  0.00    -0.353 OA
BRANCH  35  39
HETATM   39  O13 UNL     1     -25.428   3.789  12.164  1.00  0.00    -0.286 OA
BRANCH  39  40
HETATM   40  P3  UNL     1     -26.390   3.059  11.118  1.00  0.00     0.391 P 
HETATM   41  O14 UNL     1     -27.790   3.582  11.119  1.00  0.00    -0.632 OA
BRANCH  40  42
HETATM   42  O15 UNL     1     -26.171   1.528  11.527  1.00  0.00    -0.307 OA
HETATM   43  H36 UNL     1     -25.716   1.463  12.400  1.00  0.00     0.222 HD
ENDBRANCH  40  42
BRANCH  40  44
HETATM   44  O16 UNL     1     -25.554   3.196   9.772  1.00  0.00    -0.307 OA
HETATM   45  H37 UNL     1     -26.044   2.892   8.991  1.00  0.00     0.222 HD
ENDBRANCH  40  44
ENDBRANCH  39  40
ENDBRANCH  35  39
BRANCH  36  46
HETATM   46  O12 UNL     1     -23.270   2.285  12.594  1.00  0.00    -0.388 OA
HETATM   47  H35 UNL     1     -22.801   1.451  12.833  1.00  0.00     0.210 HD
ENDBRANCH  36  46
BRANCH  37  48
HETATM   48  N3  UNL     1     -22.290   3.604  15.410  1.00  0.00    -0.297 N 
HETATM   49  C19 UNL     1     -22.399   3.323  16.751  1.00  0.00     0.188 A 
HETATM   50  N4  UNL     1     -21.260   2.922  17.271  1.00  0.00    -0.346 N 
HETATM   51  C20 UNL     1     -20.368   2.941  16.213  1.00  0.00     0.116 A 
HETATM   52  H4  UNL     1     -21.074   2.657  18.239  1.00  0.00     0.167 HD
HETATM   53  C21 UNL     1     -19.012   2.586  16.104  1.00  0.00     0.109 A 
HETATM   54  C23 UNL     1     -20.984   3.399  15.063  1.00  0.00     0.142 A 
HETATM   55  N5  UNL     1     -18.399   2.730  14.904  1.00  0.00    -0.341 N 
HETATM   56  C22 UNL     1     -19.120   3.212  13.872  1.00  0.00     0.183 A 
HETATM   57  H5  UNL     1     -17.417   2.479  14.784  1.00  0.00     0.167 HD
HETATM   58  N6  UNL     1     -20.419   3.575  13.855  1.00  0.00    -0.336 N 
HETATM   59  H6  UNL     1     -20.908   3.936  13.036  1.00  0.00     0.168 HD
BRANCH  53  60
HETATM   60  N7  UNL     1     -18.263   2.103  17.164  1.00  0.00    -0.287 NA
HETATM   61  H33 UNL     1     -17.259   2.242  17.066  1.00  0.00     0.125 HD
HETATM   62  H34 UNL     1     -18.567   1.192  17.481  1.00  0.00     0.125 HD
ENDBRANCH  53  60
ENDBRANCH  37  48
ENDBRANCH  33  34
ENDBRANCH  32  33
ENDBRANCH  28  32
ENDBRANCH  27  28
ENDBRANCH  23  27
ENDBRANCH  22  23
ENDBRANCH  21  22
ENDBRANCH  18  21
ENDBRANCH  17  18
BRANCH  17  63
HETATM   63  O17 UNL     1     -30.148   2.123  11.711  1.00  0.00    -0.385 OA
HETATM   64  H38 UNL     1     -30.437   1.756  12.563  1.00  0.00     0.210 HD
ENDBRANCH  17  63
ENDBRANCH  14  17
ENDBRANCH  12  13
ENDBRANCH  11  12
ENDBRANCH   8  11
ENDBRANCH   6   7
ENDBRANCH   5   6
ENDBRANCH   4   5
ENDBRANCH   2   4
TORSDOF 27
ENDMDL
MODEL 3
REMARK VINA RESULT:      -5.1      5.987      8.730
REMARK  27 active torsions:
REMARK  status: ('A' for Active; 'I' for Inactive)
REMARK    1  A    between atoms: C2_2  and  S1_4 
REMARK    2  A    between atoms: S1_4  and  C3_5 
REMARK    3  A    between atoms: C3_5  and  C4_6 
REMARK    4  A    between atoms: C4_6  and  N1_7 
REMARK       I    between atoms: N1_7  and  C5_8 
REMARK    5  A    between atoms: C5_8  and  C6_10 
REMARK    6  A    between atoms: C6_10  and  C7_11 
REMARK    7  A    between atoms: C7_11  and  N2_12 
REMARK       I    between atoms: N2_12  and  C8_13 
REMARK    8  A    between atoms: C8_13  and  C9_15 
REMARK    9  A    between atoms: C9_15  and  C10_16 
REMARK   10  A    between atoms: C9_15  and  O17_54 
REMARK   11  A    between atoms: C10_16  and  C13_19 
REMARK   12  A    between atoms: C13_19  and  O4_20 
REMARK   13  A    between atoms: O4_20  and  P1_21 
REMARK   14  A    between atoms: P1_21  and  O6_23 
REMARK   15  A    between atoms: P1_21  and  O7_24 
REMARK   16  A    between atoms: O7_24  and  P2_25 
REMARK   17  A    between atoms: P2_25  and  O9_27 
REMARK   18  A    between atoms: P2_25  and  O10_28 
REMARK   19  A    between atoms: O10_28  and  C14_29 
REMARK   20  A    between atoms: C14_29  and  C15_30 
REMARK   21  A    between atoms: C16_31  and  O13_49 
REMARK   22  A    between atoms: C17_32  and  O12_48 
REMARK   23  A    between atoms: C18_33  and  N3_35 
REMARK   24  A    between atoms: C21_40  and  N7_47 
REMARK   25  A    between atoms: O13_49  and  P3_50 
REMARK   26  A    between atoms: P3_50  and  O15_52 
REMARK   27  A    between atoms: P3_50  and  O16_53 
ROOT
HETATM    1  C1  UNL     1     -30.337  -5.058   6.883  1.00  0.00     0.104 C 
HETATM    2  C2  UNL     1     -29.224  -5.987   7.264  1.00  0.00     0.182 C 
HETATM    3  O1  UNL     1     -28.489  -6.531   6.444  1.00  0.00    -0.286 OA
ENDROOT
BRANCH   2   4
HETATM    4  S1  UNL     1     -29.076  -6.270   8.993  1.00  0.00    -0.091 SA
BRANCH   4   5
HETATM    5  C3  UNL     1     -27.388  -5.647   9.280  1.00  0.00     0.102 C 
BRANCH   5   6
HETATM    6  C4  UNL     1     -27.207  -4.225   8.746  1.00  0.00     0.133 C 
BRANCH   6   7
HETATM    7  N1  UNL     1     -27.656  -3.215   9.682  1.00  0.00    -0.360 N 
HETATM    8  C5  UNL     1     -28.504  -2.201   9.301  1.00  0.00     0.219 C 
HETATM    9  O2  UNL     1     -28.864  -2.042   8.140  1.00  0.00    -0.274 OA
HETATM   10  H8  UNL     1     -27.341  -3.266  10.642  1.00  0.00     0.162 HD
BRANCH   8  11
HETATM   11  C6  UNL     1     -28.895  -1.286  10.442  1.00  0.00     0.122 C 
BRANCH  11  12
HETATM   12  C7  UNL     1     -28.888  -2.014  11.786  1.00  0.00     0.132 C 
BRANCH  12  13
HETATM   13  N2  UNL     1     -29.502  -1.248  12.850  1.00  0.00    -0.358 N 
HETATM   14  C8  UNL     1     -28.972  -1.281  14.127  1.00  0.00     0.247 C 
HETATM   15  O3  UNL     1     -28.056  -2.034  14.433  1.00  0.00    -0.271 OA
HETATM   16  H13 UNL     1     -29.966  -0.390  12.560  1.00  0.00     0.162 HD
BRANCH  14  17
HETATM   17  C9  UNL     1     -29.608  -0.290  15.113  1.00  0.00     0.219 C 
BRANCH  17  18
HETATM   18  C10 UNL     1     -29.384   1.204  14.758  1.00  0.00     0.009 C 
HETATM   19  C11 UNL     1     -28.915   2.023  15.969  1.00  0.00     0.020 C 
HETATM   20  C12 UNL     1     -28.336   1.368  13.639  1.00  0.00     0.020 C 
BRANCH  18  21
HETATM   21  C13 UNL     1     -30.762   1.736  14.269  1.00  0.00     0.192 C 
BRANCH  21  22
HETATM   22  O4  UNL     1     -31.177   1.128  13.062  1.00  0.00    -0.296 OA
BRANCH  22  23
HETATM   23  P1  UNL     1     -32.611   1.401  12.398  1.00  0.00     0.401 P 
HETATM   24  O5  UNL     1     -32.551   2.122  11.088  1.00  0.00    -0.631 OA
BRANCH  23  25
HETATM   25  O6  UNL     1     -33.504   2.147  13.510  1.00  0.00    -0.307 OA
HETATM   26  H23 UNL     1     -34.438   2.177  13.263  1.00  0.00     0.222 HD
ENDBRANCH  23  25
BRANCH  23  27
HETATM   27  O7  UNL     1     -33.315  -0.025  12.341  1.00  0.00    -0.195 OA
BRANCH  27  28
HETATM   28  P2  UNL     1     -34.844  -0.111  11.904  1.00  0.00     0.401 P 
HETATM   29  O8  UNL     1     -35.602   1.174  11.835  1.00  0.00    -0.631 OA
BRANCH  28  30
HETATM   30  O9  UNL     1     -34.785  -0.907  10.520  1.00  0.00    -0.307 OA
HETATM   31  H24 UNL     1     -34.458  -0.368   9.759  1.00  0.00     0.222 HD
ENDBRANCH  28  30
BRANCH  28  32
HETATM   32  O10 UNL     1     -35.457  -1.232  12.861  1.00  0.00    -0.294 OA
BRANCH  32  33
HETATM   33  C14 UNL     1     -36.794  -1.632  12.709  1.00  0.00     0.215 C 
BRANCH  33  34
HETATM   34  C15 UNL     1     -37.288  -2.011  14.104  1.00  0.00     0.180 C 
HETATM   35  C16 UNL     1     -36.116  -2.486  14.954  1.00  0.00     0.197 C 
HETATM   36  C17 UNL     1     -36.446  -3.928  15.292  1.00  0.00     0.199 C 
HETATM   37  C18 UNL     1     -37.973  -3.942  15.190  1.00  0.00     0.262 C 
HETATM   38  O11 UNL     1     -38.266  -3.057  14.086  1.00  0.00    -0.353 OA
BRANCH  35  39
HETATM   39  O13 UNL     1     -36.051  -1.664  16.115  1.00  0.00    -0.286 OA
BRANCH  39  40
HETATM   40  P3  UNL     1     -34.738  -0.762  16.247  1.00  0.00     0.391 P 
HETATM   41  O14 UNL     1     -34.255  -0.603  17.653  1.00  0.00    -0.632 OA
BRANCH  40  42
HETATM   42  O15 UNL     1     -35.202   0.557  15.470  1.00  0.00    -0.307 OA
HETATM   43  H36 UNL     1     -34.859   0.556  14.544  1.00  0.00     0.222 HD
ENDBRANCH  40  42
BRANCH  40  44
HETATM   44  O16 UNL     1     -33.763  -1.469  15.209  1.00  0.00    -0.307 OA
HETATM   45  H37 UNL     1     -34.222  -1.777  14.411  1.00  0.00     0.222 HD
ENDBRANCH  40  44
ENDBRANCH  39  40
ENDBRANCH  35  39
BRANCH  36  46
HETATM   46  O12 UNL     1     -35.868  -4.287  16.549  1.00  0.00    -0.388 OA
HETATM   47  H35 UNL     1     -35.742  -3.445  17.048  1.00  0.00     0.210 HD
ENDBRANCH  36  46
BRANCH  37  48
HETATM   48  N3  UNL     1     -38.499  -5.257  14.886  1.00  0.00    -0.297 N 
HETATM   49  C19 UNL     1     -39.138  -6.118  15.748  1.00  0.00     0.188 A 
HETATM   50  N4  UNL     1     -39.607  -7.182  15.134  1.00  0.00    -0.346 N 
HETATM   51  C20 UNL     1     -39.260  -7.000  13.807  1.00  0.00     0.116 A 
HETATM   52  H4  UNL     1     -40.114  -7.966  15.544  1.00  0.00     0.167 HD
HETATM   53  C21 UNL     1     -39.506  -7.754  12.646  1.00  0.00     0.109 A 
HETATM   54  C23 UNL     1     -38.539  -5.831  13.646  1.00  0.00     0.142 A 
HETATM   55  N5  UNL     1     -39.013  -7.306  11.465  1.00  0.00    -0.341 N 
HETATM   56  C22 UNL     1     -38.306  -6.159  11.463  1.00  0.00     0.183 A 
HETATM   57  H5  UNL     1     -39.174  -7.824  10.601  1.00  0.00     0.167 HD
HETATM   58  N6  UNL     1     -38.016  -5.352  12.503  1.00  0.00    -0.336 N 
HETATM   59  H6  UNL     1     -37.472  -4.491  12.434  1.00  0.00     0.168 HD
BRANCH  53  60
HETATM   60  N7  UNL     1     -40.220  -8.942  12.645  1.00  0.00    -0.287 NA
HETATM   61  H33 UNL     1     -39.679  -9.755  12.358  1.00  0.00     0.125 HD
HETATM   62  H34 UNL     1     -41.145  -8.846  12.249  1.00  0.00     0.125 HD
ENDBRANCH  53  60
ENDBRANCH  37  48
ENDBRANCH  33  34
ENDBRANCH  32  33
ENDBRANCH  28  32
ENDBRANCH  27  28
ENDBRANCH  23  27
ENDBRANCH  22  23
ENDBRANCH  21  22
ENDBRANCH  18  21
ENDBRANCH  17  18
BRANCH  17  63
HETATM   63  O17 UNL     1     -31.016  -0.528  15.212  1.00  0.00    -0.385 OA
HETATM   64  H38 UNL     1     -31.286  -1.066  14.449  1.00  0.00     0.210 HD
ENDBRANCH  17  63
ENDBRANCH  14  17
ENDBRANCH  12  13
ENDBRANCH  11  12
ENDBRANCH   8  11
ENDBRANCH   6   7
ENDBRANCH   5   6
ENDBRANCH   4   5
ENDBRANCH   2   4
TORSDOF 27
ENDMDL
MODEL 4
REMARK VINA RESULT:      -5.0      3.603      6.082
REMARK  27 active torsions:
REMARK  status: ('A' for Active; 'I' for Inactive)
REMARK    1  A    between atoms: C2_2  and  S1_4 
REMARK    2  A    between atoms: S1_4  and  C3_5 
REMARK    3  A    between atoms: C3_5  and  C4_6 
REMARK    4  A    between atoms: C4_6  and  N1_7 
REMARK       I    between atoms: N1_7  and  C5_8 
REMARK    5  A    between atoms: C5_8  and  C6_10 
REMARK    6  A    between atoms: C6_10  and  C7_11 
REMARK    7  A    between atoms: C7_11  and  N2_12 
REMARK       I    between atoms: N2_12  and  C8_13 
REMARK    8  A    between atoms: C8_13  and  C9_15 
REMARK    9  A    between atoms: C9_15  and  C10_16 
REMARK   10  A    between atoms: C9_15  and  O17_54 
REMARK   11  A    between atoms: C10_16  and  C13_19 
REMARK   12  A    between atoms: C13_19  and  O4_20 
REMARK   13  A    between atoms: O4_20  and  P1_21 
REMARK   14  A    between atoms: P1_21  and  O6_23 
REMARK   15  A    between atoms: P1_21  and  O7_24 
REMARK   16  A    between atoms: O7_24  and  P2_25 
REMARK   17  A    between atoms: P2_25  and  O9_27 
REMARK   18  A    between atoms: P2_25  and  O10_28 
REMARK   19  A    between atoms: O10_28  and  C14_29 
REMARK   20  A    between atoms: C14_29  and  C15_30 
REMARK   21  A    between atoms: C16_31  and  O13_49 
REMARK   22  A    between atoms: C17_32  and  O12_48 
REMARK   23  A    between atoms: C18_33  and  N3_35 
REMARK   24  A    between atoms: C21_40  and  N7_47 
REMARK   25  A    between atoms: O13_49  and  P3_50 
REMARK   26  A    between atoms: P3_50  and  O15_52 
REMARK   27  A    between atoms: P3_50  and  O16_53 
ROOT
HETATM    1  C1  UNL     1     -33.308   9.198  17.584  1.00  0.00     0.104 C 
HETATM    2  C2  UNL     1     -32.243   8.876  16.580  1.00  0.00     0.182 C 
HETATM    3  O1  UNL     1     -31.057   8.745  16.873  1.00  0.00    -0.286 OA
ENDROOT
BRANCH   2   4
HETATM    4  S1  UNL     1     -32.824   8.738  14.926  1.00  0.00    -0.091 SA
BRANCH   4   5
HETATM    5  C3  UNL     1     -31.616   7.549  14.257  1.00  0.00     0.102 C 
BRANCH   5   6
HETATM    6  C4  UNL     1     -31.701   6.193  14.961  1.00  0.00     0.133 C 
BRANCH   6   7
HETATM    7  N1  UNL     1     -30.456   5.816  15.599  1.00  0.00    -0.360 N 
HETATM    8  C5  UNL     1     -30.432   5.156  16.805  1.00  0.00     0.219 C 
HETATM    9  O2  UNL     1     -31.448   4.920  17.449  1.00  0.00    -0.274 OA
HETATM   10  H8  UNL     1     -29.585   6.039  15.136  1.00  0.00     0.162 HD
BRANCH   8  11
HETATM   11  C6  UNL     1     -29.035   4.805  17.269  1.00  0.00     0.122 C 
BRANCH  11  12
HETATM   12  C7  UNL     1     -28.865   3.301  17.483  1.00  0.00     0.132 C 
BRANCH  12  13
HETATM   13  N2  UNL     1     -29.843   2.512  16.765  1.00  0.00    -0.358 N 
HETATM   14  C8  UNL     1     -29.436   1.591  15.817  1.00  0.00     0.247 C 
HETATM   15  O3  UNL     1     -28.267   1.492  15.465  1.00  0.00    -0.271 OA
HETATM   16  H13 UNL     1     -30.700   2.307  17.275  1.00  0.00     0.162 HD
BRANCH  14  17
HETATM   17  C9  UNL     1     -30.557   0.700  15.261  1.00  0.00     0.219 C 
BRANCH  17  18
HETATM   18  C10 UNL     1     -31.409   1.359  14.145  1.00  0.00     0.009 C 
HETATM   19  C11 UNL     1     -32.755   1.874  14.674  1.00  0.00     0.020 C 
HETATM   20  C12 UNL     1     -30.668   2.545  13.495  1.00  0.00     0.020 C 
BRANCH  18  21
HETATM   21  C13 UNL     1     -31.655   0.248  13.084  1.00  0.00     0.192 C 
BRANCH  21  22
HETATM   22  O4  UNL     1     -30.901   0.452  11.906  1.00  0.00    -0.296 OA
BRANCH  22  23
HETATM   23  P1  UNL     1     -31.575   0.652  10.465  1.00  0.00     0.401 P 
HETATM   24  O5  UNL     1     -30.743   1.443   9.505  1.00  0.00    -0.631 OA
BRANCH  23  25
HETATM   25  O6  UNL     1     -33.039   1.272  10.718  1.00  0.00    -0.307 OA
HETATM   26  H23 UNL     1     -33.175   2.092  10.226  1.00  0.00     0.222 HD
ENDBRANCH  23  25
BRANCH  23  27
HETATM   27  O7  UNL     1     -31.941  -0.816   9.975  1.00  0.00    -0.195 OA
BRANCH  27  28
HETATM   28  P2  UNL     1     -33.094  -1.001   8.891  1.00  0.00     0.401 P 
HETATM   29  O8  UNL     1     -34.479  -1.214   9.407  1.00  0.00    -0.631 OA
BRANCH  28  30
HETATM   30  O9  UNL     1     -32.935   0.288   7.963  1.00  0.00    -0.307 OA
HETATM   31  H24 UNL     1     -32.000   0.587   7.844  1.00  0.00     0.222 HD
ENDBRANCH  28  30
BRANCH  28  32
HETATM   32  O10 UNL     1     -32.530  -2.135   7.918  1.00  0.00    -0.294 OA
BRANCH  32  33
HETATM   33  C14 UNL     1     -31.755  -3.184   8.436  1.00  0.00     0.215 C 
BRANCH  33  34
HETATM   34  C15 UNL     1     -30.364  -3.031   7.824  1.00  0.00     0.180 C 
HETATM   35  C16 UNL     1     -29.410  -4.038   8.454  1.00  0.00     0.197 C 
HETATM   36  C17 UNL     1     -28.354  -3.191   9.139  1.00  0.00     0.199 C 
HETATM   37  C18 UNL     1     -28.409  -1.892   8.331  1.00  0.00     0.262 C 
HETATM   38  O11 UNL     1     -29.809  -1.725   8.019  1.00  0.00    -0.353 OA
BRANCH  35  39
HETATM   39  O13 UNL     1     -28.863  -4.838   7.411  1.00  0.00    -0.286 OA
BRANCH  39  40
HETATM   40  P3  UNL     1     -28.944  -6.418   7.641  1.00  0.00     0.391 P 
HETATM   41  O14 UNL     1     -29.502  -7.169   6.476  1.00  0.00    -0.632 OA
BRANCH  40  42
HETATM   42  O15 UNL     1     -29.756  -6.479   9.019  1.00  0.00    -0.307 OA
HETATM   43  H36 UNL     1     -30.665  -6.834   8.872  1.00  0.00     0.222 HD
ENDBRANCH  40  42
BRANCH  40  44
HETATM   44  O16 UNL     1     -27.454  -6.749   8.085  1.00  0.00    -0.307 OA
HETATM   45  H37 UNL     1     -26.799  -6.163   7.673  1.00  0.00     0.222 HD
ENDBRANCH  40  44
ENDBRANCH  39  40
ENDBRANCH  35  39
BRANCH  36  46
HETATM   46  O12 UNL     1     -27.107  -3.889   9.176  1.00  0.00    -0.388 OA
HETATM   47  H35 UNL     1     -26.406  -3.215   9.008  1.00  0.00     0.210 HD
ENDBRANCH  36  46
BRANCH  37  48
HETATM   48  N3  UNL     1     -27.961  -0.743   9.093  1.00  0.00    -0.297 N 
HETATM   49  C19 UNL     1     -27.733   0.529   8.623  1.00  0.00     0.188 A 
HETATM   50  N4  UNL     1     -27.456   1.376   9.591  1.00  0.00    -0.346 N 
HETATM   51  C20 UNL     1     -27.512   0.616  10.746  1.00  0.00     0.116 A 
HETATM   52  H4  UNL     1     -27.247   2.370   9.508  1.00  0.00     0.167 HD
HETATM   53  C21 UNL     1     -27.356   0.937  12.106  1.00  0.00     0.109 A 
HETATM   54  C23 UNL     1     -27.785  -0.707  10.449  1.00  0.00     0.142 A 
HETATM   55  N5  UNL     1     -27.461  -0.056  13.023  1.00  0.00    -0.341 N 
HETATM   56  C22 UNL     1     -27.708  -1.306  12.584  1.00  0.00     0.183 A 
HETATM   57  H5  UNL     1     -27.357   0.139  14.018  1.00  0.00     0.167 HD
HETATM   58  N6  UNL     1     -27.884  -1.730  11.316  1.00  0.00    -0.336 N 
HETATM   59  H6  UNL     1     -28.069  -2.697  11.049  1.00  0.00     0.168 HD
BRANCH  53  60
HETATM   60  N7  UNL     1     -27.088   2.218  12.561  1.00  0.00    -0.287 NA
HETATM   61  H33 UNL     1     -27.343   2.956  11.908  1.00  0.00     0.125 HD
HETATM   62  H34 UNL     1     -26.184   2.297  13.007  1.00  0.00     0.125 HD
ENDBRANCH  53  60
ENDBRANCH  37  48
ENDBRANCH  33  34
ENDBRANCH  32  33
ENDBRANCH  28  32
ENDBRANCH  27  28
ENDBRANCH  23  27
ENDBRANCH  22  23
ENDBRANCH  21  22
ENDBRANCH  18  21
ENDBRANCH  17  18
BRANCH  17  63
HETATM   63  O17 UNL     1     -30.008  -0.522  14.754  1.00  0.00    -0.385 OA
HETATM   64  H38 UNL     1     -29.075  -0.567  15.020  1.00  0.00     0.210 HD
ENDBRANCH  17  63
ENDBRANCH  14  17
ENDBRANCH  12  13
ENDBRANCH  11  12
ENDBRANCH   8  11
ENDBRANCH   6   7
ENDBRANCH   5   6
ENDBRANCH   4   5
ENDBRANCH   2   4
TORSDOF 27
ENDMDL
MODEL 5
REMARK VINA RESULT:      -5.0      2.684      4.646
REMARK  27 active torsions:
REMARK  status: ('A' for Active; 'I' for Inactive)
REMARK    1  A    between atoms: C2_2  and  S1_4 
REMARK    2  A    between atoms: S1_4  and  C3_5 
REMARK    3  A    between atoms: C3_5  and  C4_6 
REMARK    4  A    between atoms: C4_6  and  N1_7 
REMARK       I    between atoms: N1_7  and  C5_8 
REMARK    5  A    between atoms: C5_8  and  C6_10 
REMARK    6  A    between atoms: C6_10  and  C7_11 
REMARK    7  A    between atoms: C7_11  and  N2_12 
REMARK       I    between atoms: N2_12  and  C8_13 
REMARK    8  A    between atoms: C8_13  and  C9_15 
REMARK    9  A    between atoms: C9_15  and  C10_16 
REMARK   10  A    between atoms: C9_15  and  O17_54 
REMARK   11  A    between atoms: C10_16  and  C13_19 
REMARK   12  A    between atoms: C13_19  and  O4_20 
REMARK   13  A    between atoms: O4_20  and  P1_21 
REMARK   14  A    between atoms: P1_21  and  O6_23 
REMARK   15  A    between atoms: P1_21  and  O7_24 
REMARK   16  A    between atoms: O7_24  and  P2_25 
REMARK   17  A    between atoms: P2_25  and  O9_27 
REMARK   18  A    between atoms: P2_25  and  O10_28 
REMARK   19  A    between atoms: O10_28  and  C14_29 
REMARK   20  A    between atoms: C14_29  and  C15_30 
REMARK   21  A    between atoms: C16_31  and  O13_49 
REMARK   22  A    between atoms: C17_32  and  O12_48 
REMARK   23  A    between atoms: C18_33  and  N3_35 
REMARK   24  A    between atoms: C21_40  and  N7_47 
REMARK   25  A    between atoms: O13_49  and  P3_50 
REMARK   26  A    between atoms: P3_50  and  O15_52 
REMARK   27  A    between atoms: P3_50  and  O16_53 
ROOT
HETATM    1  C1  UNL     1     -31.459  -0.882  17.451  1.00  0.00     0.104 C 
HETATM    2  C2  UNL     1     -31.288   0.503  17.997  1.00  0.00     0.182 C 
HETATM    3  O1  UNL     1     -31.539   0.805  19.161  1.00  0.00    -0.286 OA
ENDROOT
BRANCH   2   4
HETATM    4  S1  UNL     1     -30.733   1.683  16.818  1.00  0.00    -0.091 SA
BRANCH   4   5
HETATM    5  C3  UNL     1     -30.109   0.571  15.516  1.00  0.00     0.102 C 
BRANCH   5   6
HETATM    6  C4  UNL     1     -28.958   1.202  14.731  1.00  0.00     0.133 C 
BRANCH   6   7
HETATM    7  N1  UNL     1     -28.120   2.052  15.552  1.00  0.00    -0.360 N 
HETATM    8  C5  UNL     1     -26.950   2.594  15.075  1.00  0.00     0.219 C 
HETATM    9  O2  UNL     1     -26.505   2.330  13.964  1.00  0.00    -0.274 OA
HETATM   10  H8  UNL     1     -28.413   2.255  16.499  1.00  0.00     0.162 HD
BRANCH   8  11
HETATM   11  C6  UNL     1     -26.256   3.495  16.074  1.00  0.00     0.122 C 
BRANCH  11  12
HETATM   12  C7  UNL     1     -25.521   4.647  15.389  1.00  0.00     0.132 C 
BRANCH  12  13
HETATM   13  N2  UNL     1     -26.267   5.220  14.288  1.00  0.00    -0.358 N 
HETATM   14  C8  UNL     1     -27.042   6.349  14.483  1.00  0.00     0.247 C 
HETATM   15  O3  UNL     1     -27.223   6.830  15.595  1.00  0.00    -0.271 OA
HETATM   16  H13 UNL     1     -25.853   5.094  13.366  1.00  0.00     0.162 HD
BRANCH  14  17
HETATM   17  C9  UNL     1     -27.634   6.954  13.202  1.00  0.00     0.219 C 
BRANCH  17  18
HETATM   18  C10 UNL     1     -29.174   6.813  13.076  1.00  0.00     0.009 C 
HETATM   19  C11 UNL     1     -29.915   7.535  14.211  1.00  0.00     0.020 C 
HETATM   20  C12 UNL     1     -29.686   7.381  11.737  1.00  0.00     0.020 C 
BRANCH  18  21
HETATM   21  C13 UNL     1     -29.470   5.287  13.147  1.00  0.00     0.192 C 
BRANCH  21  22
HETATM   22  O4  UNL     1     -30.810   4.983  12.816  1.00  0.00    -0.296 OA
BRANCH  22  23
HETATM   23  P1  UNL     1     -31.209   3.860  11.744  1.00  0.00     0.401 P 
HETATM   24  O5  UNL     1     -30.334   3.835  10.530  1.00  0.00    -0.631 OA
BRANCH  23  25
HETATM   25  O6  UNL     1     -32.771   4.064  11.415  1.00  0.00    -0.307 OA
HETATM   26  H23 UNL     1     -33.067   3.491  10.696  1.00  0.00     0.222 HD
ENDBRANCH  23  25
BRANCH  23  27
HETATM   27  O7  UNL     1     -31.242   2.499  12.567  1.00  0.00    -0.195 OA
BRANCH  27  28
HETATM   28  P2  UNL     1     -31.589   1.145  11.803  1.00  0.00     0.401 P 
HETATM   29  O8  UNL     1     -32.598   0.247  12.441  1.00  0.00    -0.631 OA
BRANCH  28  30
HETATM   30  O9  UNL     1     -31.993   1.642  10.340  1.00  0.00    -0.307 OA
HETATM   31  H24 UNL     1     -31.463   2.411  10.015  1.00  0.00     0.222 HD
ENDBRANCH  28  30
BRANCH  28  32
HETATM   32  O10 UNL     1     -30.162   0.492  11.507  1.00  0.00    -0.294 OA
BRANCH  32  33
HETATM   33  C14 UNL     1     -29.880  -0.810  11.949  1.00  0.00     0.215 C 
BRANCH  33  34
HETATM   34  C15 UNL     1     -28.665  -1.279  11.150  1.00  0.00     0.180 C 
HETATM   35  C16 UNL     1     -28.650  -0.597   9.788  1.00  0.00     0.197 C 
HETATM   36  C17 UNL     1     -28.773  -1.732   8.788  1.00  0.00     0.199 C 
HETATM   37  C18 UNL     1     -28.204  -2.916   9.574  1.00  0.00     0.262 C 
HETATM   38  O11 UNL     1     -28.653  -2.694  10.929  1.00  0.00    -0.353 OA
BRANCH  35  39
HETATM   39  O13 UNL     1     -27.416   0.102   9.658  1.00  0.00    -0.286 OA
BRANCH  39  40
HETATM   40  P3  UNL     1     -27.534   1.692   9.542  1.00  0.00     0.391 P 
HETATM   41  O14 UNL     1     -26.393   2.329   8.817  1.00  0.00    -0.632 OA
BRANCH  40  42
HETATM   42  O15 UNL     1     -27.750   2.089  11.076  1.00  0.00    -0.307 OA
HETATM   43  H36 UNL     1     -27.765   3.069  11.184  1.00  0.00     0.222 HD
ENDBRANCH  40  42
BRANCH  40  44
HETATM   44  O16 UNL     1     -28.987   1.856   8.917  1.00  0.00    -0.307 OA
HETATM   45  H37 UNL     1     -28.984   1.836   7.947  1.00  0.00     0.222 HD
ENDBRANCH  40  44
ENDBRANCH  39  40
ENDBRANCH  35  39
BRANCH  36  46
HETATM   46  O12 UNL     1     -28.124  -1.385   7.562  1.00  0.00    -0.388 OA
HETATM   47  H35 UNL     1     -27.859  -0.438   7.646  1.00  0.00     0.210 HD
ENDBRANCH  36  46
BRANCH  37  48
HETATM   48  N3  UNL     1     -28.723  -4.189   9.114  1.00  0.00    -0.297 N 
HETATM   49  C19 UNL     1     -29.488  -4.419   7.994  1.00  0.00     0.188 A 
HETATM   50  N4  UNL     1     -29.691  -5.701   7.784  1.00  0.00    -0.346 N 
HETATM   51  C20 UNL     1     -29.021  -6.334   8.816  1.00  0.00     0.116 A 
HETATM   52  H4  UNL     1     -30.224  -6.133   7.029  1.00  0.00     0.167 HD
HETATM   53  C21 UNL     1     -28.821  -7.689   9.133  1.00  0.00     0.109 A 
HETATM   54  C23 UNL     1     -28.450  -5.408   9.669  1.00  0.00     0.142 A 
HETATM   55  N5  UNL     1     -28.109  -7.998  10.244  1.00  0.00    -0.341 N 
HETATM   56  C22 UNL     1     -27.631  -6.987  10.997  1.00  0.00     0.183 A 
HETATM   57  H5  UNL     1     -27.940  -8.969  10.504  1.00  0.00     0.167 HD
HETATM   58  N6  UNL     1     -27.751  -5.659  10.790  1.00  0.00    -0.336 N 
HETATM   59  H6  UNL     1     -27.363  -4.941  11.403  1.00  0.00     0.168 HD
BRANCH  53  60
HETATM   60  N7  UNL     1     -29.323  -8.732   8.371  1.00  0.00    -0.287 NA
HETATM   61  H33 UNL     1     -28.911  -9.639   8.579  1.00  0.00     0.125 HD
HETATM   62  H34 UNL     1     -29.426  -8.493   7.394  1.00  0.00     0.125 HD
ENDBRANCH  53  60
ENDBRANCH  37  48
ENDBRANCH  33  34
ENDBRANCH  32  33
ENDBRANCH  28  32
ENDBRANCH  27  28
ENDBRANCH  23  27
ENDBRANCH  22  23
ENDBRANCH  21  22
ENDBRANCH  18  21
ENDBRANCH  17  18
BRANCH  17  63
HETATM   63  O17 UNL     1     -27.296   8.342  13.110  1.00  0.00    -0.385 OA
HETATM   64  H38 UNL     1     -26.344   8.409  12.923  1.00  0.00     0.210 HD
ENDBRANCH  17  63
ENDBRANCH  14  17
ENDBRANCH  12  13
ENDBRANCH  11  12
ENDBRANCH   8  11
ENDBRANCH   6   7
ENDBRANCH   5   6
ENDBRANCH   4   5
ENDBRANCH   2   4
TORSDOF 27
ENDMDL
MODEL 6
REMARK VINA RESULT:      -5.0      3.316      6.236
REMARK  27 active torsions:
REMARK  status: ('A' for Active; 'I' for Inactive)
REMARK    1  A    between atoms: C2_2  and  S1_4 
REMARK    2  A    between atoms: S1_4  and  C3_5 
REMARK    3  A    between atoms: C3_5  and  C4_6 
REMARK    4  A    between atoms: C4_6  and  N1_7 
REMARK       I    between atoms: N1_7  and  C5_8 
REMARK    5  A    between atoms: C5_8  and  C6_10 
REMARK    6  A    between atoms: C6_10  and  C7_11 
REMARK    7  A    between atoms: C7_11  and  N2_12 
REMARK       I    between atoms: N2_12  and  C8_13 
REMARK    8  A    between atoms: C8_13  and  C9_15 
REMARK    9  A    between atoms: C9_15  and  C10_16 
REMARK   10  A    between atoms: C9_15  and  O17_54 
REMARK   11  A    between atoms: C10_16  and  C13_19 
REMARK   12  A    between atoms: C13_19  and  O4_20 
REMARK   13  A    between atoms: O4_20  and  P1_21 
REMARK   14  A    between atoms: P1_21  and  O6_23 
REMARK   15  A    between atoms: P1_21  and  O7_24 
REMARK   16  A    between atoms: O7_24  and  P2_25 
REMARK   17  A    between atoms: P2_25  and  O9_27 
REMARK   18  A    between atoms: P2_25  and  O10_28 
REMARK   19  A    between atoms: O10_28  and  C14_29 
REMARK   20  A    between atoms: C14_29  and  C15_30 
REMARK   21  A    between atoms: C16_31  and  O13_49 
REMARK   22  A    between atoms: C17_32  and  O12_48 
REMARK   23  A    between atoms: C18_33  and  N3_35 
REMARK   24  A    between atoms: C21_40  and  N7_47 
REMARK   25  A    between atoms: O13_49  and  P3_50 
REMARK   26  A    between atoms: P3_50  and  O15_52 
REMARK   27  A    between atoms: P3_50  and  O16_53 
ROOT
HETATM    1  C1  UNL     1     -32.514   4.694  13.925  1.00  0.00     0.104 C 
HETATM    2  C2  UNL     1     -31.851   3.369  14.149  1.00  0.00     0.182 C 
HETATM    3  O1  UNL     1     -31.581   2.587  13.241  1.00  0.00    -0.286 OA
ENDROOT
BRANCH   2   4
HETATM    4  S1  UNL     1     -31.521   3.000  15.837  1.00  0.00    -0.091 SA
BRANCH   4   5
HETATM    5  C3  UNL     1     -30.632   1.420  15.654  1.00  0.00     0.102 C 
BRANCH   5   6
HETATM    6  C4  UNL     1     -31.555   0.218  15.867  1.00  0.00     0.133 C 
BRANCH   6   7
HETATM    7  N1  UNL     1     -32.257  -0.168  14.660  1.00  0.00    -0.360 N 
HETATM    8  C5  UNL     1     -33.613   0.012  14.522  1.00  0.00     0.219 C 
HETATM    9  O2  UNL     1     -34.319   0.432  15.432  1.00  0.00    -0.274 OA
HETATM   10  H8  UNL     1     -31.729  -0.574  13.899  1.00  0.00     0.162 HD
BRANCH   8  11
HETATM   11  C6  UNL     1     -34.139  -0.407  13.166  1.00  0.00     0.122 C 
BRANCH  11  12
HETATM   12  C7  UNL     1     -35.649  -0.641  13.186  1.00  0.00     0.132 C 
BRANCH  12  13
HETATM   13  N2  UNL     1     -36.367   0.204  12.256  1.00  0.00    -0.358 N 
HETATM   14  C8  UNL     1     -36.947   1.382  12.689  1.00  0.00     0.247 C 
HETATM   15  O3  UNL     1     -36.981   1.694  13.873  1.00  0.00    -0.271 OA
HETATM   16  H13 UNL     1     -36.038   0.174  11.293  1.00  0.00     0.162 HD
BRANCH  14  17
HETATM   17  C9  UNL     1     -37.521   2.267  11.573  1.00  0.00     0.219 C 
BRANCH  17  18
HETATM   18  C10 UNL     1     -36.487   3.212  10.906  1.00  0.00     0.009 C 
HETATM   19  C11 UNL     1     -37.047   4.628  10.700  1.00  0.00     0.020 C 
HETATM   20  C12 UNL     1     -35.201   3.328  11.750  1.00  0.00     0.020 C 
BRANCH  18  21
HETATM   21  C13 UNL     1     -36.154   2.576   9.527  1.00  0.00     0.192 C 
BRANCH  21  22
HETATM   22  O4  UNL     1     -35.043   1.706   9.589  1.00  0.00    -0.296 OA
BRANCH  22  23
HETATM   23  P1  UNL     1     -35.020   0.269   8.878  1.00  0.00     0.401 P 
HETATM   24  O5  UNL     1     -34.974   0.327   7.383  1.00  0.00    -0.631 OA
BRANCH  23  25
HETATM   25  O6  UNL     1     -36.275  -0.557   9.457  1.00  0.00    -0.307 OA
HETATM   26  H23 UNL     1     -36.009  -1.409   9.824  1.00  0.00     0.222 HD
ENDBRANCH  23  25
BRANCH  23  27
HETATM   27  O7  UNL     1     -33.804  -0.505   9.551  1.00  0.00    -0.195 OA
BRANCH  27  28
HETATM   28  P2  UNL     1     -32.346   0.132   9.468  1.00  0.00     0.401 P 
HETATM   29  O8  UNL     1     -31.878   0.577   8.121  1.00  0.00    -0.631 OA
BRANCH  28  30
HETATM   30  O9  UNL     1     -32.391   1.296  10.559  1.00  0.00    -0.307 OA
HETATM   31  H24 UNL     1     -32.010   2.154  10.250  1.00  0.00     0.222 HD
ENDBRANCH  28  30
BRANCH  28  32
HETATM   32  O10 UNL     1     -31.417  -0.933  10.213  1.00  0.00    -0.294 OA
BRANCH  32  33
HETATM   33  C14 UNL     1     -30.838  -0.615  11.451  1.00  0.00     0.215 C 
BRANCH  33  34
HETATM   34  C15 UNL     1     -29.327  -0.739  11.260  1.00  0.00     0.180 C 
HETATM   35  C16 UNL     1     -28.852   0.280  10.233  1.00  0.00     0.197 C 
HETATM   36  C17 UNL     1     -28.282  -0.553   9.100  1.00  0.00     0.199 C 
HETATM   37  C18 UNL     1     -27.889  -1.847   9.817  1.00  0.00     0.262 C 
HETATM   38  O11 UNL     1     -28.927  -2.037  10.804  1.00  0.00    -0.353 OA
BRANCH  35  39
HETATM   39  O13 UNL     1     -27.862   1.098  10.848  1.00  0.00    -0.286 OA
BRANCH  39  40
HETATM   40  P3  UNL     1     -28.358   2.542  11.322  1.00  0.00     0.391 P 
HETATM   41  O14 UNL     1     -29.582   3.022  10.610  1.00  0.00    -0.632 OA
BRANCH  40  42
HETATM   42  O15 UNL     1     -27.016   3.393  11.143  1.00  0.00    -0.307 OA
HETATM   43  H36 UNL     1     -27.219   4.357  11.091  1.00  0.00     0.222 HD
ENDBRANCH  40  42
BRANCH  40  44
HETATM   44  O16 UNL     1     -28.453   2.342  12.897  1.00  0.00    -0.307 OA
HETATM   45  H37 UNL     1     -29.187   1.764  13.159  1.00  0.00     0.222 HD
ENDBRANCH  40  44
ENDBRANCH  39  40
ENDBRANCH  35  39
BRANCH  36  46
HETATM   46  O12 UNL     1     -27.244   0.167   8.429  1.00  0.00    -0.388 OA
HETATM   47  H35 UNL     1     -27.564   1.096   8.339  1.00  0.00     0.210 HD
ENDBRANCH  36  46
BRANCH  37  48
HETATM   48  N3  UNL     1     -27.875  -2.993   8.930  1.00  0.00    -0.297 N 
HETATM   49  C19 UNL     1     -26.772  -3.659   8.449  1.00  0.00     0.188 A 
HETATM   50  N4  UNL     1     -27.097  -4.736   7.768  1.00  0.00    -0.346 N 
HETATM   51  C20 UNL     1     -28.480  -4.772   7.812  1.00  0.00     0.116 A 
HETATM   52  H4  UNL     1     -26.471  -5.396   7.309  1.00  0.00     0.167 HD
HETATM   53  C21 UNL     1     -29.425  -5.686   7.316  1.00  0.00     0.109 A 
HETATM   54  C23 UNL     1     -28.976  -3.677   8.495  1.00  0.00     0.142 A 
HETATM   55  N5  UNL     1     -30.742  -5.432   7.517  1.00  0.00    -0.341 N 
HETATM   56  C22 UNL     1     -31.080  -4.310   8.182  1.00  0.00     0.183 A 
HETATM   57  H5  UNL     1     -31.457  -6.074   7.175  1.00  0.00     0.167 HD
HETATM   58  N6  UNL     1     -30.268  -3.370   8.708  1.00  0.00    -0.336 N 
HETATM   59  H6  UNL     1     -30.591  -2.538   9.203  1.00  0.00     0.168 HD
BRANCH  53  60
HETATM   60  N7  UNL     1     -29.083  -6.834   6.619  1.00  0.00    -0.287 NA
HETATM   61  H33 UNL     1     -28.242  -6.745   6.053  1.00  0.00     0.125 HD
HETATM   62  H34 UNL     1     -29.878  -7.284   6.186  1.00  0.00     0.125 HD
ENDBRANCH  53  60
ENDBRANCH  37  48
ENDBRANCH  33  34
ENDBRANCH  32  33
ENDBRANCH  28  32
ENDBRANCH  27  28
ENDBRANCH  23  27
ENDBRANCH  22  23
ENDBRANCH  21  22
ENDBRANCH  18  21
ENDBRANCH  17  18
BRANCH  17  63
HETATM   63  O17 UNL     1     -38.115   1.453  10.555  1.00  0.00    -0.385 OA
HETATM   64  H38 UNL     1     -37.565   0.659  10.445  1.00  0.00     0.210 HD
ENDBRANCH  17  63
ENDBRANCH  14  17
ENDBRANCH  12  13
ENDBRANCH  11  12
ENDBRANCH   8  11
ENDBRANCH   6   7
ENDBRANCH   5   6
ENDBRANCH   4   5
ENDBRANCH   2   4
TORSDOF 27
ENDMDL
MODEL 7
REMARK VINA RESULT:      -4.8      5.599      9.834
REMARK  27 active torsions:
REMARK  status: ('A' for Active; 'I' for Inactive)
REMARK    1  A    between atoms: C2_2  and  S1_4 
REMARK    2  A    between atoms: S1_4  and  C3_5 
REMARK    3  A    between atoms: C3_5  and  C4_6 
REMARK    4  A    between atoms: C4_6  and  N1_7 
REMARK       I    between atoms: N1_7  and  C5_8 
REMARK    5  A    between atoms: C5_8  and  C6_10 
REMARK    6  A    between atoms: C6_10  and  C7_11 
REMARK    7  A    between atoms: C7_11  and  N2_12 
REMARK       I    between atoms: N2_12  and  C8_13 
REMARK    8  A    between atoms: C8_13  and  C9_15 
REMARK    9  A    between atoms: C9_15  and  C10_16 
REMARK   10  A    between atoms: C9_15  and  O17_54 
REMARK   11  A    between atoms: C10_16  and  C13_19 
REMARK   12  A    between atoms: C13_19  and  O4_20 
REMARK   13  A    between atoms: O4_20  and  P1_21 
REMARK   14  A    between atoms: P1_21  and  O6_23 
REMARK   15  A    between atoms: P1_21  and  O7_24 
REMARK   16  A    between atoms: O7_24  and  P2_25 
REMARK   17  A    between atoms: P2_25  and  O9_27 
REMARK   18  A    between atoms: P2_25  and  O10_28 
REMARK   19  A    between atoms: O10_28  and  C14_29 
REMARK   20  A    between atoms: C14_29  and  C15_30 
REMARK   21  A    between atoms: C16_31  and  O13_49 
REMARK   22  A    between atoms: C17_32  and  O12_48 
REMARK   23  A    between atoms: C18_33  and  N3_35 
REMARK   24  A    between atoms: C21_40  and  N7_47 
REMARK   25  A    between atoms: O13_49  and  P3_50 
REMARK   26  A    between atoms: P3_50  and  O15_52 
REMARK   27  A    between atoms: P3_50  and  O16_53 
ROOT
HETATM    1  C1  UNL     1     -32.682  -3.133   8.083  1.00  0.00     0.104 C 
HETATM    2  C2  UNL     1     -31.336  -3.756   7.876  1.00  0.00     0.182 C 
HETATM    3  O1  UNL     1     -30.405  -3.181   7.317  1.00  0.00    -0.286 OA
ENDROOT
BRANCH   2   4
HETATM    4  S1  UNL     1     -31.203  -5.408   8.465  1.00  0.00    -0.091 SA
BRANCH   4   5
HETATM    5  C3  UNL     1     -29.683  -5.935   7.609  1.00  0.00     0.102 C 
BRANCH   5   6
HETATM    6  C4  UNL     1     -28.480  -5.971   8.553  1.00  0.00     0.133 C 
BRANCH   6   7
HETATM    7  N1  UNL     1     -28.680  -5.171   9.744  1.00  0.00    -0.360 N 
HETATM    8  C5  UNL     1     -28.136  -3.914   9.871  1.00  0.00     0.219 C 
HETATM    9  O2  UNL     1     -27.389  -3.430   9.029  1.00  0.00    -0.274 OA
HETATM   10  H8  UNL     1     -29.241  -5.549  10.496  1.00  0.00     0.162 HD
BRANCH   8  11
HETATM   11  C6  UNL     1     -28.510  -3.228  11.167  1.00  0.00     0.122 C 
BRANCH  11  12
HETATM   12  C7  UNL     1     -28.160  -1.740  11.147  1.00  0.00     0.132 C 
BRANCH  12  13
HETATM   13  N2  UNL     1     -28.179  -1.135  12.462  1.00  0.00    -0.358 N 
HETATM   14  C8  UNL     1     -29.347  -0.588  12.961  1.00  0.00     0.247 C 
HETATM   15  O3  UNL     1     -30.361  -0.487  12.282  1.00  0.00    -0.271 OA
HETATM   16  H13 UNL     1     -27.525  -1.528  13.135  1.00  0.00     0.162 HD
BRANCH  14  17
HETATM   17  C9  UNL     1     -29.274  -0.142  14.428  1.00  0.00     0.219 C 
BRANCH  17  18
HETATM   18  C10 UNL     1     -29.439   1.386  14.644  1.00  0.00     0.009 C 
HETATM   19  C11 UNL     1     -30.880   1.765  15.014  1.00  0.00     0.020 C 
HETATM   20  C12 UNL     1     -28.510   1.902  15.762  1.00  0.00     0.020 C 
BRANCH  18  21
HETATM   21  C13 UNL     1     -29.054   2.052  13.292  1.00  0.00     0.192 C 
BRANCH  21  22
HETATM   22  O4  UNL     1     -27.672   2.337  13.207  1.00  0.00    -0.296 OA
BRANCH  22  23
HETATM   23  P1  UNL     1     -26.975   2.876  11.867  1.00  0.00     0.401 P 
HETATM   24  O5  UNL     1     -27.933   3.171  10.756  1.00  0.00    -0.631 OA
BRANCH  23  25
HETATM   25  O6  UNL     1     -25.833   1.812  11.475  1.00  0.00    -0.307 OA
HETATM   26  H23 UNL     1     -25.280   2.126  10.748  1.00  0.00     0.222 HD
ENDBRANCH  23  25
BRANCH  23  27
HETATM   27  O7  UNL     1     -26.095   4.117  12.333  1.00  0.00    -0.195 OA
BRANCH  27  28
HETATM   28  P2  UNL     1     -25.445   4.097  13.787  1.00  0.00     0.401 P 
HETATM   29  O8  UNL     1     -26.255   4.678  14.899  1.00  0.00    -0.631 OA
BRANCH  28  30
HETATM   30  O9  UNL     1     -25.059   2.561  13.995  1.00  0.00    -0.307 OA
HETATM   31  H24 UNL     1     -25.674   1.927  13.551  1.00  0.00     0.222 HD
ENDBRANCH  28  30
BRANCH  28  32
HETATM   32  O10 UNL     1     -23.997   4.736  13.571  1.00  0.00    -0.294 OA
BRANCH  32  33
HETATM   33  C14 UNL     1     -23.599   5.157  12.293  1.00  0.00     0.215 C 
BRANCH  33  34
HETATM   34  C15 UNL     1     -22.758   4.022  11.713  1.00  0.00     0.180 C 
HETATM   35  C16 UNL     1     -21.685   3.611  12.713  1.00  0.00     0.197 C 
HETATM   36  C17 UNL     1     -20.373   3.902  12.010  1.00  0.00     0.199 C 
HETATM   37  C18 UNL     1     -20.771   3.818  10.535  1.00  0.00     0.262 C 
HETATM   38  O11 UNL     1     -22.101   4.380  10.491  1.00  0.00    -0.353 OA
BRANCH  35  39
HETATM   39  O13 UNL     1     -21.849   2.224  12.991  1.00  0.00    -0.286 OA
BRANCH  39  40
HETATM   40  P3  UNL     1     -21.659   1.802  14.521  1.00  0.00     0.391 P 
HETATM   41  O14 UNL     1     -22.866   1.156  15.122  1.00  0.00    -0.632 OA
BRANCH  40  42
HETATM   42  O15 UNL     1     -21.166   3.185  15.155  1.00  0.00    -0.307 OA
HETATM   43  H36 UNL     1     -21.393   3.230  16.114  1.00  0.00     0.222 HD
ENDBRANCH  40  42
BRANCH  40  44
HETATM   44  O16 UNL     1     -20.324   0.941  14.447  1.00  0.00    -0.307 OA
HETATM   45  H37 UNL     1     -20.291   0.364  13.667  1.00  0.00     0.222 HD
ENDBRANCH  40  44
ENDBRANCH  39  40
ENDBRANCH  35  39
BRANCH  36  46
HETATM   46  O12 UNL     1     -19.356   3.007  12.468  1.00  0.00    -0.388 OA
HETATM   47  H35 UNL     1     -19.187   3.238  13.413  1.00  0.00     0.210 HD
ENDBRANCH  36  46
BRANCH  37  48
HETATM   48  N3  UNL     1     -19.904   4.604   9.679  1.00  0.00    -0.297 N 
HETATM   49  C19 UNL     1     -18.999   5.563  10.068  1.00  0.00     0.188 A 
HETATM   50  N4  UNL     1     -18.275   6.003   9.062  1.00  0.00    -0.346 N 
HETATM   51  C20 UNL     1     -18.731   5.291   7.967  1.00  0.00     0.116 A 
HETATM   52  H4  UNL     1     -17.542   6.711   9.084  1.00  0.00     0.167 HD
HETATM   53  C21 UNL     1     -18.341   5.268   6.616  1.00  0.00     0.109 A 
HETATM   54  C23 UNL     1     -19.767   4.449   8.327  1.00  0.00     0.142 A 
HETATM   55  N5  UNL     1     -19.005   4.450   5.763  1.00  0.00    -0.341 N 
HETATM   56  C22 UNL     1     -20.013   3.701   6.253  1.00  0.00     0.183 A 
HETATM   57  H5  UNL     1     -18.749   4.403   4.777  1.00  0.00     0.167 HD
HETATM   58  N6  UNL     1     -20.468   3.633   7.521  1.00  0.00    -0.336 N 
HETATM   59  H6  UNL     1     -21.240   3.041   7.827  1.00  0.00     0.168 HD
BRANCH  53  60
HETATM   60  N7  UNL     1     -17.316   6.047   6.105  1.00  0.00    -0.287 NA
HETATM   61  H33 UNL     1     -17.448   6.332   5.138  1.00  0.00     0.125 HD
HETATM   62  H34 UNL     1     -16.398   5.706   6.358  1.00  0.00     0.125 HD
ENDBRANCH  53  60
ENDBRANCH  37  48
ENDBRANCH  33  34
ENDBRANCH  32  33
ENDBRANCH  28  32
ENDBRANCH  27  28
ENDBRANCH  23  27
ENDBRANCH  22  23
ENDBRANCH  21  22
ENDBRANCH  18  21
ENDBRANCH  17  18
BRANCH  17  63
HETATM   63  O17 UNL     1     -30.271  -0.820  15.200  1.00  0.00    -0.385 OA
HETATM   64  H38 UNL     1     -31.026  -0.218  15.314  1.00  0.00     0.210 HD
ENDBRANCH  17  63
ENDBRANCH  14  17
ENDBRANCH  12  13
ENDBRANCH  11  12
ENDBRANCH   8  11
ENDBRANCH   6   7
ENDBRANCH   5   6
ENDBRANCH   4   5
ENDBRANCH   2   4
TORSDOF 27
ENDMDL
MODEL 8
REMARK VINA RESULT:      -4.8      3.229      5.390
REMARK  27 active torsions:
REMARK  status: ('A' for Active; 'I' for Inactive)
REMARK    1  A    between atoms: C2_2  and  S1_4 
REMARK    2  A    between atoms: S1_4  and  C3_5 
REMARK    3  A    between atoms: C3_5  and  C4_6 
REMARK    4  A    between atoms: C4_6  and  N1_7 
REMARK       I    between atoms: N1_7  and  C5_8 
REMARK    5  A    between atoms: C5_8  and  C6_10 
REMARK    6  A    between atoms: C6_10  and  C7_11 
REMARK    7  A    between atoms: C7_11  and  N2_12 
REMARK       I    between atoms: N2_12  and  C8_13 
REMARK    8  A    between atoms: C8_13  and  C9_15 
REMARK    9  A    between atoms: C9_15  and  C10_16 
REMARK   10  A    between atoms: C9_15  and  O17_54 
REMARK   11  A    between atoms: C10_16  and  C13_19 
REMARK   12  A    between atoms: C13_19  and  O4_20 
REMARK   13  A    between atoms: O4_20  and  P1_21 
REMARK   14  A    between atoms: P1_21  and  O6_23 
REMARK   15  A    between atoms: P1_21  and  O7_24 
REMARK   16  A    between atoms: O7_24  and  P2_25 
REMARK   17  A    between atoms: P2_25  and  O9_27 
REMARK   18  A    between atoms: P2_25  and  O10_28 
REMARK   19  A    between atoms: O10_28  and  C14_29 
REMARK   20  A    between atoms: C14_29  and  C15_30 
REMARK   21  A    between atoms: C16_31  and  O13_49 
REMARK   22  A    between atoms: C17_32  and  O12_48 
REMARK   23  A    between atoms: C18_33  and  N3_35 
REMARK   24  A    between atoms: C21_40  and  N7_47 
REMARK   25  A    between atoms: O13_49  and  P3_50 
REMARK   26  A    between atoms: P3_50  and  O15_52 
REMARK   27  A    between atoms: P3_50  and  O16_53 
ROOT
HETATM    1  C1  UNL     1     -35.324   7.753  16.283  1.00  0.00     0.104 C 
HETATM    2  C2  UNL     1     -34.026   7.017  16.147  1.00  0.00     0.182 C 
HETATM    3  O1  UNL     1     -33.637   6.525  15.090  1.00  0.00    -0.286 OA
ENDROOT
BRANCH   2   4
HETATM    4  S1  UNL     1     -33.112   6.876  17.642  1.00  0.00    -0.091 SA
BRANCH   4   5
HETATM    5  C3  UNL     1     -31.693   5.890  17.063  1.00  0.00     0.102 C 
BRANCH   5   6
HETATM    6  C4  UNL     1     -31.588   4.555  17.802  1.00  0.00     0.133 C 
BRANCH   6   7
HETATM    7  N1  UNL     1     -32.768   3.731  17.641  1.00  0.00    -0.360 N 
HETATM    8  C5  UNL     1     -32.719   2.511  17.007  1.00  0.00     0.219 C 
HETATM    9  O2  UNL     1     -31.702   2.086  16.473  1.00  0.00    -0.274 OA
HETATM   10  H8  UNL     1     -33.648   4.064  18.013  1.00  0.00     0.162 HD
BRANCH   8  11
HETATM   11  C6  UNL     1     -34.049   1.788  16.995  1.00  0.00     0.122 C 
BRANCH  11  12
HETATM   12  C7  UNL     1     -33.882   0.291  16.735  1.00  0.00     0.132 C 
BRANCH  12  13
HETATM   13  N2  UNL     1     -33.584  -0.015  15.352  1.00  0.00    -0.358 N 
HETATM   14  C8  UNL     1     -34.609  -0.262  14.457  1.00  0.00     0.247 C 
HETATM   15  O3  UNL     1     -35.778  -0.350  14.813  1.00  0.00    -0.271 OA
HETATM   16  H13 UNL     1     -32.736   0.408  14.982  1.00  0.00     0.162 HD
BRANCH  14  17
HETATM   17  C9  UNL     1     -34.167  -0.397  12.993  1.00  0.00     0.219 C 
BRANCH  17  18
HETATM   18  C10 UNL     1     -34.559   0.802  12.090  1.00  0.00     0.009 C 
HETATM   19  C11 UNL     1     -33.798   0.794  10.756  1.00  0.00     0.020 C 
HETATM   20  C12 UNL     1     -36.069   0.804  11.776  1.00  0.00     0.020 C 
BRANCH  18  21
HETATM   21  C13 UNL     1     -34.189   2.081  12.895  1.00  0.00     0.192 C 
BRANCH  21  22
HETATM   22  O4  UNL     1     -32.835   2.088  13.301  1.00  0.00    -0.296 OA
BRANCH  22  23
HETATM   23  P1  UNL     1     -31.797   3.224  12.850  1.00  0.00     0.401 P 
HETATM   24  O5  UNL     1     -31.523   4.254  13.900  1.00  0.00    -0.631 OA
BRANCH  23  25
HETATM   25  O6  UNL     1     -32.349   3.836  11.467  1.00  0.00    -0.307 OA
HETATM   26  H23 UNL     1     -33.287   4.058  11.519  1.00  0.00     0.222 HD
ENDBRANCH  23  25
BRANCH  23  27
HETATM   27  O7  UNL     1     -30.513   2.431  12.346  1.00  0.00    -0.195 OA
BRANCH  27  28
HETATM   28  P2  UNL     1     -29.549   3.122  11.283  1.00  0.00     0.401 P 
HETATM   29  O8  UNL     1     -30.015   3.149   9.864  1.00  0.00    -0.631 OA
BRANCH  28  30
HETATM   30  O9  UNL     1     -29.287   4.567  11.910  1.00  0.00    -0.307 OA
HETATM   31  H24 UNL     1     -29.571   4.655  12.853  1.00  0.00     0.222 HD
ENDBRANCH  28  30
BRANCH  28  32
HETATM   32  O10 UNL     1     -28.133   2.430  11.538  1.00  0.00    -0.294 OA
BRANCH  32  33
HETATM   33  C14 UNL     1     -27.680   1.418  10.677  1.00  0.00     0.215 C 
BRANCH  33  34
HETATM   34  C15 UNL     1     -28.712   0.295  10.758  1.00  0.00     0.180 C 
HETATM   35  C16 UNL     1     -28.430  -0.576  11.975  1.00  0.00     0.197 C 
HETATM   36  C17 UNL     1     -28.126  -1.948  11.404  1.00  0.00     0.199 C 
HETATM   37  C18 UNL     1     -28.869  -1.913  10.066  1.00  0.00     0.262 C 
HETATM   38  O11 UNL     1     -28.706  -0.553   9.604  1.00  0.00    -0.353 OA
BRANCH  35  39
HETATM   39  O13 UNL     1     -29.596  -0.582  12.793  1.00  0.00    -0.286 OA
BRANCH  39  40
HETATM   40  P3  UNL     1     -29.347  -0.317  14.350  1.00  0.00     0.391 P 
HETATM   41  O14 UNL     1     -28.657  -1.443  15.050  1.00  0.00    -0.632 OA
BRANCH  40  42
HETATM   42  O15 UNL     1     -30.827   0.058  14.830  1.00  0.00    -0.307 OA
HETATM   43  H36 UNL     1     -30.963   1.035  14.808  1.00  0.00     0.222 HD
ENDBRANCH  40  42
BRANCH  40  44
HETATM   44  O16 UNL     1     -28.610   1.091  14.316  1.00  0.00    -0.307 OA
HETATM   45  H37 UNL     1     -27.734   1.048  13.900  1.00  0.00     0.222 HD
ENDBRANCH  40  44
ENDBRANCH  39  40
ENDBRANCH  35  39
BRANCH  36  46
HETATM   46  O12 UNL     1     -28.500  -2.967  12.335  1.00  0.00    -0.388 OA
HETATM   47  H35 UNL     1     -28.222  -2.645  13.226  1.00  0.00     0.210 HD
ENDBRANCH  36  46
BRANCH  37  48
HETATM   48  N3  UNL     1     -28.291  -2.810   9.085  1.00  0.00    -0.297 N 
HETATM   49  C19 UNL     1     -26.969  -3.168   8.963  1.00  0.00     0.188 A 
HETATM   50  N4  UNL     1     -26.787  -4.099   8.052  1.00  0.00    -0.346 N 
HETATM   51  C20 UNL     1     -28.055  -4.362   7.563  1.00  0.00     0.116 A 
HETATM   52  H4  UNL     1     -25.908  -4.532   7.769  1.00  0.00     0.167 HD
HETATM   53  C21 UNL     1     -28.538  -5.276   6.611  1.00  0.00     0.109 A 
HETATM   54  C23 UNL     1     -28.991  -3.542   8.167  1.00  0.00     0.142 A 
HETATM   55  N5  UNL     1     -29.865  -5.284   6.335  1.00  0.00    -0.341 N 
HETATM   56  C22 UNL     1     -30.658  -4.410   6.986  1.00  0.00     0.183 A 
HETATM   57  H5  UNL     1     -30.254  -5.936   5.653  1.00  0.00     0.167 HD
HETATM   58  N6  UNL     1     -30.312  -3.499   7.919  1.00  0.00    -0.336 N 
HETATM   59  H6  UNL     1     -30.965  -2.862   8.376  1.00  0.00     0.168 HD
BRANCH  53  60
HETATM   60  N7  UNL     1     -27.726  -6.167   5.929  1.00  0.00    -0.287 NA
HETATM   61  H33 UNL     1     -27.572  -7.049   6.413  1.00  0.00     0.125 HD
HETATM   62  H34 UNL     1     -26.914  -5.726   5.518  1.00  0.00     0.125 HD
ENDBRANCH  53  60
ENDBRANCH  37  48
ENDBRANCH  33  34
ENDBRANCH  32  33
ENDBRANCH  28  32
ENDBRANCH  27  28
ENDBRANCH  23  27
ENDBRANCH  22  23
ENDBRANCH  21  22
ENDBRANCH  18  21
ENDBRANCH  17  18
BRANCH  17  63
HETATM   63  O17 UNL     1     -32.748  -0.576  12.920  1.00  0.00    -0.385 OA
HETATM   64  H38 UNL     1     -32.508  -0.711  11.988  1.00  0.00     0.210 HD
ENDBRANCH  17  63
ENDBRANCH  14  17
ENDBRANCH  12  13
ENDBRANCH  11  12
ENDBRANCH   8  11
ENDBRANCH   6   7
ENDBRANCH   5   6
ENDBRANCH   4   5
ENDBRANCH   2   4
TORSDOF 27
ENDMDL
MODEL 9
REMARK VINA RESULT:      -4.8      4.655      8.645
REMARK  27 active torsions:
REMARK  status: ('A' for Active; 'I' for Inactive)
REMARK    1  A    between atoms: C2_2  and  S1_4 
REMARK    2  A    between atoms: S1_4  and  C3_5 
REMARK    3  A    between atoms: C3_5  and  C4_6 
REMARK    4  A    between atoms: C4_6  and  N1_7 
REMARK       I    between atoms: N1_7  and  C5_8 
REMARK    5  A    between atoms: C5_8  and  C6_10 
REMARK    6  A    between atoms: C6_10  and  C7_11 
REMARK    7  A    between atoms: C7_11  and  N2_12 
REMARK       I    between atoms: N2_12  and  C8_13 
REMARK    8  A    between atoms: C8_13  and  C9_15 
REMARK    9  A    between atoms: C9_15  and  C10_16 
REMARK   10  A    between atoms: C9_15  and  O17_54 
REMARK   11  A    between atoms: C10_16  and  C13_19 
REMARK   12  A    between atoms: C13_19  and  O4_20 
REMARK   13  A    between atoms: O4_20  and  P1_21 
REMARK   14  A    between atoms: P1_21  and  O6_23 
REMARK   15  A    between atoms: P1_21  and  O7_24 
REMARK   16  A    between atoms: O7_24  and  P2_25 
REMARK   17  A    between atoms: P2_25  and  O9_27 
REMARK   18  A    between atoms: P2_25  and  O10_28 
REMARK   19  A    between atoms: O10_28  and  C14_29 
REMARK   20  A    between atoms: C14_29  and  C15_30 
REMARK   21  A    between atoms: C16_31  and  O13_49 
REMARK   22  A    between atoms: C17_32  and  O12_48 
REMARK   23  A    between atoms: C18_33  and  N3_35 
REMARK   24  A    between atoms: C21_40  and  N7_47 
REMARK   25  A    between atoms: O13_49  and  P3_50 
REMARK   26  A    between atoms: P3_50  and  O15_52 
REMARK   27  A    between atoms: P3_50  and  O16_53 
ROOT
HETATM    1  C1  UNL     1     -30.703   6.137  11.546  1.00  0.00     0.104 C 
HETATM    2  C2  UNL     1     -31.462   4.873  11.813  1.00  0.00     0.182 C 
HETATM    3  O1  UNL     1     -31.396   3.882  11.090  1.00  0.00    -0.286 OA
ENDROOT
BRANCH   2   4
HETATM    4  S1  UNL     1     -32.496   4.935  13.234  1.00  0.00    -0.091 SA
BRANCH   4   5
HETATM    5  C3  UNL     1     -31.333   4.344  14.506  1.00  0.00     0.102 C 
BRANCH   5   6
HETATM    6  C4  UNL     1     -31.620   2.897  14.912  1.00  0.00     0.133 C 
BRANCH   6   7
HETATM    7  N1  UNL     1     -31.698   2.002  13.776  1.00  0.00    -0.360 N 
HETATM    8  C5  UNL     1     -30.646   1.192  13.419  1.00  0.00     0.219 C 
HETATM    9  O2  UNL     1     -29.559   1.235  13.983  1.00  0.00    -0.274 OA
HETATM   10  H8  UNL     1     -32.555   1.970  13.240  1.00  0.00     0.162 HD
BRANCH   8  11
HETATM   11  C6  UNL     1     -30.953   0.295  12.239  1.00  0.00     0.122 C 
BRANCH  11  12
HETATM   12  C7  UNL     1     -30.015  -0.910  12.178  1.00  0.00     0.132 C 
BRANCH  12  13
HETATM   13  N2  UNL     1     -29.969  -1.528  10.870  1.00  0.00    -0.358 N 
HETATM   14  C8  UNL     1     -29.295  -2.721  10.686  1.00  0.00     0.247 C 
HETATM   15  O3  UNL     1     -28.621  -3.232  11.572  1.00  0.00    -0.271 OA
HETATM   16  H13 UNL     1     -30.776  -1.353  10.275  1.00  0.00     0.162 HD
BRANCH  14  17
HETATM   17  C9  UNL     1     -29.474  -3.356   9.299  1.00  0.00     0.219 C 
BRANCH  17  18
HETATM   18  C10 UNL     1     -28.159  -3.524   8.494  1.00  0.00     0.009 C 
HETATM   19  C11 UNL     1     -27.419  -4.820   8.857  1.00  0.00     0.020 C 
HETATM   20  C12 UNL     1     -28.424  -3.538   6.975  1.00  0.00     0.020 C 
BRANCH  18  21
HETATM   21  C13 UNL     1     -27.274  -2.297   8.860  1.00  0.00     0.192 C 
BRANCH  21  22
HETATM   22  O4  UNL     1     -27.566  -1.166   8.064  1.00  0.00    -0.296 OA
BRANCH  22  23
HETATM   23  P1  UNL     1     -27.886   0.277   8.686  1.00  0.00     0.401 P 
HETATM   24  O5  UNL     1     -29.295   0.735   8.475  1.00  0.00    -0.631 OA
BRANCH  23  25
HETATM   25  O6  UNL     1     -26.780   1.290   8.104  1.00  0.00    -0.307 OA
HETATM   26  H23 UNL     1     -26.438   1.001   7.248  1.00  0.00     0.222 HD
ENDBRANCH  23  25
BRANCH  23  27
HETATM   27  O7  UNL     1     -27.442   0.175  10.210  1.00  0.00    -0.195 OA
BRANCH  27  28
HETATM   28  P2  UNL     1     -27.350   1.510  11.076  1.00  0.00     0.401 P 
HETATM   29  O8  UNL     1     -28.510   2.448  10.999  1.00  0.00    -0.631 OA
BRANCH  28  30
HETATM   30  O9  UNL     1     -27.043   0.972  12.547  1.00  0.00    -0.307 OA
HETATM   31  H24 UNL     1     -27.834   0.942  13.139  1.00  0.00     0.222 HD
ENDBRANCH  28  30
BRANCH  28  32
HETATM   32  O10 UNL     1     -25.928   2.125  10.686  1.00  0.00    -0.294 OA
BRANCH  32  33
HETATM   33  C14 UNL     1     -25.706   3.506  10.798  1.00  0.00     0.215 C 
BRANCH  33  34
HETATM   34  C15 UNL     1     -24.543   3.674  11.774  1.00  0.00     0.180 C 
HETATM   35  C16 UNL     1     -24.911   4.692  12.845  1.00  0.00     0.197 C 
HETATM   36  C17 UNL     1     -23.908   5.817  12.667  1.00  0.00     0.199 C 
HETATM   37  C18 UNL     1     -22.727   5.096  12.014  1.00  0.00     0.262 C 
HETATM   38  O11 UNL     1     -23.341   4.125  11.138  1.00  0.00    -0.353 OA
BRANCH  35  39
HETATM   39  O13 UNL     1     -24.788   4.060  14.115  1.00  0.00    -0.286 OA
BRANCH  39  40
HETATM   40  P3  UNL     1     -26.078   4.147  15.055  1.00  0.00     0.391 P 
HETATM   41  O14 UNL     1     -25.799   3.839  16.491  1.00  0.00    -0.632 OA
BRANCH  40  42
HETATM   42  O15 UNL     1     -27.085   3.181  14.273  1.00  0.00    -0.307 OA
HETATM   43  H36 UNL     1     -27.338   2.411  14.836  1.00  0.00     0.222 HD
ENDBRANCH  40  42
BRANCH  40  44
HETATM   44  O16 UNL     1     -26.625   5.599  14.706  1.00  0.00    -0.307 OA
HETATM   45  H37 UNL     1     -27.593   5.631  14.644  1.00  0.00     0.222 HD
ENDBRANCH  40  44
ENDBRANCH  39  40
ENDBRANCH  35  39
BRANCH  36  46
HETATM   46  O12 UNL     1     -23.670   6.471  13.916  1.00  0.00    -0.388 OA
HETATM   47  H35 UNL     1     -22.778   6.887  13.846  1.00  0.00     0.210 HD
ENDBRANCH  36  46
BRANCH  37  48
HETATM   48  N3  UNL     1     -21.902   5.984  11.220  1.00  0.00    -0.297 N 
HETATM   49  C19 UNL     1     -21.729   7.337  11.397  1.00  0.00     0.188 A 
HETATM   50  N4  UNL     1     -20.818   7.833  10.588  1.00  0.00    -0.346 N 
HETATM   51  C20 UNL     1     -20.375   6.747   9.854  1.00  0.00     0.116 A 
HETATM   52  H4  UNL     1     -20.507   8.802  10.518  1.00  0.00     0.167 HD
HETATM   53  C21 UNL     1     -19.387   6.606   8.864  1.00  0.00     0.109 A 
HETATM   54  C23 UNL     1     -21.066   5.603  10.208  1.00  0.00     0.142 A 
HETATM   55  N5  UNL     1     -19.190   5.383   8.314  1.00  0.00    -0.341 N 
HETATM   56  C22 UNL     1     -19.957   4.360   8.742  1.00  0.00     0.183 A 
HETATM   57  H5  UNL     1     -18.480   5.241   7.595  1.00  0.00     0.167 HD
HETATM   58  N6  UNL     1     -20.921   4.373   9.684  1.00  0.00    -0.336 N 
HETATM   59  H6  UNL     1     -21.469   3.558   9.963  1.00  0.00     0.168 HD
BRANCH  53  60
HETATM   60  N7  UNL     1     -18.606   7.657   8.411  1.00  0.00    -0.287 NA
HETATM   61  H33 UNL     1     -18.651   8.493   8.990  1.00  0.00     0.125 HD
HETATM   62  H34 UNL     1     -18.669   7.792   7.410  1.00  0.00     0.125 HD
ENDBRANCH  53  60
ENDBRANCH  37  48
ENDBRANCH  33  34
ENDBRANCH  32  33
ENDBRANCH  28  32
ENDBRANCH  27  28
ENDBRANCH  23  27
ENDBRANCH  22  23
ENDBRANCH  21  22
ENDBRANCH  18  21
ENDBRANCH  17  18
BRANCH  17  63
HETATM   63  O17 UNL     1     -30.099  -4.638   9.420  1.00  0.00    -0.385 OA
HETATM   64  H38 UNL     1     -30.564  -4.827   8.588  1.00  0.00     0.210 HD
ENDBRANCH  17  63
ENDBRANCH  14  17
ENDBRANCH  12  13
ENDBRANCH  11  12
ENDBRANCH   8  11
ENDBRANCH   6   7
ENDBRANCH   5   6
ENDBRANCH   4   5
ENDBRANCH   2   4
TORSDOF 27
ENDMDL
