MODEL 1
REMARK VINA RESULT:      -5.0      0.000      0.000
REMARK  2 active torsions:
REMARK  status: ('A' for Active; 'I' for Inactive)
REMARK    1  A    between atoms: C3_3  and  O1_8 
REMARK    2  A    between atoms: C6_6  and  N1_7 
ROOT
HETATM    1  C1  UNL     1       1.257   9.309  -7.155  1.00  0.00     0.026 A 
HETATM    2  C2  UNL     1       1.813   8.573  -8.203  1.00  0.00     0.038 A 
HETATM    3  C3  UNL     1       3.008   8.986  -8.775  1.00  0.00     0.065 A 
HETATM    4  C4  UNL     1       3.665  10.117  -8.303  1.00  0.00     0.038 A 
HETATM    5  C5  UNL     1       3.101  10.849  -7.254  1.00  0.00     0.026 A 
HETATM    6  C6  UNL     1       1.869  10.483  -6.705  1.00  0.00     0.005 A 
ENDROOT
BRANCH   6   7
HETATM    7  N1  UNL     1       1.372  11.151  -5.579  1.00  0.00    -0.303 NA
HETATM    8  H5  UNL     1       0.677  11.858  -5.798  1.00  0.00     0.124 HD
HETATM    9  H6  UNL     1       2.094  11.498  -4.957  1.00  0.00     0.124 HD
ENDBRANCH   6   7
BRANCH   3  10
HETATM   10  O1  UNL     1       3.521   8.239  -9.793  1.00  0.00    -0.361 OA
HETATM   11  H7  UNL     1       4.339   7.816  -9.486  1.00  0.00     0.217 HD
ENDBRANCH   3  10
TORSDOF 2
ENDMDL
MODEL 2
REMARK VINA RESULT:      -4.9      0.321      1.715
REMARK  2 active torsions:
REMARK  status: ('A' for Active; 'I' for Inactive)
REMARK    1  A    between atoms: C3_3  and  O1_8 
REMARK    2  A    between atoms: C6_6  and  N1_7 
ROOT
HETATM    1  C1  UNL     1       2.713  11.072  -7.309  1.00  0.00     0.026 A 
HETATM    2  C2  UNL     1       3.337  10.437  -8.386  1.00  0.00     0.038 A 
HETATM    3  C3  UNL     1       2.902   9.183  -8.790  1.00  0.00     0.065 A 
HETATM    4  C4  UNL     1       1.841   8.559  -8.143  1.00  0.00     0.038 A 
HETATM    5  C5  UNL     1       1.223   9.200  -7.066  1.00  0.00     0.026 A 
HETATM    6  C6  UNL     1       1.685  10.437  -6.606  1.00  0.00     0.005 A 
ENDROOT
BRANCH   6   7
HETATM    7  N1  UNL     1       0.986  11.123  -5.606  1.00  0.00    -0.303 NA
HETATM    8  H5  UNL     1       1.187  12.118  -5.577  1.00  0.00     0.124 HD
HETATM    9  H6  UNL     1       1.047  10.690  -4.691  1.00  0.00     0.124 HD
ENDBRANCH   6   7
BRANCH   3  10
HETATM   10  O1  UNL     1       3.534   8.598  -9.846  1.00  0.00    -0.361 OA
HETATM   11  H7  UNL     1       3.458   7.634  -9.758  1.00  0.00     0.217 HD
ENDBRANCH   3  10
TORSDOF 2
ENDMDL
MODEL 3
REMARK VINA RESULT:      -4.3      7.129      7.458
REMARK  2 active torsions:
REMARK  status: ('A' for Active; 'I' for Inactive)
REMARK    1  A    between atoms: C3_3  and  O1_8 
REMARK    2  A    between atoms: C6_6  and  N1_7 
ROOT
HETATM    1  C1  UNL     1       7.475   5.499  -5.661  1.00  0.00     0.026 A 
HETATM    2  C2  UNL     1       7.968   5.551  -6.967  1.00  0.00     0.038 A 
HETATM    3  C3  UNL     1       9.160   6.212  -7.226  1.00  0.00     0.065 A 
HETATM    4  C4  UNL     1       9.877   6.809  -6.196  1.00  0.00     0.038 A 
HETATM    5  C5  UNL     1       9.377   6.755  -4.891  1.00  0.00     0.026 A 
HETATM    6  C6  UNL     1       8.148   6.144  -4.619  1.00  0.00     0.005 A 
ENDROOT
BRANCH   6   7
HETATM    7  N1  UNL     1       7.715   5.990  -3.297  1.00  0.00    -0.303 NA
HETATM    8  H5  UNL     1       7.085   6.723  -2.987  1.00  0.00     0.124 HD
HETATM    9  H6  UNL     1       8.466   5.821  -2.636  1.00  0.00     0.124 HD
ENDBRANCH   6   7
BRANCH   3  10
HETATM   10  O1  UNL     1       9.609   6.238  -8.513  1.00  0.00    -0.361 OA
HETATM   11  H7  UNL     1       9.375   5.397  -8.939  1.00  0.00     0.217 HD
ENDBRANCH   3  10
TORSDOF 2
ENDMDL
MODEL 4
REMARK VINA RESULT:      -4.3      7.505      8.146
REMARK  2 active torsions:
REMARK  status: ('A' for Active; 'I' for Inactive)
REMARK    1  A    between atoms: C3_3  and  O1_8 
REMARK    2  A    between atoms: C6_6  and  N1_7 
ROOT
HETATM    1  C1  UNL     1       9.807   6.809  -6.047  1.00  0.00     0.026 A 
HETATM    2  C2  UNL     1       9.262   6.736  -4.763  1.00  0.00     0.038 A 
HETATM    3  C3  UNL     1       8.045   6.099  -4.568  1.00  0.00     0.065 A 
HETATM    4  C4  UNL     1       7.371   5.518  -5.635  1.00  0.00     0.038 A 
HETATM    5  C5  UNL     1       7.921   5.595  -6.918  1.00  0.00     0.026 A 
HETATM    6  C6  UNL     1       9.117   6.284  -7.145  1.00  0.00     0.005 A 
ENDROOT
BRANCH   6   7
HETATM    7  N1  UNL     1       9.719   6.254  -8.408  1.00  0.00    -0.303 NA
HETATM    8  H5  UNL     1      10.084   5.342  -8.664  1.00  0.00     0.124 HD
HETATM    9  H6  UNL     1      10.394   6.996  -8.558  1.00  0.00     0.124 HD
ENDBRANCH   6   7
BRANCH   3  10
HETATM   10  O1  UNL     1       7.549   6.047  -3.300  1.00  0.00    -0.361 OA
HETATM   11  H7  UNL     1       8.287   5.922  -2.683  1.00  0.00     0.217 HD
ENDBRANCH   3  10
TORSDOF 2
ENDMDL
MODEL 5
REMARK VINA RESULT:      -4.3      7.517      8.009
REMARK  2 active torsions:
REMARK  status: ('A' for Active; 'I' for Inactive)
REMARK    1  A    between atoms: C3_3  and  O1_8 
REMARK    2  A    between atoms: C6_6  and  N1_7 
ROOT
HETATM    1  C1  UNL     1       7.927   5.559  -6.888  1.00  0.00     0.026 A 
HETATM    2  C2  UNL     1       7.380   5.513  -5.604  1.00  0.00     0.038 A 
HETATM    3  C3  UNL     1       8.069   6.082  -4.542  1.00  0.00     0.065 A 
HETATM    4  C4  UNL     1       9.292   6.712  -4.748  1.00  0.00     0.038 A 
HETATM    5  C5  UNL     1       9.833   6.753  -6.036  1.00  0.00     0.026 A 
HETATM    6  C6  UNL     1       9.182   6.134  -7.108  1.00  0.00     0.005 A 
ENDROOT
BRANCH   6   7
HETATM    7  N1  UNL     1       9.672   6.283  -8.411  1.00  0.00    -0.303 NA
HETATM    8  H5  UNL     1       9.096   6.880  -8.997  1.00  0.00     0.124 HD
HETATM    9  H6  UNL     1       9.906   5.407  -8.864  1.00  0.00     0.124 HD
ENDBRANCH   6   7
BRANCH   3  10
HETATM   10  O1  UNL     1       7.501   6.018  -3.305  1.00  0.00    -0.361 OA
HETATM   11  H7  UNL     1       8.107   6.424  -2.665  1.00  0.00     0.217 HD
ENDBRANCH   3  10
TORSDOF 2
ENDMDL
MODEL 6
REMARK VINA RESULT:      -4.2      6.788      7.505
REMARK  2 active torsions:
REMARK  status: ('A' for Active; 'I' for Inactive)
REMARK    1  A    between atoms: C3_3  and  O1_8 
REMARK    2  A    between atoms: C6_6  and  N1_7 
ROOT
HETATM    1  C1  UNL     1       9.440   5.847  -7.409  1.00  0.00     0.026 A 
HETATM    2  C2  UNL     1      10.250   6.959  -7.650  1.00  0.00     0.038 A 
HETATM    3  C3  UNL     1       9.735   8.235  -7.478  1.00  0.00     0.065 A 
HETATM    4  C4  UNL     1       8.423   8.418  -7.052  1.00  0.00     0.038 A 
HETATM    5  C5  UNL     1       7.618   7.300  -6.815  1.00  0.00     0.026 A 
HETATM    6  C6  UNL     1       8.101   6.007  -7.039  1.00  0.00     0.005 A 
ENDROOT
BRANCH   6   7
HETATM    7  N1  UNL     1       7.329   4.895  -6.686  1.00  0.00    -0.303 NA
HETATM    8  H5  UNL     1       7.846   4.185  -6.176  1.00  0.00     0.124 HD
HETATM    9  H6  UNL     1       6.794   4.505  -7.454  1.00  0.00     0.124 HD
ENDBRANCH   6   7
BRANCH   3  10
HETATM   10  O1  UNL     1      10.557   9.294  -7.720  1.00  0.00    -0.361 OA
HETATM   11  H7  UNL     1      10.269   9.730  -8.538  1.00  0.00     0.217 HD
ENDBRANCH   3  10
TORSDOF 2
ENDMDL
MODEL 7
REMARK VINA RESULT:      -4.1      6.705      7.358
REMARK  2 active torsions:
REMARK  status: ('A' for Active; 'I' for Inactive)
REMARK    1  A    between atoms: C3_3  and  O1_8 
REMARK    2  A    between atoms: C6_6  and  N1_7 
ROOT
HETATM    1  C1  UNL     1       8.333   8.323  -6.895  1.00  0.00     0.026 A 
HETATM    2  C2  UNL     1       7.546   7.186  -6.695  1.00  0.00     0.038 A 
HETATM    3  C3  UNL     1       8.064   5.932  -6.983  1.00  0.00     0.065 A 
HETATM    4  C4  UNL     1       9.365   5.794  -7.453  1.00  0.00     0.038 A 
HETATM    5  C5  UNL     1      10.146   6.936  -7.652  1.00  0.00     0.026 A 
HETATM    6  C6  UNL     1       9.622   8.213  -7.424  1.00  0.00     0.005 A 
ENDROOT
BRANCH   6   7
HETATM    7  N1  UNL     1      10.448   9.339  -7.511  1.00  0.00    -0.303 NA
HETATM    8  H5  UNL     1      10.809   9.509  -8.445  1.00  0.00     0.124 HD
HETATM    9  H6  UNL     1      11.174   9.372  -6.804  1.00  0.00     0.124 HD
ENDBRANCH   6   7
BRANCH   3  10
HETATM   10  O1  UNL     1       7.266   4.847  -6.772  1.00  0.00    -0.361 OA
HETATM   11  H7  UNL     1       6.525   5.114  -6.205  1.00  0.00     0.217 HD
ENDBRANCH   3  10
TORSDOF 2
ENDMDL
MODEL 8
REMARK VINA RESULT:      -4.0      7.067      7.649
REMARK  2 active torsions:
REMARK  status: ('A' for Active; 'I' for Inactive)
REMARK    1  A    between atoms: C3_3  and  O1_8 
REMARK    2  A    between atoms: C6_6  and  N1_7 
ROOT
HETATM    1  C1  UNL     1       9.613   5.769  -6.303  1.00  0.00     0.026 A 
HETATM    2  C2  UNL     1       9.564   6.535  -7.469  1.00  0.00     0.038 A 
HETATM    3  C3  UNL     1       9.067   7.830  -7.421  1.00  0.00     0.065 A 
HETATM    4  C4  UNL     1       8.633   8.377  -6.218  1.00  0.00     0.038 A 
HETATM    5  C5  UNL     1       8.684   7.603  -5.055  1.00  0.00     0.026 A 
HETATM    6  C6  UNL     1       9.127   6.277  -5.095  1.00  0.00     0.005 A 
ENDROOT
BRANCH   6   7
HETATM    7  N1  UNL     1       9.286   5.552  -3.908  1.00  0.00    -0.303 NA
HETATM    8  H5  UNL     1       9.979   4.812  -3.973  1.00  0.00     0.124 HD
HETATM    9  H6  UNL     1       8.414   5.229  -3.504  1.00  0.00     0.124 HD
ENDBRANCH   6   7
BRANCH   3  10
HETATM   10  O1  UNL     1       9.038   8.546  -8.579  1.00  0.00    -0.361 OA
HETATM   11  H7  UNL     1       8.178   8.993  -8.646  1.00  0.00     0.217 HD
ENDBRANCH   3  10
TORSDOF 2
ENDMDL
MODEL 9
REMARK VINA RESULT:      -3.9      7.137      7.736
REMARK  2 active torsions:
REMARK  status: ('A' for Active; 'I' for Inactive)
REMARK    1  A    between atoms: C3_3  and  O1_8 
REMARK    2  A    between atoms: C6_6  and  N1_7 
ROOT
HETATM    1  C1  UNL     1       9.507   6.511  -6.757  1.00  0.00     0.026 A 
HETATM    2  C2  UNL     1       9.251   5.897  -5.529  1.00  0.00     0.038 A 
HETATM    3  C3  UNL     1       8.563   6.591  -4.543  1.00  0.00     0.065 A 
HETATM    4  C4  UNL     1       8.112   7.886  -4.772  1.00  0.00     0.038 A 
HETATM    5  C5  UNL     1       8.373   8.495  -6.003  1.00  0.00     0.026 A 
HETATM    6  C6  UNL     1       9.115   7.834  -6.987  1.00  0.00     0.005 A 
ENDROOT
BRANCH   6   7
HETATM    7  N1  UNL     1       9.268   8.404  -8.256  1.00  0.00    -0.303 NA
HETATM    8  H5  UNL     1       9.935   7.914  -8.845  1.00  0.00     0.124 HD
HETATM    9  H6  UNL     1       9.429   9.405  -8.240  1.00  0.00     0.124 HD
ENDBRANCH   6   7
BRANCH   3  10
HETATM   10  O1  UNL     1       8.331   5.956  -3.360  1.00  0.00    -0.361 OA
HETATM   11  H7  UNL     1       9.160   5.551  -3.057  1.00  0.00     0.217 HD
ENDBRANCH   3  10
TORSDOF 2
ENDMDL
MODEL 10
REMARK VINA RESULT:      -3.9      6.733      7.300
REMARK  2 active torsions:
REMARK  status: ('A' for Active; 'I' for Inactive)
REMARK    1  A    between atoms: C3_3  and  O1_8 
REMARK    2  A    between atoms: C6_6  and  N1_7 
ROOT
HETATM    1  C1  UNL     1       7.827   7.074  -6.839  1.00  0.00     0.026 A 
HETATM    2  C2  UNL     1       8.554   5.881  -6.830  1.00  0.00     0.038 A 
HETATM    3  C3  UNL     1       9.810   5.837  -7.419  1.00  0.00     0.065 A 
HETATM    4  C4  UNL     1      10.358   6.973  -8.004  1.00  0.00     0.038 A 
HETATM    5  C5  UNL     1       9.623   8.163  -8.010  1.00  0.00     0.026 A 
HETATM    6  C6  UNL     1       8.332   8.212  -7.474  1.00  0.00     0.005 A 
ENDROOT
BRANCH   6   7
HETATM    7  N1  UNL     1       7.655   9.433  -7.379  1.00  0.00    -0.303 NA
HETATM    8  H5  UNL     1       7.427   9.844  -8.279  1.00  0.00     0.124 HD
HETATM    9  H6  UNL     1       8.093  10.097  -6.750  1.00  0.00     0.124 HD
ENDBRANCH   6   7
BRANCH   3  10
HETATM   10  O1  UNL     1      10.489   4.656  -7.386  1.00  0.00    -0.361 OA
HETATM   11  H7  UNL     1      10.289   4.206  -6.550  1.00  0.00     0.217 HD
ENDBRANCH   3  10
TORSDOF 2
ENDMDL
MODEL 11
REMARK VINA RESULT:      -3.8      7.110      7.972
REMARK  2 active torsions:
REMARK  status: ('A' for Active; 'I' for Inactive)
REMARK    1  A    between atoms: C3_3  and  O1_8 
REMARK    2  A    between atoms: C6_6  and  N1_7 
ROOT
HETATM    1  C1  UNL     1      10.538   7.248  -7.671  1.00  0.00     0.026 A 
HETATM    2  C2  UNL     1       9.957   8.503  -7.474  1.00  0.00     0.038 A 
HETATM    3  C3  UNL     1       8.618   8.592  -7.118  1.00  0.00     0.065 A 
HETATM    4  C4  UNL     1       7.855   7.444  -6.939  1.00  0.00     0.038 A 
HETATM    5  C5  UNL     1       8.444   6.192  -7.139  1.00  0.00     0.026 A 
HETATM    6  C6  UNL     1       9.775   6.083  -7.555  1.00  0.00     0.005 A 
ENDROOT
BRANCH   6   7
HETATM    7  N1  UNL     1      10.387   4.827  -7.637  1.00  0.00    -0.303 NA
HETATM    8  H5  UNL     1      10.749   4.492  -6.750  1.00  0.00     0.124 HD
HETATM    9  H6  UNL     1      11.067   4.750  -8.385  1.00  0.00     0.124 HD
ENDBRANCH   6   7
BRANCH   3  10
HETATM   10  O1  UNL     1       8.089   9.834  -6.932  1.00  0.00    -0.361 OA
HETATM   11  H7  UNL     1       8.289  10.124  -6.028  1.00  0.00     0.217 HD
ENDBRANCH   3  10
TORSDOF 2
ENDMDL
MODEL 12
REMARK VINA RESULT:      -3.8      6.919      7.659
REMARK  2 active torsions:
REMARK  status: ('A' for Active; 'I' for Inactive)
REMARK    1  A    between atoms: C3_3  and  O1_8 
REMARK    2  A    between atoms: C6_6  and  N1_7 
ROOT
HETATM    1  C1  UNL     1       8.880   8.356  -7.508  1.00  0.00     0.026 A 
HETATM    2  C2  UNL     1      10.207   8.049  -7.819  1.00  0.00     0.038 A 
HETATM    3  C3  UNL     1      10.636   6.730  -7.775  1.00  0.00     0.065 A 
HETATM    4  C4  UNL     1       9.753   5.709  -7.440  1.00  0.00     0.038 A 
HETATM    5  C5  UNL     1       8.427   6.025  -7.128  1.00  0.00     0.026 A 
HETATM    6  C6  UNL     1       7.991   7.353  -7.110  1.00  0.00     0.005 A 
ENDROOT
BRANCH   6   7
HETATM    7  N1  UNL     1       6.637   7.648  -6.914  1.00  0.00    -0.303 NA
HETATM    8  H5  UNL     1       6.385   8.598  -7.170  1.00  0.00     0.124 HD
HETATM    9  H6  UNL     1       6.290   7.391  -5.996  1.00  0.00     0.124 HD
ENDBRANCH   6   7
BRANCH   3  10
HETATM   10  O1  UNL     1      11.936   6.470  -8.088  1.00  0.00    -0.361 OA
HETATM   11  H7  UNL     1      12.275   5.799  -7.474  1.00  0.00     0.217 HD
ENDBRANCH   3  10
TORSDOF 2
ENDMDL
MODEL 13
REMARK VINA RESULT:      -3.7      7.523      8.036
REMARK  2 active torsions:
REMARK  status: ('A' for Active; 'I' for Inactive)
REMARK    1  A    between atoms: C3_3  and  O1_8 
REMARK    2  A    between atoms: C6_6  and  N1_7 
ROOT
HETATM    1  C1  UNL     1       8.521   5.850  -4.286  1.00  0.00     0.026 A 
HETATM    2  C2  UNL     1       8.033   7.156  -4.208  1.00  0.00     0.038 A 
HETATM    3  C3  UNL     1       8.319   8.059  -5.223  1.00  0.00     0.065 A 
HETATM    4  C4  UNL     1       9.073   7.670  -6.324  1.00  0.00     0.038 A 
HETATM    5  C5  UNL     1       9.560   6.361  -6.394  1.00  0.00     0.026 A 
HETATM    6  C6  UNL     1       9.332   5.454  -5.354  1.00  0.00     0.005 A 
ENDROOT
BRANCH   6   7
HETATM    7  N1  UNL     1       9.720   4.116  -5.488  1.00  0.00    -0.303 NA
HETATM    8  H5  UNL     1      10.684   3.999  -5.783  1.00  0.00     0.124 HD
HETATM    9  H6  UNL     1       9.077   3.556  -6.038  1.00  0.00     0.124 HD
ENDBRANCH   6   7
BRANCH   3  10
HETATM   10  O1  UNL     1       7.822   9.323  -5.112  1.00  0.00    -0.361 OA
HETATM   11  H7  UNL     1       7.472   9.595  -5.975  1.00  0.00     0.217 HD
ENDBRANCH   3  10
TORSDOF 2
ENDMDL
MODEL 14
REMARK VINA RESULT:      -3.4     10.098     10.878
REMARK  2 active torsions:
REMARK  status: ('A' for Active; 'I' for Inactive)
REMARK    1  A    between atoms: C3_3  and  O1_8 
REMARK    2  A    between atoms: C6_6  and  N1_7 
ROOT
HETATM    1  C1  UNL     1      12.180   8.283  -6.574  1.00  0.00     0.026 A 
HETATM    2  C2  UNL     1      11.789   8.149  -7.908  1.00  0.00     0.038 A 
HETATM    3  C3  UNL     1      12.748   8.161  -8.911  1.00  0.00     0.065 A 
HETATM    4  C4  UNL     1      14.097   8.289  -8.598  1.00  0.00     0.038 A 
HETATM    5  C5  UNL     1      14.481   8.424  -7.261  1.00  0.00     0.026 A 
HETATM    6  C6  UNL     1      13.525   8.473  -6.241  1.00  0.00     0.005 A 
ENDROOT
BRANCH   6   7
HETATM    7  N1  UNL     1      13.925   8.489  -4.900  1.00  0.00    -0.303 NA
HETATM    8  H5  UNL     1      14.754   7.933  -4.715  1.00  0.00     0.124 HD
HETATM    9  H6  UNL     1      13.174   8.293  -4.246  1.00  0.00     0.124 HD
ENDBRANCH   6   7
BRANCH   3  10
HETATM   10  O1  UNL     1      12.327   8.025 -10.199  1.00  0.00    -0.361 OA
HETATM   11  H7  UNL     1      11.418   8.358 -10.265  1.00  0.00     0.217 HD
ENDBRANCH   3  10
TORSDOF 2
ENDMDL
MODEL 15
REMARK VINA RESULT:      -3.3      8.520      9.325
REMARK  2 active torsions:
REMARK  status: ('A' for Active; 'I' for Inactive)
REMARK    1  A    between atoms: C3_3  and  O1_8 
REMARK    2  A    between atoms: C6_6  and  N1_7 
ROOT
HETATM    1  C1  UNL     1      10.870   9.297  -7.087  1.00  0.00     0.026 A 
HETATM    2  C2  UNL     1      10.041   8.270  -7.544  1.00  0.00     0.038 A 
HETATM    3  C3  UNL     1      10.597   7.171  -8.183  1.00  0.00     0.065 A 
HETATM    4  C4  UNL     1      11.973   7.075  -8.359  1.00  0.00     0.038 A 
HETATM    5  C5  UNL     1      12.796   8.107  -7.901  1.00  0.00     0.026 A 
HETATM    6  C6  UNL     1      12.250   9.250  -7.307  1.00  0.00     0.005 A 
ENDROOT
BRANCH   6   7
HETATM    7  N1  UNL     1      13.088  10.221  -6.745  1.00  0.00    -0.303 NA
HETATM    8  H5  UNL     1      13.597   9.897  -5.929  1.00  0.00     0.124 HD
HETATM    9  H6  UNL     1      12.633  11.114  -6.588  1.00  0.00     0.124 HD
ENDBRANCH   6   7
BRANCH   3  10
HETATM   10  O1  UNL     1       9.755   6.188  -8.612  1.00  0.00    -0.361 OA
HETATM   11  H7  UNL     1       9.992   5.953  -9.523  1.00  0.00     0.217 HD
ENDBRANCH   3  10
TORSDOF 2
ENDMDL
MODEL 16
REMARK VINA RESULT:      -3.2     10.260     10.713
REMARK  2 active torsions:
REMARK  status: ('A' for Active; 'I' for Inactive)
REMARK    1  A    between atoms: C3_3  and  O1_8 
REMARK    2  A    between atoms: C6_6  and  N1_7 
ROOT
HETATM    1  C1  UNL     1      12.917   8.062  -9.268  1.00  0.00     0.026 A 
HETATM    2  C2  UNL     1      12.282   7.468  -8.176  1.00  0.00     0.038 A 
HETATM    3  C3  UNL     1      12.069   8.204  -7.019  1.00  0.00     0.065 A 
HETATM    4  C4  UNL     1      12.468   9.534  -6.943  1.00  0.00     0.038 A 
HETATM    5  C5  UNL     1      13.106  10.122  -8.040  1.00  0.00     0.026 A 
HETATM    6  C6  UNL     1      13.381   9.379  -9.192  1.00  0.00     0.005 A 
ENDROOT
BRANCH   6   7
HETATM    7  N1  UNL     1      13.910  10.007 -10.325  1.00  0.00    -0.303 NA
HETATM    8  H5  UNL     1      13.642  10.983 -10.414  1.00  0.00     0.124 HD
HETATM    9  H6  UNL     1      13.769   9.489 -11.186  1.00  0.00     0.124 HD
ENDBRANCH   6   7
BRANCH   3  10
HETATM   10  O1  UNL     1      11.443   7.589  -5.977  1.00  0.00    -0.361 OA
HETATM   11  H7  UNL     1      11.155   8.267  -5.345  1.00  0.00     0.217 HD
ENDBRANCH   3  10
TORSDOF 2
ENDMDL
MODEL 17
REMARK VINA RESULT:      -3.2      8.688      9.561
REMARK  2 active torsions:
REMARK  status: ('A' for Active; 'I' for Inactive)
REMARK    1  A    between atoms: C3_3  and  O1_8 
REMARK    2  A    between atoms: C6_6  and  N1_7 
ROOT
HETATM    1  C1  UNL     1      11.075   9.306  -7.105  1.00  0.00     0.026 A 
HETATM    2  C2  UNL     1      12.445   9.046  -7.024  1.00  0.00     0.038 A 
HETATM    3  C3  UNL     1      12.974   7.938  -7.669  1.00  0.00     0.065 A 
HETATM    4  C4  UNL     1      12.156   7.092  -8.410  1.00  0.00     0.038 A 
HETATM    5  C5  UNL     1      10.785   7.357  -8.486  1.00  0.00     0.026 A 
HETATM    6  C6  UNL     1      10.224   8.436  -7.794  1.00  0.00     0.005 A 
ENDROOT
BRANCH   6   7
HETATM    7  N1  UNL     1       8.875   8.762  -7.972  1.00  0.00    -0.303 NA
HETATM    8  H5  UNL     1       8.480   9.297  -7.205  1.00  0.00     0.124 HD
HETATM    9  H6  UNL     1       8.293   7.973  -8.233  1.00  0.00     0.124 HD
ENDBRANCH   6   7
BRANCH   3  10
HETATM   10  O1  UNL     1      14.316   7.721  -7.568  1.00  0.00    -0.361 OA
HETATM   11  H7  UNL     1      14.531   6.895  -8.030  1.00  0.00     0.217 HD
ENDBRANCH   3  10
TORSDOF 2
ENDMDL
MODEL 18
REMARK VINA RESULT:      -3.2      8.328      9.156
REMARK  2 active torsions:
REMARK  status: ('A' for Active; 'I' for Inactive)
REMARK    1  A    between atoms: C3_3  and  O1_8 
REMARK    2  A    between atoms: C6_6  and  N1_7 
ROOT
HETATM    1  C1  UNL     1       9.659   8.030  -7.268  1.00  0.00     0.026 A 
HETATM    2  C2  UNL     1      10.388   9.195  -7.018  1.00  0.00     0.038 A 
HETATM    3  C3  UNL     1      11.729   9.255  -7.367  1.00  0.00     0.065 A 
HETATM    4  C4  UNL     1      12.351   8.172  -7.979  1.00  0.00     0.038 A 
HETATM    5  C5  UNL     1      11.615   7.009  -8.225  1.00  0.00     0.026 A 
HETATM    6  C6  UNL     1      10.278   6.908  -7.827  1.00  0.00     0.005 A 
ENDROOT
BRANCH   6   7
HETATM    7  N1  UNL     1       9.519   5.788  -8.184  1.00  0.00    -0.303 NA
HETATM    8  H5  UNL     1       8.573   5.802  -7.815  1.00  0.00     0.124 HD
HETATM    9  H6  UNL     1       9.987   4.904  -8.013  1.00  0.00     0.124 HD
ENDBRANCH   6   7
BRANCH   3  10
HETATM   10  O1  UNL     1      12.405  10.410  -7.110  1.00  0.00    -0.361 OA
HETATM   11  H7  UNL     1      12.813  10.340  -6.232  1.00  0.00     0.217 HD
ENDBRANCH   3  10
TORSDOF 2
ENDMDL
MODEL 19
REMARK VINA RESULT:      -3.1     12.165     12.984
REMARK  2 active torsions:
REMARK  status: ('A' for Active; 'I' for Inactive)
REMARK    1  A    between atoms: C3_3  and  O1_8 
REMARK    2  A    between atoms: C6_6  and  N1_7 
ROOT
HETATM    1  C1  UNL     1      13.799   9.004  -6.469  1.00  0.00     0.026 A 
HETATM    2  C2  UNL     1      14.026   8.519  -5.180  1.00  0.00     0.038 A 
HETATM    3  C3  UNL     1      15.150   7.745  -4.924  1.00  0.00     0.065 A 
HETATM    4  C4  UNL     1      16.060   7.463  -5.937  1.00  0.00     0.038 A 
HETATM    5  C5  UNL     1      15.825   7.952  -7.226  1.00  0.00     0.026 A 
HETATM    6  C6  UNL     1      14.668   8.683  -7.516  1.00  0.00     0.005 A 
ENDROOT
BRANCH   6   7
HETATM    7  N1  UNL     1      14.502   9.267  -8.776  1.00  0.00    -0.303 NA
HETATM    8  H5  UNL     1      13.536   9.485  -9.000  1.00  0.00     0.124 HD
HETATM    9  H6  UNL     1      14.969   8.767  -9.525  1.00  0.00     0.124 HD
ENDBRANCH   6   7
BRANCH   3  10
HETATM   10  O1  UNL     1      15.338   7.292  -3.653  1.00  0.00    -0.361 OA
HETATM   11  H7  UNL     1      15.359   8.055  -3.053  1.00  0.00     0.217 HD
ENDBRANCH   3  10
TORSDOF 2
ENDMDL
