MODEL 1
REMARK VINA RESULT:      -5.4      0.000      0.000
REMARK  2 active torsions:
REMARK  status: ('A' for Active; 'I' for Inactive)
REMARK    1  A    between atoms: C3_3  and  O1_8 
REMARK    2  A    between atoms: C6_6  and  N1_7 
ROOT
HETATM    1  C1  UNL     1       1.693   8.706  -8.033  1.00  0.00     0.026 A 
HETATM    2  C2  UNL     1       1.066   9.443  -7.025  1.00  0.00     0.038 A 
HETATM    3  C3  UNL     1       1.677  10.586  -6.528  1.00  0.00     0.065 A 
HETATM    4  C4  UNL     1       2.899  11.013  -7.035  1.00  0.00     0.038 A 
HETATM    5  C5  UNL     1       3.521  10.270  -8.043  1.00  0.00     0.026 A 
HETATM    6  C6  UNL     1       2.949   9.084  -8.516  1.00  0.00     0.005 A 
ENDROOT
BRANCH   6   7
HETATM    7  N1  UNL     1       3.518   8.413  -9.604  1.00  0.00    -0.303 NA
HETATM    8  H5  UNL     1       4.433   8.019  -9.408  1.00  0.00     0.124 HD
HETATM    9  H6  UNL     1       3.503   8.945 -10.468  1.00  0.00     0.124 HD
ENDBRANCH   6   7
BRANCH   3  10
HETATM   10  O1  UNL     1       1.033  11.278  -5.547  1.00  0.00    -0.361 OA
HETATM   11  H7  UNL     1       0.412  11.898  -5.962  1.00  0.00     0.217 HD
ENDBRANCH   3  10
TORSDOF 2
ENDMDL
MODEL 2
REMARK VINA RESULT:      -5.4      0.105      1.704
REMARK  2 active torsions:
REMARK  status: ('A' for Active; 'I' for Inactive)
REMARK    1  A    between atoms: C3_3  and  O1_8 
REMARK    2  A    between atoms: C6_6  and  N1_7 
ROOT
HETATM    1  C1  UNL     1       3.423  10.353  -8.141  1.00  0.00     0.026 A 
HETATM    2  C2  UNL     1       2.810  11.066  -7.108  1.00  0.00     0.038 A 
HETATM    3  C3  UNL     1       1.644  10.580  -6.534  1.00  0.00     0.065 A 
HETATM    4  C4  UNL     1       1.089   9.381  -6.966  1.00  0.00     0.038 A 
HETATM    5  C5  UNL     1       1.707   8.673  -8.001  1.00  0.00     0.026 A 
HETATM    6  C6  UNL     1       2.850   9.176  -8.632  1.00  0.00     0.005 A 
ENDROOT
BRANCH   6   7
HETATM    7  N1  UNL     1       3.527   8.404  -9.583  1.00  0.00    -0.303 NA
HETATM    8  H5  UNL     1       4.127   7.692  -9.178  1.00  0.00     0.124 HD
HETATM    9  H6  UNL     1       4.002   8.952 -10.292  1.00  0.00     0.124 HD
ENDBRANCH   6   7
BRANCH   3  10
HETATM   10  O1  UNL     1       1.078  11.304  -5.528  1.00  0.00    -0.361 OA
HETATM   11  H7  UNL     1       1.782  11.613  -4.935  1.00  0.00     0.217 HD
ENDBRANCH   3  10
TORSDOF 2
ENDMDL
MODEL 3
REMARK VINA RESULT:      -5.3      2.791      3.681
REMARK  2 active torsions:
REMARK  status: ('A' for Active; 'I' for Inactive)
REMARK    1  A    between atoms: C3_3  and  O1_8 
REMARK    2  A    between atoms: C6_6  and  N1_7 
ROOT
HETATM    1  C1  UNL     1       2.747  11.111  -7.384  1.00  0.00     0.026 A 
HETATM    2  C2  UNL     1       3.343  10.431  -8.448  1.00  0.00     0.038 A 
HETATM    3  C3  UNL     1       2.881   9.172  -8.804  1.00  0.00     0.065 A 
HETATM    4  C4  UNL     1       1.820   8.588  -8.121  1.00  0.00     0.038 A 
HETATM    5  C5  UNL     1       1.229   9.274  -7.056  1.00  0.00     0.026 A 
HETATM    6  C6  UNL     1       1.719  10.518  -6.645  1.00  0.00     0.005 A 
ENDROOT
BRANCH   6   7
HETATM    7  N1  UNL     1       1.047  11.249  -5.658  1.00  0.00    -0.303 NA
HETATM    8  H5  UNL     1       1.667  11.730  -5.013  1.00  0.00     0.124 HD
HETATM    9  H6  UNL     1       0.324  10.723  -5.179  1.00  0.00     0.124 HD
ENDBRANCH   6   7
BRANCH   3  10
HETATM   10  O1  UNL     1       3.487   8.541  -9.849  1.00  0.00    -0.361 OA
HETATM   11  H7  UNL     1       4.448   8.583  -9.721  1.00  0.00     0.217 HD
ENDBRANCH   3  10
TORSDOF 2
ENDMDL
MODEL 4
REMARK VINA RESULT:      -5.3      2.783      3.268
REMARK  2 active torsions:
REMARK  status: ('A' for Active; 'I' for Inactive)
REMARK    1  A    between atoms: C3_3  and  O1_8 
REMARK    2  A    between atoms: C6_6  and  N1_7 
ROOT
HETATM    1  C1  UNL     1       1.200   9.362  -7.122  1.00  0.00     0.026 A 
HETATM    2  C2  UNL     1       1.807   8.610  -8.131  1.00  0.00     0.038 A 
HETATM    3  C3  UNL     1       2.999   9.047  -8.691  1.00  0.00     0.065 A 
HETATM    4  C4  UNL     1       3.603  10.218  -8.247  1.00  0.00     0.038 A 
HETATM    5  C5  UNL     1       2.988  10.966  -7.238  1.00  0.00     0.026 A 
HETATM    6  C6  UNL     1       1.758  10.573  -6.702  1.00  0.00     0.005 A 
ENDROOT
BRANCH   6   7
HETATM    7  N1  UNL     1       1.211  11.261  -5.613  1.00  0.00    -0.303 NA
HETATM    8  H5  UNL     1       1.834  11.319  -4.813  1.00  0.00     0.124 HD
HETATM    9  H6  UNL     1       0.281  10.950  -5.356  1.00  0.00     0.124 HD
ENDBRANCH   6   7
BRANCH   3  10
HETATM   10  O1  UNL     1       3.561   8.284  -9.671  1.00  0.00    -0.361 OA
HETATM   11  H7  UNL     1       3.554   7.357  -9.384  1.00  0.00     0.217 HD
ENDBRANCH   3  10
TORSDOF 2
ENDMDL
MODEL 5
REMARK VINA RESULT:      -5.0      1.078      1.984
REMARK  2 active torsions:
REMARK  status: ('A' for Active; 'I' for Inactive)
REMARK    1  A    between atoms: C3_3  and  O1_8 
REMARK    2  A    between atoms: C6_6  and  N1_7 
ROOT
HETATM    1  C1  UNL     1       3.290  10.910  -7.152  1.00  0.00     0.026 A 
HETATM    2  C2  UNL     1       2.129  10.801  -6.382  1.00  0.00     0.038 A 
HETATM    3  C3  UNL     1       1.194   9.820  -6.682  1.00  0.00     0.065 A 
HETATM    4  C4  UNL     1       1.410   8.934  -7.732  1.00  0.00     0.038 A 
HETATM    5  C5  UNL     1       2.573   9.050  -8.499  1.00  0.00     0.026 A 
HETATM    6  C6  UNL     1       3.499  10.069  -8.249  1.00  0.00     0.005 A 
ENDROOT
BRANCH   6   7
HETATM    7  N1  UNL     1       4.713  10.103  -8.943  1.00  0.00    -0.303 NA
HETATM    8  H5  UNL     1       4.644   9.782  -9.903  1.00  0.00     0.124 HD
HETATM    9  H6  UNL     1       5.483   9.668  -8.445  1.00  0.00     0.124 HD
ENDBRANCH   6   7
BRANCH   3  10
HETATM   10  O1  UNL     1       0.077   9.744  -5.906  1.00  0.00    -0.361 OA
HETATM   11  H7  UNL     1      -0.439  10.557  -6.026  1.00  0.00     0.217 HD
ENDBRANCH   3  10
TORSDOF 2
ENDMDL
MODEL 6
REMARK VINA RESULT:      -4.7      2.145      2.770
REMARK  2 active torsions:
REMARK  status: ('A' for Active; 'I' for Inactive)
REMARK    1  A    between atoms: C3_3  and  O1_8 
REMARK    2  A    between atoms: C6_6  and  N1_7 
ROOT
HETATM    1  C1  UNL     1       4.358   9.607  -8.688  1.00  0.00     0.026 A 
HETATM    2  C2  UNL     1       3.162   8.910  -8.873  1.00  0.00     0.038 A 
HETATM    3  C3  UNL     1       2.050   9.238  -8.110  1.00  0.00     0.065 A 
HETATM    4  C4  UNL     1       2.112  10.264  -7.174  1.00  0.00     0.038 A 
HETATM    5  C5  UNL     1       3.313  10.956  -6.993  1.00  0.00     0.026 A 
HETATM    6  C6  UNL     1       4.460  10.602  -7.711  1.00  0.00     0.005 A 
ENDROOT
BRANCH   6   7
HETATM    7  N1  UNL     1       5.621  11.376  -7.610  1.00  0.00    -0.303 NA
HETATM    8  H5  UNL     1       5.490  12.244  -7.100  1.00  0.00     0.124 HD
HETATM    9  H6  UNL     1       6.100  11.515  -8.493  1.00  0.00     0.124 HD
ENDBRANCH   6   7
BRANCH   3  10
HETATM   10  O1  UNL     1       0.901   8.536  -8.323  1.00  0.00    -0.361 OA
HETATM   11  H7  UNL     1       0.741   7.965  -7.555  1.00  0.00     0.217 HD
ENDBRANCH   3  10
TORSDOF 2
ENDMDL
MODEL 7
REMARK VINA RESULT:      -4.7      2.400      3.013
REMARK  2 active torsions:
REMARK  status: ('A' for Active; 'I' for Inactive)
REMARK    1  A    between atoms: C3_3  and  O1_8 
REMARK    2  A    between atoms: C6_6  and  N1_7 
ROOT
HETATM    1  C1  UNL     1       3.055   8.862  -8.996  1.00  0.00     0.026 A 
HETATM    2  C2  UNL     1       4.283   9.519  -9.100  1.00  0.00     0.038 A 
HETATM    3  C3  UNL     1       4.575  10.570  -8.242  1.00  0.00     0.065 A 
HETATM    4  C4  UNL     1       3.663  10.965  -7.270  1.00  0.00     0.038 A 
HETATM    5  C5  UNL     1       2.435  10.304  -7.173  1.00  0.00     0.026 A 
HETATM    6  C6  UNL     1       2.098   9.282  -8.066  1.00  0.00     0.005 A 
ENDROOT
BRANCH   6   7
HETATM    7  N1  UNL     1       0.920   8.548  -7.887  1.00  0.00    -0.303 NA
HETATM    8  H5  UNL     1       0.496   8.676  -6.973  1.00  0.00     0.124 HD
HETATM    9  H6  UNL     1       1.003   7.570  -8.141  1.00  0.00     0.124 HD
ENDBRANCH   6   7
BRANCH   3  10
HETATM   10  O1  UNL     1       5.785  11.183  -8.373  1.00  0.00    -0.361 OA
HETATM   11  H7  UNL     1       6.483  10.525  -8.227  1.00  0.00     0.217 HD
ENDBRANCH   3  10
TORSDOF 2
ENDMDL
MODEL 8
REMARK VINA RESULT:      -4.6      2.413      3.132
REMARK  2 active torsions:
REMARK  status: ('A' for Active; 'I' for Inactive)
REMARK    1  A    between atoms: C3_3  and  O1_8 
REMARK    2  A    between atoms: C6_6  and  N1_7 
ROOT
HETATM    1  C1  UNL     1       2.508  10.264  -7.159  1.00  0.00     0.026 A 
HETATM    2  C2  UNL     1       3.719  10.939  -7.328  1.00  0.00     0.038 A 
HETATM    3  C3  UNL     1       4.580  10.562  -8.348  1.00  0.00     0.065 A 
HETATM    4  C4  UNL     1       4.242   9.528  -9.214  1.00  0.00     0.038 A 
HETATM    5  C5  UNL     1       3.030   8.855  -9.038  1.00  0.00     0.026 A 
HETATM    6  C6  UNL     1       2.175   9.182  -7.980  1.00  0.00     0.005 A 
ENDROOT
BRANCH   6   7
HETATM    7  N1  UNL     1       0.913   8.586  -7.884  1.00  0.00    -0.303 NA
HETATM    8  H5  UNL     1       0.201   9.045  -8.443  1.00  0.00     0.124 HD
HETATM    9  H6  UNL     1       0.608   8.421  -6.930  1.00  0.00     0.124 HD
ENDBRANCH   6   7
BRANCH   3  10
HETATM   10  O1  UNL     1       5.750  11.247  -8.482  1.00  0.00    -0.361 OA
HETATM   11  H7  UNL     1       6.273  11.129  -7.673  1.00  0.00     0.217 HD
ENDBRANCH   3  10
TORSDOF 2
ENDMDL
MODEL 9
REMARK VINA RESULT:      -4.4      3.300      4.019
REMARK  2 active torsions:
REMARK  status: ('A' for Active; 'I' for Inactive)
REMARK    1  A    between atoms: C3_3  and  O1_8 
REMARK    2  A    between atoms: C6_6  and  N1_7 
ROOT
HETATM    1  C1  UNL     1       4.725  10.514  -7.587  1.00  0.00     0.026 A 
HETATM    2  C2  UNL     1       3.750   9.987  -8.437  1.00  0.00     0.038 A 
HETATM    3  C3  UNL     1       3.677  10.423  -9.753  1.00  0.00     0.065 A 
HETATM    4  C4  UNL     1       4.575  11.368 -10.237  1.00  0.00     0.038 A 
HETATM    5  C5  UNL     1       5.547  11.892  -9.379  1.00  0.00     0.026 A 
HETATM    6  C6  UNL     1       5.599  11.509  -8.035  1.00  0.00     0.005 A 
ENDROOT
BRANCH   6   7
HETATM    7  N1  UNL     1       6.647  11.947  -7.218  1.00  0.00    -0.303 NA
HETATM    8  H5  UNL     1       7.136  12.760  -7.581  1.00  0.00     0.124 HD
HETATM    9  H6  UNL     1       7.283  11.209  -6.934  1.00  0.00     0.124 HD
ENDBRANCH   6   7
BRANCH   3  10
HETATM   10  O1  UNL     1       2.714   9.883 -10.552  1.00  0.00    -0.361 OA
HETATM   11  H7  UNL     1       3.059   9.065 -10.944  1.00  0.00     0.217 HD
ENDBRANCH   3  10
TORSDOF 2
ENDMDL
MODEL 10
REMARK VINA RESULT:      -3.9      2.766      3.474
REMARK  2 active torsions:
REMARK  status: ('A' for Active; 'I' for Inactive)
REMARK    1  A    between atoms: C3_3  and  O1_8 
REMARK    2  A    between atoms: C6_6  and  N1_7 
ROOT
HETATM    1  C1  UNL     1       3.943  12.517 -10.171  1.00  0.00     0.026 A 
HETATM    2  C2  UNL     1       2.966  12.345  -9.188  1.00  0.00     0.038 A 
HETATM    3  C3  UNL     1       3.219  11.518  -8.103  1.00  0.00     0.065 A 
HETATM    4  C4  UNL     1       4.444  10.871  -7.977  1.00  0.00     0.038 A 
HETATM    5  C5  UNL     1       5.417  11.047  -8.965  1.00  0.00     0.026 A 
HETATM    6  C6  UNL     1       5.158  11.830 -10.095  1.00  0.00     0.005 A 
ENDROOT
BRANCH   6   7
HETATM    7  N1  UNL     1       6.178  12.096 -11.017  1.00  0.00    -0.303 NA
HETATM    8  H5  UNL     1       6.048  12.962 -11.529  1.00  0.00     0.124 HD
HETATM    9  H6  UNL     1       6.393  11.314 -11.627  1.00  0.00     0.124 HD
ENDBRANCH   6   7
BRANCH   3  10
HETATM   10  O1  UNL     1       2.241  11.378  -7.165  1.00  0.00    -0.361 OA
HETATM   11  H7  UNL     1       2.030  12.254  -6.804  1.00  0.00     0.217 HD
ENDBRANCH   3  10
TORSDOF 2
ENDMDL
MODEL 11
REMARK VINA RESULT:      -3.9      3.091      3.957
REMARK  2 active torsions:
REMARK  status: ('A' for Active; 'I' for Inactive)
REMARK    1  A    between atoms: C3_3  and  O1_8 
REMARK    2  A    between atoms: C6_6  and  N1_7 
ROOT
HETATM    1  C1  UNL     1       3.877  11.531  -6.107  1.00  0.00     0.026 A 
HETATM    2  C2  UNL     1       5.014  11.541  -6.919  1.00  0.00     0.038 A 
HETATM    3  C3  UNL     1       4.934  11.064  -8.220  1.00  0.00     0.065 A 
HETATM    4  C4  UNL     1       3.729  10.592  -8.728  1.00  0.00     0.038 A 
HETATM    5  C5  UNL     1       2.596  10.584  -7.910  1.00  0.00     0.026 A 
HETATM    6  C6  UNL     1       2.670  11.006  -6.578  1.00  0.00     0.005 A 
ENDROOT
BRANCH   6   7
HETATM    7  N1  UNL     1       1.508  11.107  -5.805  1.00  0.00    -0.303 NA
HETATM    8  H5  UNL     1       1.685  11.150  -4.806  1.00  0.00     0.124 HD
HETATM    9  H6  UNL     1       0.797  10.423  -6.042  1.00  0.00     0.124 HD
ENDBRANCH   6   7
BRANCH   3  10
HETATM   10  O1  UNL     1       6.064  11.092  -8.980  1.00  0.00    -0.361 OA
HETATM   11  H7  UNL     1       6.015  11.854  -9.581  1.00  0.00     0.217 HD
ENDBRANCH   3  10
TORSDOF 2
ENDMDL
MODEL 12
REMARK VINA RESULT:      -3.9      2.020      2.735
REMARK  2 active torsions:
REMARK  status: ('A' for Active; 'I' for Inactive)
REMARK    1  A    between atoms: C3_3  and  O1_8 
REMARK    2  A    between atoms: C6_6  and  N1_7 
ROOT
HETATM    1  C1  UNL     1       3.632  10.331 -10.213  1.00  0.00     0.026 A 
HETATM    2  C2  UNL     1       3.744  11.665  -9.814  1.00  0.00     0.038 A 
HETATM    3  C3  UNL     1       3.512  12.009  -8.490  1.00  0.00     0.065 A 
HETATM    4  C4  UNL     1       3.186  11.035  -7.552  1.00  0.00     0.038 A 
HETATM    5  C5  UNL     1       3.075   9.702  -7.959  1.00  0.00     0.026 A 
HETATM    6  C6  UNL     1       3.247   9.345  -9.300  1.00  0.00     0.005 A 
ENDROOT
BRANCH   6   7
HETATM    7  N1  UNL     1       3.251   7.996  -9.675  1.00  0.00    -0.303 NA
HETATM    8  H5  UNL     1       2.324   7.589  -9.743  1.00  0.00     0.124 HD
HETATM    9  H6  UNL     1       3.887   7.422  -9.133  1.00  0.00     0.124 HD
ENDBRANCH   6   7
BRANCH   3  10
HETATM   10  O1  UNL     1       3.634  13.320  -8.139  1.00  0.00    -0.361 OA
HETATM   11  H7  UNL     1       3.113  13.856  -8.759  1.00  0.00     0.217 HD
ENDBRANCH   3  10
TORSDOF 2
ENDMDL
MODEL 13
REMARK VINA RESULT:      -3.9      3.575      4.347
REMARK  2 active torsions:
REMARK  status: ('A' for Active; 'I' for Inactive)
REMARK    1  A    between atoms: C3_3  and  O1_8 
REMARK    2  A    between atoms: C6_6  and  N1_7 
ROOT
HETATM    1  C1  UNL     1       3.003  12.144  -9.001  1.00  0.00     0.026 A 
HETATM    2  C2  UNL     1       4.018  12.328  -9.943  1.00  0.00     0.038 A 
HETATM    3  C3  UNL     1       5.263  11.754  -9.734  1.00  0.00     0.065 A 
HETATM    4  C4  UNL     1       5.506  10.982  -8.603  1.00  0.00     0.038 A 
HETATM    5  C5  UNL     1       4.486  10.803  -7.664  1.00  0.00     0.026 A 
HETATM    6  C6  UNL     1       3.243  11.422  -7.828  1.00  0.00     0.005 A 
ENDROOT
BRANCH   6   7
HETATM    7  N1  UNL     1       2.193  11.140  -6.946  1.00  0.00    -0.303 NA
HETATM    8  H5  UNL     1       2.494  10.700  -6.082  1.00  0.00     0.124 HD
HETATM    9  H6  UNL     1       1.415  10.654  -7.377  1.00  0.00     0.124 HD
ENDBRANCH   6   7
BRANCH   3  10
HETATM   10  O1  UNL     1       6.226  11.955 -10.678  1.00  0.00    -0.361 OA
HETATM   11  H7  UNL     1       6.615  11.097 -10.911  1.00  0.00     0.217 HD
ENDBRANCH   3  10
TORSDOF 2
ENDMDL
MODEL 14
REMARK VINA RESULT:      -3.9      2.546      3.214
REMARK  2 active torsions:
REMARK  status: ('A' for Active; 'I' for Inactive)
REMARK    1  A    between atoms: C3_3  and  O1_8 
REMARK    2  A    between atoms: C6_6  and  N1_7 
ROOT
HETATM    1  C1  UNL     1       2.916  12.001  -8.298  1.00  0.00     0.026 A 
HETATM    2  C2  UNL     1       2.794  10.840  -7.531  1.00  0.00     0.038 A 
HETATM    3  C3  UNL     1       3.074   9.606  -8.100  1.00  0.00     0.065 A 
HETATM    4  C4  UNL     1       3.492   9.516  -9.424  1.00  0.00     0.038 A 
HETATM    5  C5  UNL     1       3.611  10.682 -10.186  1.00  0.00     0.026 A 
HETATM    6  C6  UNL     1       3.276  11.928  -9.647  1.00  0.00     0.005 A 
ENDROOT
BRANCH   6   7
HETATM    7  N1  UNL     1       3.512  13.098 -10.378  1.00  0.00    -0.303 NA
HETATM    8  H5  UNL     1       4.264  13.669 -10.004  1.00  0.00     0.124 HD
HETATM    9  H6  UNL     1       2.675  13.639 -10.568  1.00  0.00     0.124 HD
ENDBRANCH   6   7
BRANCH   3  10
HETATM   10  O1  UNL     1       2.946   8.498  -7.318  1.00  0.00    -0.361 OA
HETATM   11  H7  UNL     1       3.619   7.852  -7.584  1.00  0.00     0.217 HD
ENDBRANCH   3  10
TORSDOF 2
ENDMDL
MODEL 15
REMARK VINA RESULT:      -3.7      4.059      4.756
REMARK  2 active torsions:
REMARK  status: ('A' for Active; 'I' for Inactive)
REMARK    1  A    between atoms: C3_3  and  O1_8 
REMARK    2  A    between atoms: C6_6  and  N1_7 
ROOT
HETATM    1  C1  UNL     1       4.656  10.857  -7.478  1.00  0.00     0.026 A 
HETATM    2  C2  UNL     1       4.810  10.745  -8.861  1.00  0.00     0.038 A 
HETATM    3  C3  UNL     1       5.270  11.831  -9.593  1.00  0.00     0.065 A 
HETATM    4  C4  UNL     1       5.595  13.025  -8.959  1.00  0.00     0.038 A 
HETATM    5  C5  UNL     1       5.437  13.130  -7.574  1.00  0.00     0.026 A 
HETATM    6  C6  UNL     1       4.919  12.067  -6.828  1.00  0.00     0.005 A 
ENDROOT
BRANCH   6   7
HETATM    7  N1  UNL     1       4.878  12.140  -5.431  1.00  0.00    -0.303 NA
HETATM    8  H5  UNL     1       5.440  12.893  -5.045  1.00  0.00     0.124 HD
HETATM    9  H6  UNL     1       5.048  11.254  -4.968  1.00  0.00     0.124 HD
ENDBRANCH   6   7
BRANCH   3  10
HETATM   10  O1  UNL     1       5.409  11.680 -10.940  1.00  0.00    -0.361 OA
HETATM   11  H7  UNL     1       4.725  12.208 -11.383  1.00  0.00     0.217 HD
ENDBRANCH   3  10
TORSDOF 2
ENDMDL
MODEL 16
REMARK VINA RESULT:      -3.6      3.667      4.299
REMARK  2 active torsions:
REMARK  status: ('A' for Active; 'I' for Inactive)
REMARK    1  A    between atoms: C3_3  and  O1_8 
REMARK    2  A    between atoms: C6_6  and  N1_7 
ROOT
HETATM    1  C1  UNL     1       3.895  11.627  -8.292  1.00  0.00     0.026 A 
HETATM    2  C2  UNL     1       2.807  12.032  -9.069  1.00  0.00     0.038 A 
HETATM    3  C3  UNL     1       3.010  12.881 -10.148  1.00  0.00     0.065 A 
HETATM    4  C4  UNL     1       4.288  13.320 -10.472  1.00  0.00     0.038 A 
HETATM    5  C5  UNL     1       5.373  12.912  -9.690  1.00  0.00     0.026 A 
HETATM    6  C6  UNL     1       5.181  12.104  -8.564  1.00  0.00     0.005 A 
ENDROOT
BRANCH   6   7
HETATM    7  N1  UNL     1       6.282  11.605  -7.859  1.00  0.00    -0.303 NA
HETATM    8  H5  UNL     1       6.087  10.748  -7.352  1.00  0.00     0.124 HD
HETATM    9  H6  UNL     1       6.748  12.297  -7.283  1.00  0.00     0.124 HD
ENDBRANCH   6   7
BRANCH   3  10
HETATM   10  O1  UNL     1       1.923  13.251 -10.882  1.00  0.00    -0.361 OA
HETATM   11  H7  UNL     1       1.578  12.468 -11.341  1.00  0.00     0.217 HD
ENDBRANCH   3  10
TORSDOF 2
ENDMDL
MODEL 17
REMARK VINA RESULT:      -2.8      5.307      5.728
REMARK  2 active torsions:
REMARK  status: ('A' for Active; 'I' for Inactive)
REMARK    1  A    between atoms: C3_3  and  O1_8 
REMARK    2  A    between atoms: C6_6  and  N1_7 
ROOT
HETATM    1  C1  UNL     1       1.412   5.866  -2.445  1.00  0.00     0.026 A 
HETATM    2  C2  UNL     1       0.837   6.933  -3.139  1.00  0.00     0.038 A 
HETATM    3  C3  UNL     1       1.421   7.384  -4.315  1.00  0.00     0.065 A 
HETATM    4  C4  UNL     1       2.563   6.771  -4.818  1.00  0.00     0.038 A 
HETATM    5  C5  UNL     1       3.134   5.704  -4.117  1.00  0.00     0.026 A 
HETATM    6  C6  UNL     1       2.594   5.274  -2.900  1.00  0.00     0.005 A 
ENDROOT
BRANCH   6   7
HETATM    7  N1  UNL     1       3.100   4.132  -2.269  1.00  0.00    -0.303 NA
HETATM    8  H5  UNL     1       3.438   4.302  -1.327  1.00  0.00     0.124 HD
HETATM    9  H6  UNL     1       3.767   3.614  -2.831  1.00  0.00     0.124 HD
ENDBRANCH   6   7
BRANCH   3  10
HETATM   10  O1  UNL     1       0.829   8.425  -4.963  1.00  0.00    -0.361 OA
HETATM   11  H7  UNL     1       0.795   8.221  -5.911  1.00  0.00     0.217 HD
ENDBRANCH   3  10
TORSDOF 2
ENDMDL
