MODEL 1
REMARK VINA RESULT:      -7.4      0.000      0.000
REMARK  27 active torsions:
REMARK  status: ('A' for Active; 'I' for Inactive)
REMARK    1  A    between atoms: C2_2  and  S1_4 
REMARK    2  A    between atoms: S1_4  and  C3_5 
REMARK    3  A    between atoms: C3_5  and  C4_6 
REMARK    4  A    between atoms: C4_6  and  N1_7 
REMARK       I    between atoms: N1_7  and  C5_8 
REMARK    5  A    between atoms: C5_8  and  C6_10 
REMARK    6  A    between atoms: C6_10  and  C7_11 
REMARK    7  A    between atoms: C7_11  and  N2_12 
REMARK       I    between atoms: N2_12  and  C8_13 
REMARK    8  A    between atoms: C8_13  and  C9_15 
REMARK    9  A    between atoms: C9_15  and  C10_16 
REMARK   10  A    between atoms: C9_15  and  O17_54 
REMARK   11  A    between atoms: C10_16  and  C13_19 
REMARK   12  A    between atoms: C13_19  and  O4_20 
REMARK   13  A    between atoms: O4_20  and  P1_21 
REMARK   14  A    between atoms: P1_21  and  O6_23 
REMARK   15  A    between atoms: P1_21  and  O7_24 
REMARK   16  A    between atoms: O7_24  and  P2_25 
REMARK   17  A    between atoms: P2_25  and  O9_27 
REMARK   18  A    between atoms: P2_25  and  O10_28 
REMARK   19  A    between atoms: O10_28  and  C14_29 
REMARK   20  A    between atoms: C14_29  and  C15_30 
REMARK   21  A    between atoms: C16_31  and  O13_49 
REMARK   22  A    between atoms: C17_32  and  O12_48 
REMARK   23  A    between atoms: C18_33  and  N3_35 
REMARK   24  A    between atoms: C21_40  and  N7_47 
REMARK   25  A    between atoms: O13_49  and  P3_50 
REMARK   26  A    between atoms: P3_50  and  O15_52 
REMARK   27  A    between atoms: P3_50  and  O16_53 
ROOT
HETATM    1  C1  UNL     1      13.088  13.192  -9.446  1.00  0.00     0.104 C 
HETATM    2  C2  UNL     1      12.425  13.327  -8.109  1.00  0.00     0.182 C 
HETATM    3  O1  UNL     1      12.503  12.474  -7.228  1.00  0.00    -0.286 OA
ENDROOT
BRANCH   2   4
HETATM    4  S1  UNL     1      11.485  14.800  -7.911  1.00  0.00    -0.091 SA
BRANCH   4   5
HETATM    5  C3  UNL     1      10.036  14.143  -7.024  1.00  0.00     0.102 C 
BRANCH   5   6
HETATM    6  C4  UNL     1      10.062  14.511  -5.539  1.00  0.00     0.133 C 
BRANCH   6   7
HETATM    7  N1  UNL     1      11.060  13.769  -4.796  1.00  0.00    -0.360 N 
HETATM    8  C5  UNL     1      12.101  14.399  -4.154  1.00  0.00     0.219 C 
HETATM    9  O2  UNL     1      12.294  15.607  -4.236  1.00  0.00    -0.274 OA
HETATM   10  H8  UNL     1      10.980  12.763  -4.746  1.00  0.00     0.162 HD
BRANCH   8  11
HETATM   11  C6  UNL     1      12.998  13.448  -3.391  1.00  0.00     0.122 C 
BRANCH  11  12
HETATM   12  C7  UNL     1      14.180  12.976  -4.236  1.00  0.00     0.132 C 
BRANCH  12  13
HETATM   13  N2  UNL     1      14.145  11.556  -4.519  1.00  0.00    -0.358 N 
HETATM   14  C8  UNL     1      15.322  10.850  -4.685  1.00  0.00     0.247 C 
HETATM   15  O3  UNL     1      16.415  11.402  -4.718  1.00  0.00    -0.271 OA
HETATM   16  H13 UNL     1      13.350  11.052  -4.132  1.00  0.00     0.162 HD
BRANCH  14  17
HETATM   17  C9  UNL     1      15.149   9.328  -4.801  1.00  0.00     0.219 C 
BRANCH  17  18
HETATM   18  C10 UNL     1      15.748   8.710  -6.092  1.00  0.00     0.009 C 
HETATM   19  C11 UNL     1      17.257   8.970  -6.211  1.00  0.00     0.020 C 
HETATM   20  C12 UNL     1      15.523   7.185  -6.145  1.00  0.00     0.020 C 
BRANCH  18  21
HETATM   21  C13 UNL     1      15.006   9.392  -7.276  1.00  0.00     0.192 C 
BRANCH  21  22
HETATM   22  O4  UNL     1      14.995   8.589  -8.439  1.00  0.00    -0.296 OA
BRANCH  22  23
HETATM   23  P1  UNL     1      13.866   8.710  -9.571  1.00  0.00     0.401 P 
HETATM   24  O5  UNL     1      13.746   7.503 -10.447  1.00  0.00    -0.631 OA
BRANCH  23  25
HETATM   25  O6  UNL     1      14.159  10.072 -10.378  1.00  0.00    -0.307 OA
HETATM   26  H23 UNL     1      14.464  10.779  -9.795  1.00  0.00     0.222 HD
ENDBRANCH  23  25
BRANCH  23  27
HETATM   27  O7  UNL     1      12.537   9.096  -8.785  1.00  0.00    -0.195 OA
BRANCH  27  28
HETATM   28  P2  UNL     1      11.537   7.936  -8.347  1.00  0.00     0.401 P 
HETATM   29  O8  UNL     1      10.524   7.500  -9.354  1.00  0.00    -0.631 OA
BRANCH  28  30
HETATM   30  O9  UNL     1      12.516   6.773  -7.861  1.00  0.00    -0.307 OA
HETATM   31  H24 UNL     1      13.454   7.060  -7.736  1.00  0.00     0.222 HD
ENDBRANCH  28  30
BRANCH  28  32
HETATM   32  O10 UNL     1      10.957   8.436  -6.945  1.00  0.00    -0.294 OA
BRANCH  32  33
HETATM   33  C14 UNL     1      10.399   9.719  -6.833  1.00  0.00     0.215 C 
BRANCH  33  34
HETATM   34  C15 UNL     1       9.043   9.537  -6.155  1.00  0.00     0.180 C 
HETATM   35  C16 UNL     1       8.251   8.450  -6.870  1.00  0.00     0.197 C 
HETATM   36  C17 UNL     1       7.019   9.158  -7.402  1.00  0.00     0.199 C 
HETATM   37  C18 UNL     1       6.886  10.341  -6.440  1.00  0.00     0.262 C 
HETATM   38  O11 UNL     1       8.250  10.730  -6.162  1.00  0.00    -0.353 OA
BRANCH  35  39
HETATM   39  O13 UNL     1       7.922   7.445  -5.917  1.00  0.00    -0.286 OA
BRANCH  39  40
HETATM   40  P3  UNL     1       8.331   5.953  -6.320  1.00  0.00     0.391 P 
HETATM   41  O14 UNL     1       7.496   4.901  -5.665  1.00  0.00    -0.632 OA
BRANCH  40  42
HETATM   42  O15 UNL     1       9.896   5.971  -5.985  1.00  0.00    -0.307 OA
HETATM   43  H36 UNL     1      10.211   6.895  -5.843  1.00  0.00     0.222 HD
ENDBRANCH  40  42
BRANCH  40  44
HETATM   44  O16 UNL     1       8.300   6.036  -7.907  1.00  0.00    -0.307 OA
HETATM   45  H37 UNL     1       8.729   5.276  -8.332  1.00  0.00     0.222 HD
ENDBRANCH  40  44
ENDBRANCH  39  40
ENDBRANCH  35  39
BRANCH  36  46
HETATM   46  O12 UNL     1       5.919   8.249  -7.480  1.00  0.00    -0.388 OA
HETATM   47  H35 UNL     1       5.520   8.372  -8.374  1.00  0.00     0.210 HD
ENDBRANCH  36  46
BRANCH  37  48
HETATM   48  N3  UNL     1       6.193  11.467  -7.034  1.00  0.00    -0.297 N 
HETATM   49  C19 UNL     1       6.693  12.728  -7.256  1.00  0.00     0.188 A 
HETATM   50  N4  UNL     1       5.854  13.486  -7.928  1.00  0.00    -0.346 N 
HETATM   51  C20 UNL     1       4.758  12.674  -8.158  1.00  0.00     0.116 A 
HETATM   52  H4  UNL     1       5.983  14.456  -8.217  1.00  0.00     0.167 HD
HETATM   53  C21 UNL     1       3.552  12.875  -8.852  1.00  0.00     0.109 A 
HETATM   54  C23 UNL     1       4.938  11.433  -7.575  1.00  0.00     0.142 A 
HETATM   55  N5  UNL     1       2.649  11.865  -8.891  1.00  0.00    -0.341 N 
HETATM   56  C22 UNL     1       2.951  10.715  -8.256  1.00  0.00     0.183 A 
HETATM   57  H5  UNL     1       1.765  11.972  -9.388  1.00  0.00     0.167 HD
HETATM   58  N6  UNL     1       4.071  10.405  -7.570  1.00  0.00    -0.336 N 
HETATM   59  H6  UNL     1       4.238   9.510  -7.109  1.00  0.00     0.168 HD
BRANCH  53  60
HETATM   60  N7  UNL     1       3.231  14.060  -9.494  1.00  0.00    -0.287 NA
HETATM   61  H33 UNL     1       4.035  14.587  -9.828  1.00  0.00     0.125 HD
HETATM   62  H34 UNL     1       2.509  14.584  -9.018  1.00  0.00     0.125 HD
ENDBRANCH  53  60
ENDBRANCH  37  48
ENDBRANCH  33  34
ENDBRANCH  32  33
ENDBRANCH  28  32
ENDBRANCH  27  28
ENDBRANCH  23  27
ENDBRANCH  22  23
ENDBRANCH  21  22
ENDBRANCH  18  21
ENDBRANCH  17  18
BRANCH  17  63
HETATM   63  O17 UNL     1      15.737   8.677  -3.670  1.00  0.00    -0.385 OA
HETATM   64  H38 UNL     1      15.952   9.356  -3.008  1.00  0.00     0.210 HD
ENDBRANCH  17  63
ENDBRANCH  14  17
ENDBRANCH  12  13
ENDBRANCH  11  12
ENDBRANCH   8  11
ENDBRANCH   6   7
ENDBRANCH   5   6
ENDBRANCH   4   5
ENDBRANCH   2   4
TORSDOF 27
ENDMDL
MODEL 2
REMARK VINA RESULT:      -7.3      1.404      2.272
REMARK  27 active torsions:
REMARK  status: ('A' for Active; 'I' for Inactive)
REMARK    1  A    between atoms: C2_2  and  S1_4 
REMARK    2  A    between atoms: S1_4  and  C3_5 
REMARK    3  A    between atoms: C3_5  and  C4_6 
REMARK    4  A    between atoms: C4_6  and  N1_7 
REMARK       I    between atoms: N1_7  and  C5_8 
REMARK    5  A    between atoms: C5_8  and  C6_10 
REMARK    6  A    between atoms: C6_10  and  C7_11 
REMARK    7  A    between atoms: C7_11  and  N2_12 
REMARK       I    between atoms: N2_12  and  C8_13 
REMARK    8  A    between atoms: C8_13  and  C9_15 
REMARK    9  A    between atoms: C9_15  and  C10_16 
REMARK   10  A    between atoms: C9_15  and  O17_54 
REMARK   11  A    between atoms: C10_16  and  C13_19 
REMARK   12  A    between atoms: C13_19  and  O4_20 
REMARK   13  A    between atoms: O4_20  and  P1_21 
REMARK   14  A    between atoms: P1_21  and  O6_23 
REMARK   15  A    between atoms: P1_21  and  O7_24 
REMARK   16  A    between atoms: O7_24  and  P2_25 
REMARK   17  A    between atoms: P2_25  and  O9_27 
REMARK   18  A    between atoms: P2_25  and  O10_28 
REMARK   19  A    between atoms: O10_28  and  C14_29 
REMARK   20  A    between atoms: C14_29  and  C15_30 
REMARK   21  A    between atoms: C16_31  and  O13_49 
REMARK   22  A    between atoms: C17_32  and  O12_48 
REMARK   23  A    between atoms: C18_33  and  N3_35 
REMARK   24  A    between atoms: C21_40  and  N7_47 
REMARK   25  A    between atoms: O13_49  and  P3_50 
REMARK   26  A    between atoms: P3_50  and  O15_52 
REMARK   27  A    between atoms: P3_50  and  O16_53 
ROOT
HETATM    1  C1  UNL     1      10.632  14.453  -4.587  1.00  0.00     0.104 C 
HETATM    2  C2  UNL     1      10.372  15.435  -5.688  1.00  0.00     0.182 C 
HETATM    3  O1  UNL     1       9.381  16.160  -5.726  1.00  0.00    -0.286 OA
ENDROOT
BRANCH   2   4
HETATM    4  S1  UNL     1      11.589  15.440  -6.957  1.00  0.00    -0.091 SA
BRANCH   4   5
HETATM    5  C3  UNL     1      11.198  13.867  -7.788  1.00  0.00     0.102 C 
BRANCH   5   6
HETATM    6  C4  UNL     1      12.462  13.090  -8.162  1.00  0.00     0.133 C 
BRANCH   6   7
HETATM    7  N1  UNL     1      12.772  12.038  -7.216  1.00  0.00    -0.360 N 
HETATM    8  C5  UNL     1      13.766  12.179  -6.276  1.00  0.00     0.219 C 
HETATM    9  O2  UNL     1      14.498  13.161  -6.232  1.00  0.00    -0.274 OA
HETATM   10  H8  UNL     1      12.235  11.181  -7.248  1.00  0.00     0.162 HD
BRANCH   8  11
HETATM   11  C6  UNL     1      13.891  10.987  -5.352  1.00  0.00     0.122 C 
BRANCH  11  12
HETATM   12  C7  UNL     1      15.341  10.726  -4.949  1.00  0.00     0.132 C 
BRANCH  12  13
HETATM   13  N2  UNL     1      16.219  10.531  -6.083  1.00  0.00    -0.358 N 
HETATM   14  C8  UNL     1      17.124   9.486  -6.092  1.00  0.00     0.247 C 
HETATM   15  O3  UNL     1      17.302   8.769  -5.115  1.00  0.00    -0.271 OA
HETATM   16  H13 UNL     1      15.848  10.834  -6.981  1.00  0.00     0.162 HD
BRANCH  14  17
HETATM   17  C9  UNL     1      17.866   9.287  -7.423  1.00  0.00     0.219 C 
BRANCH  17  18
HETATM   18  C10 UNL     1      17.346   8.101  -8.278  1.00  0.00     0.009 C 
HETATM   19  C11 UNL     1      17.618   8.305  -9.775  1.00  0.00     0.020 C 
HETATM   20  C12 UNL     1      17.999   6.770  -7.853  1.00  0.00     0.020 C 
BRANCH  18  21
HETATM   21  C13 UNL     1      15.812   8.036  -8.029  1.00  0.00     0.192 C 
BRANCH  21  22
HETATM   22  O4  UNL     1      15.127   9.134  -8.598  1.00  0.00    -0.296 OA
BRANCH  22  23
HETATM   23  P1  UNL     1      13.793   8.970  -9.472  1.00  0.00     0.401 P 
HETATM   24  O5  UNL     1      13.771   7.746 -10.332  1.00  0.00    -0.631 OA
BRANCH  23  25
HETATM   25  O6  UNL     1      13.602  10.342 -10.292  1.00  0.00    -0.307 OA
HETATM   26  H23 UNL     1      12.975  10.244 -11.020  1.00  0.00     0.222 HD
ENDBRANCH  23  25
BRANCH  23  27
HETATM   27  O7  UNL     1      12.601   9.067  -8.424  1.00  0.00    -0.195 OA
BRANCH  27  28
HETATM   28  P2  UNL     1      11.509   7.908  -8.390  1.00  0.00     0.401 P 
HETATM   29  O8  UNL     1      10.658   7.743  -9.607  1.00  0.00    -0.631 OA
BRANCH  28  30
HETATM   30  O9  UNL     1      12.361   6.612  -8.012  1.00  0.00    -0.307 OA
HETATM   31  H24 UNL     1      13.198   6.807  -7.523  1.00  0.00     0.222 HD
ENDBRANCH  28  30
BRANCH  28  32
HETATM   32  O10 UNL     1      10.726   8.154  -7.020  1.00  0.00    -0.294 OA
BRANCH  32  33
HETATM   33  C14 UNL     1      10.278   9.442  -6.689  1.00  0.00     0.215 C 
BRANCH  33  34
HETATM   34  C15 UNL     1       8.870   9.272  -6.121  1.00  0.00     0.180 C 
HETATM   35  C16 UNL     1       8.059   8.349  -7.022  1.00  0.00     0.197 C 
HETATM   36  C17 UNL     1       6.915   9.210  -7.523  1.00  0.00     0.199 C 
HETATM   37  C18 UNL     1       6.794  10.262  -6.418  1.00  0.00     0.262 C 
HETATM   38  O11 UNL     1       8.158  10.510  -6.011  1.00  0.00    -0.353 OA
BRANCH  35  39
HETATM   39  O13 UNL     1       7.603   7.254  -6.235  1.00  0.00    -0.286 OA
BRANCH  39  40
HETATM   40  P3  UNL     1       8.332   5.858  -6.510  1.00  0.00     0.391 P 
HETATM   41  O14 UNL     1       9.441   5.558  -5.554  1.00  0.00    -0.632 OA
BRANCH  40  42
HETATM   42  O15 UNL     1       8.710   6.016  -8.056  1.00  0.00    -0.307 OA
HETATM   43  H36 UNL     1       7.902   6.182  -8.598  1.00  0.00     0.222 HD
ENDBRANCH  40  42
BRANCH  40  44
HETATM   44  O16 UNL     1       7.096   4.858  -6.541  1.00  0.00    -0.307 OA
HETATM   45  H37 UNL     1       6.649   4.785  -5.682  1.00  0.00     0.222 HD
ENDBRANCH  40  44
ENDBRANCH  39  40
ENDBRANCH  35  39
BRANCH  36  46
HETATM   46  O12 UNL     1       5.766   8.401  -7.788  1.00  0.00    -0.388 OA
HETATM   47  H35 UNL     1       6.090   7.611  -8.283  1.00  0.00     0.210 HD
ENDBRANCH  36  46
BRANCH  37  48
HETATM   48  N3  UNL     1       6.216  11.503  -6.892  1.00  0.00    -0.297 N 
HETATM   49  C19 UNL     1       6.790  12.753  -6.861  1.00  0.00     0.188 A 
HETATM   50  N4  UNL     1       6.061  13.652  -7.484  1.00  0.00    -0.346 N 
HETATM   51  C20 UNL     1       4.962  12.950  -7.948  1.00  0.00     0.116 A 
HETATM   52  H4  UNL     1       6.260  14.646  -7.601  1.00  0.00     0.167 HD
HETATM   53  C21 UNL     1       3.847  13.325  -8.718  1.00  0.00     0.109 A 
HETATM   54  C23 UNL     1       5.026  11.626  -7.554  1.00  0.00     0.142 A 
HETATM   55  N5  UNL     1       2.912  12.387  -9.006  1.00  0.00    -0.341 N 
HETATM   56  C22 UNL     1       3.096  11.137  -8.534  1.00  0.00     0.183 A 
HETATM   57  H5  UNL     1       2.092  12.620  -9.565  1.00  0.00     0.167 HD
HETATM   58  N6  UNL     1       4.121  10.662  -7.798  1.00  0.00    -0.336 N 
HETATM   59  H6  UNL     1       4.200   9.699  -7.471  1.00  0.00     0.168 HD
BRANCH  53  60
HETATM   60  N7  UNL     1       3.647  14.611  -9.193  1.00  0.00    -0.287 NA
HETATM   61  H33 UNL     1       2.678  14.829  -9.416  1.00  0.00     0.125 HD
HETATM   62  H34 UNL     1       4.344  14.896  -9.867  1.00  0.00     0.125 HD
ENDBRANCH  53  60
ENDBRANCH  37  48
ENDBRANCH  33  34
ENDBRANCH  32  33
ENDBRANCH  28  32
ENDBRANCH  27  28
ENDBRANCH  23  27
ENDBRANCH  22  23
ENDBRANCH  21  22
ENDBRANCH  18  21
ENDBRANCH  17  18
BRANCH  17  63
HETATM   63  O17 UNL     1      17.794  10.481  -8.210  1.00  0.00    -0.385 OA
HETATM   64  H38 UNL     1      17.639  10.224  -9.134  1.00  0.00     0.210 HD
ENDBRANCH  17  63
ENDBRANCH  14  17
ENDBRANCH  12  13
ENDBRANCH  11  12
ENDBRANCH   8  11
ENDBRANCH   6   7
ENDBRANCH   5   6
ENDBRANCH   4   5
ENDBRANCH   2   4
TORSDOF 27
ENDMDL
MODEL 3
REMARK VINA RESULT:      -7.1      2.551      7.927
REMARK  27 active torsions:
REMARK  status: ('A' for Active; 'I' for Inactive)
REMARK    1  A    between atoms: C2_2  and  S1_4 
REMARK    2  A    between atoms: S1_4  and  C3_5 
REMARK    3  A    between atoms: C3_5  and  C4_6 
REMARK    4  A    between atoms: C4_6  and  N1_7 
REMARK       I    between atoms: N1_7  and  C5_8 
REMARK    5  A    between atoms: C5_8  and  C6_10 
REMARK    6  A    between atoms: C6_10  and  C7_11 
REMARK    7  A    between atoms: C7_11  and  N2_12 
REMARK       I    between atoms: N2_12  and  C8_13 
REMARK    8  A    between atoms: C8_13  and  C9_15 
REMARK    9  A    between atoms: C9_15  and  C10_16 
REMARK   10  A    between atoms: C9_15  and  O17_54 
REMARK   11  A    between atoms: C10_16  and  C13_19 
REMARK   12  A    between atoms: C13_19  and  O4_20 
REMARK   13  A    between atoms: O4_20  and  P1_21 
REMARK   14  A    between atoms: P1_21  and  O6_23 
REMARK   15  A    between atoms: P1_21  and  O7_24 
REMARK   16  A    between atoms: O7_24  and  P2_25 
REMARK   17  A    between atoms: P2_25  and  O9_27 
REMARK   18  A    between atoms: P2_25  and  O10_28 
REMARK   19  A    between atoms: O10_28  and  C14_29 
REMARK   20  A    between atoms: C14_29  and  C15_30 
REMARK   21  A    between atoms: C16_31  and  O13_49 
REMARK   22  A    between atoms: C17_32  and  O12_48 
REMARK   23  A    between atoms: C18_33  and  N3_35 
REMARK   24  A    between atoms: C21_40  and  N7_47 
REMARK   25  A    between atoms: O13_49  and  P3_50 
REMARK   26  A    between atoms: P3_50  and  O15_52 
REMARK   27  A    between atoms: P3_50  and  O16_53 
ROOT
HETATM    1  C1  UNL     1       6.569  16.074  -9.624  1.00  0.00     0.104 C 
HETATM    2  C2  UNL     1       5.239  16.020  -8.935  1.00  0.00     0.182 C 
HETATM    3  O1  UNL     1       4.808  16.928  -8.229  1.00  0.00    -0.286 OA
ENDROOT
BRANCH   2   4
HETATM    4  S1  UNL     1       4.352  14.523  -9.188  1.00  0.00    -0.091 SA
BRANCH   4   5
HETATM    5  C3  UNL     1       5.687  13.459  -9.825  1.00  0.00     0.102 C 
BRANCH   5   6
HETATM    6  C4  UNL     1       5.167  12.434 -10.835  1.00  0.00     0.133 C 
BRANCH   6   7
HETATM    7  N1  UNL     1       4.855  11.158 -10.225  1.00  0.00    -0.360 N 
HETATM    8  C5  UNL     1       3.559  10.780  -9.960  1.00  0.00     0.219 C 
HETATM    9  O2  UNL     1       2.603  11.524 -10.145  1.00  0.00    -0.274 OA
HETATM   10  H8  UNL     1       5.613  10.529  -9.998  1.00  0.00     0.162 HD
BRANCH   8  11
HETATM   11  C6  UNL     1       3.449   9.389  -9.374  1.00  0.00     0.122 C 
BRANCH  11  12
HETATM   12  C7  UNL     1       3.888   9.349  -7.911  1.00  0.00     0.132 C 
BRANCH  12  13
HETATM   13  N2  UNL     1       5.118   8.613  -7.707  1.00  0.00    -0.358 N 
HETATM   14  C8  UNL     1       6.329   9.279  -7.665  1.00  0.00     0.247 C 
HETATM   15  O3  UNL     1       6.424  10.475  -7.911  1.00  0.00    -0.271 OA
HETATM   16  H13 UNL     1       5.034   7.764  -7.153  1.00  0.00     0.162 HD
BRANCH  14  17
HETATM   17  C9  UNL     1       7.530   8.408  -7.267  1.00  0.00     0.219 C 
BRANCH  17  18
HETATM   18  C10 UNL     1       8.292   8.899  -6.008  1.00  0.00     0.009 C 
HETATM   19  C11 UNL     1       7.784  10.264  -5.521  1.00  0.00     0.020 C 
HETATM   20  C12 UNL     1       8.161   7.899  -4.842  1.00  0.00     0.020 C 
BRANCH  18  21
HETATM   21  C13 UNL     1       9.784   9.019  -6.432  1.00  0.00     0.192 C 
BRANCH  21  22
HETATM   22  O4  UNL     1      10.305   7.798  -6.917  1.00  0.00    -0.296 OA
BRANCH  22  23
HETATM   23  P1  UNL     1      11.190   7.698  -8.251  1.00  0.00     0.401 P 
HETATM   24  O5  UNL     1      10.394   7.741  -9.518  1.00  0.00    -0.631 OA
BRANCH  23  25
HETATM   25  O6  UNL     1      12.105   6.381  -8.104  1.00  0.00    -0.307 OA
HETATM   26  H23 UNL     1      12.779   6.331  -8.794  1.00  0.00     0.222 HD
ENDBRANCH  23  25
BRANCH  23  27
HETATM   27  O7  UNL     1      12.278   8.849  -8.110  1.00  0.00    -0.195 OA
BRANCH  27  28
HETATM   28  P2  UNL     1      13.645   8.720  -8.918  1.00  0.00     0.401 P 
HETATM   29  O8  UNL     1      14.668   7.778  -8.373  1.00  0.00    -0.631 OA
BRANCH  28  30
HETATM   30  O9  UNL     1      13.163   8.371 -10.400  1.00  0.00    -0.307 OA
HETATM   31  H24 UNL     1      12.228   8.054 -10.456  1.00  0.00     0.222 HD
ENDBRANCH  28  30
BRANCH  28  32
HETATM   32  O10 UNL     1      14.122  10.231  -9.113  1.00  0.00    -0.294 OA
BRANCH  32  33
HETATM   33  C14 UNL     1      15.485  10.555  -9.017  1.00  0.00     0.215 C 
BRANCH  33  34
HETATM   34  C15 UNL     1      15.621  11.469  -7.800  1.00  0.00     0.180 C 
HETATM   35  C16 UNL     1      15.245  10.706  -6.538  1.00  0.00     0.197 C 
HETATM   36  C17 UNL     1      14.040  11.444  -5.986  1.00  0.00     0.199 C 
HETATM   37  C18 UNL     1      14.234  12.851  -6.557  1.00  0.00     0.262 C 
HETATM   38  O11 UNL     1      14.783  12.628  -7.875  1.00  0.00    -0.353 OA
BRANCH  35  39
HETATM   39  O13 UNL     1      16.356  10.751  -5.648  1.00  0.00    -0.286 OA
BRANCH  39  40
HETATM   40  P3  UNL     1      16.743   9.362  -4.958  1.00  0.00     0.391 P 
HETATM   41  O14 UNL     1      18.216   9.138  -4.840  1.00  0.00    -0.632 OA
BRANCH  40  42
HETATM   42  O15 UNL     1      15.908   8.337  -5.859  1.00  0.00    -0.307 OA
HETATM   43  H36 UNL     1      16.492   7.622  -6.206  1.00  0.00     0.222 HD
ENDBRANCH  40  42
BRANCH  40  44
HETATM   44  O16 UNL     1      15.899   9.431  -3.612  1.00  0.00    -0.307 OA
HETATM   45  H37 UNL     1      15.560   8.565  -3.335  1.00  0.00     0.222 HD
ENDBRANCH  40  44
ENDBRANCH  39  40
ENDBRANCH  35  39
BRANCH  36  46
HETATM   46  O12 UNL     1      13.987  11.314  -4.563  1.00  0.00    -0.388 OA
HETATM   47  H35 UNL     1      14.685  11.912  -4.203  1.00  0.00     0.210 HD
ENDBRANCH  36  46
BRANCH  37  48
HETATM   48  N3  UNL     1      12.986  13.575  -6.687  1.00  0.00    -0.297 N 
HETATM   49  C19 UNL     1      12.248  13.760  -7.833  1.00  0.00     0.188 A 
HETATM   50  N4  UNL     1      11.099  14.355  -7.596  1.00  0.00    -0.346 N 
HETATM   51  C20 UNL     1      11.090  14.561  -6.228  1.00  0.00     0.116 A 
HETATM   52  H4  UNL     1      10.377  14.607  -8.270  1.00  0.00     0.167 HD
HETATM   53  C21 UNL     1      10.135  15.109  -5.354  1.00  0.00     0.109 A 
HETATM   54  C23 UNL     1      12.269  14.119  -5.658  1.00  0.00     0.142 A 
HETATM   55  N5  UNL     1      10.431  15.185  -4.034  1.00  0.00    -0.341 N 
HETATM   56  C22 UNL     1      11.634  14.735  -3.623  1.00  0.00     0.183 A 
HETATM   57  H5  UNL     1       9.762  15.573  -3.369  1.00  0.00     0.167 HD
HETATM   58  N6  UNL     1      12.619  14.185  -4.361  1.00  0.00    -0.336 N 
HETATM   59  H6  UNL     1      13.512  13.863  -3.987  1.00  0.00     0.168 HD
BRANCH  53  60
HETATM   60  N7  UNL     1       8.903  15.587  -5.773  1.00  0.00    -0.287 NA
HETATM   61  H33 UNL     1       8.611  16.448  -5.317  1.00  0.00     0.125 HD
HETATM   62  H34 UNL     1       8.207  14.859  -5.862  1.00  0.00     0.125 HD
ENDBRANCH  53  60
ENDBRANCH  37  48
ENDBRANCH  33  34
ENDBRANCH  32  33
ENDBRANCH  28  32
ENDBRANCH  27  28
ENDBRANCH  23  27
ENDBRANCH  22  23
ENDBRANCH  21  22
ENDBRANCH  18  21
ENDBRANCH  17  18
BRANCH  17  63
HETATM   63  O17 UNL     1       7.108   7.058  -7.045  1.00  0.00    -0.385 OA
HETATM   64  H38 UNL     1       7.029   6.621  -7.909  1.00  0.00     0.210 HD
ENDBRANCH  17  63
ENDBRANCH  14  17
ENDBRANCH  12  13
ENDBRANCH  11  12
ENDBRANCH   8  11
ENDBRANCH   6   7
ENDBRANCH   5   6
ENDBRANCH   4   5
ENDBRANCH   2   4
TORSDOF 27
ENDMDL
MODEL 4
REMARK VINA RESULT:      -7.0      2.930      8.537
REMARK  27 active torsions:
REMARK  status: ('A' for Active; 'I' for Inactive)
REMARK    1  A    between atoms: C2_2  and  S1_4 
REMARK    2  A    between atoms: S1_4  and  C3_5 
REMARK    3  A    between atoms: C3_5  and  C4_6 
REMARK    4  A    between atoms: C4_6  and  N1_7 
REMARK       I    between atoms: N1_7  and  C5_8 
REMARK    5  A    between atoms: C5_8  and  C6_10 
REMARK    6  A    between atoms: C6_10  and  C7_11 
REMARK    7  A    between atoms: C7_11  and  N2_12 
REMARK       I    between atoms: N2_12  and  C8_13 
REMARK    8  A    between atoms: C8_13  and  C9_15 
REMARK    9  A    between atoms: C9_15  and  C10_16 
REMARK   10  A    between atoms: C9_15  and  O17_54 
REMARK   11  A    between atoms: C10_16  and  C13_19 
REMARK   12  A    between atoms: C13_19  and  O4_20 
REMARK   13  A    between atoms: O4_20  and  P1_21 
REMARK   14  A    between atoms: P1_21  and  O6_23 
REMARK   15  A    between atoms: P1_21  and  O7_24 
REMARK   16  A    between atoms: O7_24  and  P2_25 
REMARK   17  A    between atoms: P2_25  and  O9_27 
REMARK   18  A    between atoms: P2_25  and  O10_28 
REMARK   19  A    between atoms: O10_28  and  C14_29 
REMARK   20  A    between atoms: C14_29  and  C15_30 
REMARK   21  A    between atoms: C16_31  and  O13_49 
REMARK   22  A    between atoms: C17_32  and  O12_48 
REMARK   23  A    between atoms: C18_33  and  N3_35 
REMARK   24  A    between atoms: C21_40  and  N7_47 
REMARK   25  A    between atoms: O13_49  and  P3_50 
REMARK   26  A    between atoms: P3_50  and  O15_52 
REMARK   27  A    between atoms: P3_50  and  O16_53 
ROOT
HETATM    1  C1  UNL     1       7.544  16.761  -9.337  1.00  0.00     0.104 C 
HETATM    2  C2  UNL     1       6.602  16.317 -10.415  1.00  0.00     0.182 C 
HETATM    3  O1  UNL     1       6.744  16.615 -11.599  1.00  0.00    -0.286 OA
ENDROOT
BRANCH   2   4
HETATM    4  S1  UNL     1       5.242  15.361  -9.842  1.00  0.00    -0.091 SA
BRANCH   4   5
HETATM    5  C3  UNL     1       5.963  13.690  -9.928  1.00  0.00     0.102 C 
BRANCH   5   6
HETATM    6  C4  UNL     1       5.209  12.794 -10.913  1.00  0.00     0.133 C 
BRANCH   6   7
HETATM    7  N1  UNL     1       4.893  11.494 -10.358  1.00  0.00    -0.360 N 
HETATM    8  C5  UNL     1       3.603  11.138 -10.038  1.00  0.00     0.219 C 
HETATM    9  O2  UNL     1       2.662  11.918 -10.126  1.00  0.00    -0.274 OA
HETATM   10  H8  UNL     1       5.643  10.833 -10.211  1.00  0.00     0.162 HD
BRANCH   8  11
HETATM   11  C6  UNL     1       3.483   9.720  -9.525  1.00  0.00     0.122 C 
BRANCH  11  12
HETATM   12  C7  UNL     1       3.837   9.617  -8.042  1.00  0.00     0.132 C 
BRANCH  12  13
HETATM   13  N2  UNL     1       5.016   8.813  -7.794  1.00  0.00    -0.358 N 
HETATM   14  C8  UNL     1       6.267   9.401  -7.771  1.00  0.00     0.247 C 
HETATM   15  O3  UNL     1       6.442  10.575  -8.070  1.00  0.00    -0.271 OA
HETATM   16  H13 UNL     1       4.873   7.998  -7.202  1.00  0.00     0.162 HD
BRANCH  14  17
HETATM   17  C9  UNL     1       7.406   8.472  -7.323  1.00  0.00     0.219 C 
BRANCH  17  18
HETATM   18  C10 UNL     1       8.236   9.004  -6.125  1.00  0.00     0.009 C 
HETATM   19  C11 UNL     1       7.634  10.285  -5.528  1.00  0.00     0.020 C 
HETATM   20  C12 UNL     1       8.337   7.956  -4.998  1.00  0.00     0.020 C 
BRANCH  18  21
HETATM   21  C13 UNL     1       9.654   9.306  -6.689  1.00  0.00     0.192 C 
BRANCH  21  22
HETATM   22  O4  UNL     1       9.866   8.718  -7.956  1.00  0.00    -0.296 OA
BRANCH  22  23
HETATM   23  P1  UNL     1      10.894   7.510  -8.194  1.00  0.00     0.401 P 
HETATM   24  O5  UNL     1      10.241   6.175  -8.362  1.00  0.00    -0.631 OA
BRANCH  23  25
HETATM   25  O6  UNL     1      11.962   7.564  -6.990  1.00  0.00    -0.307 OA
HETATM   26  H23 UNL     1      12.099   6.696  -6.590  1.00  0.00     0.222 HD
ENDBRANCH  23  25
BRANCH  23  27
HETATM   27  O7  UNL     1      11.792   7.971  -9.424  1.00  0.00    -0.195 OA
BRANCH  27  28
HETATM   28  P2  UNL     1      13.234   8.585  -9.137  1.00  0.00     0.401 P 
HETATM   29  O8  UNL     1      14.226   7.696  -8.460  1.00  0.00    -0.631 OA
BRANCH  28  30
HETATM   30  O9  UNL     1      13.701   9.109 -10.571  1.00  0.00    -0.307 OA
HETATM   31  H24 UNL     1      13.153   9.850 -10.929  1.00  0.00     0.222 HD
ENDBRANCH  28  30
BRANCH  28  32
HETATM   32  O10 UNL     1      12.925   9.971  -8.405  1.00  0.00    -0.294 OA
BRANCH  32  33
HETATM   33  C14 UNL     1      13.370  11.177  -8.968  1.00  0.00     0.215 C 
BRANCH  33  34
HETATM   34  C15 UNL     1      12.559  12.285  -8.299  1.00  0.00     0.180 C 
HETATM   35  C16 UNL     1      13.267  13.622  -8.477  1.00  0.00     0.197 C 
HETATM   36  C17 UNL     1      13.594  14.075  -7.067  1.00  0.00     0.199 C 
HETATM   37  C18 UNL     1      12.528  13.352  -6.240  1.00  0.00     0.262 C 
HETATM   38  O11 UNL     1      12.376  12.073  -6.894  1.00  0.00    -0.353 OA
BRANCH  35  39
HETATM   39  O13 UNL     1      12.370  14.512  -9.132  1.00  0.00    -0.286 OA
BRANCH  39  40
HETATM   40  P3  UNL     1      12.927  15.192 -10.468  1.00  0.00     0.391 P 
HETATM   41  O14 UNL     1      12.211  16.448 -10.848  1.00  0.00    -0.632 OA
BRANCH  40  42
HETATM   42  O15 UNL     1      12.851  13.960 -11.485  1.00  0.00    -0.307 OA
HETATM   43  H36 UNL     1      13.585  13.322 -11.315  1.00  0.00     0.222 HD
ENDBRANCH  40  42
BRANCH  40  44
HETATM   44  O16 UNL     1      14.480  15.299 -10.143  1.00  0.00    -0.307 OA
HETATM   45  H37 UNL     1      14.656  15.504  -9.211  1.00  0.00     0.222 HD
ENDBRANCH  40  44
ENDBRANCH  39  40
ENDBRANCH  35  39
BRANCH  36  46
HETATM   46  O12 UNL     1      13.622  15.503  -6.999  1.00  0.00    -0.388 OA
HETATM   47  H35 UNL     1      13.762  15.822  -7.922  1.00  0.00     0.210 HD
ENDBRANCH  36  46
BRANCH  37  48
HETATM   48  N3  UNL     1      12.943  13.129  -4.870  1.00  0.00    -0.297 N 
HETATM   49  C19 UNL     1      14.082  12.489  -4.440  1.00  0.00     0.188 A 
HETATM   50  N4  UNL     1      14.234  12.562  -3.136  1.00  0.00    -0.346 N 
HETATM   51  C20 UNL     1      13.141  13.290  -2.698  1.00  0.00     0.116 A 
HETATM   52  H4  UNL     1      14.988  12.171  -2.572  1.00  0.00     0.167 HD
HETATM   53  C21 UNL     1      12.745  13.744  -1.428  1.00  0.00     0.109 A 
HETATM   54  C23 UNL     1      12.313  13.613  -3.758  1.00  0.00     0.142 A 
HETATM   55  N5  UNL     1      11.588  14.442  -1.320  1.00  0.00    -0.341 N 
HETATM   56  C22 UNL     1      10.869  14.663  -2.438  1.00  0.00     0.183 A 
HETATM   57  H5  UNL     1      11.271  14.790  -0.415  1.00  0.00     0.167 HD
HETATM   58  N6  UNL     1      11.150  14.287  -3.703  1.00  0.00    -0.336 N 
HETATM   59  H6  UNL     1      10.560  14.487  -4.510  1.00  0.00     0.168 HD
BRANCH  53  60
HETATM   60  N7  UNL     1      13.474  13.507  -0.273  1.00  0.00    -0.287 NA
HETATM   61  H33 UNL     1      13.499  14.292   0.374  1.00  0.00     0.125 HD
HETATM   62  H34 UNL     1      14.349  13.033  -0.449  1.00  0.00     0.125 HD
ENDBRANCH  53  60
ENDBRANCH  37  48
ENDBRANCH  33  34
ENDBRANCH  32  33
ENDBRANCH  28  32
ENDBRANCH  27  28
ENDBRANCH  23  27
ENDBRANCH  22  23
ENDBRANCH  21  22
ENDBRANCH  18  21
ENDBRANCH  17  18
BRANCH  17  63
HETATM   63  O17 UNL     1       6.885   7.184  -6.979  1.00  0.00    -0.385 OA
HETATM   64  H38 UNL     1       7.000   6.597  -7.746  1.00  0.00     0.210 HD
ENDBRANCH  17  63
ENDBRANCH  14  17
ENDBRANCH  12  13
ENDBRANCH  11  12
ENDBRANCH   8  11
ENDBRANCH   6   7
ENDBRANCH   5   6
ENDBRANCH   4   5
ENDBRANCH   2   4
TORSDOF 27
ENDMDL
MODEL 5
REMARK VINA RESULT:      -6.9      4.098      6.930
REMARK  27 active torsions:
REMARK  status: ('A' for Active; 'I' for Inactive)
REMARK    1  A    between atoms: C2_2  and  S1_4 
REMARK    2  A    between atoms: S1_4  and  C3_5 
REMARK    3  A    between atoms: C3_5  and  C4_6 
REMARK    4  A    between atoms: C4_6  and  N1_7 
REMARK       I    between atoms: N1_7  and  C5_8 
REMARK    5  A    between atoms: C5_8  and  C6_10 
REMARK    6  A    between atoms: C6_10  and  C7_11 
REMARK    7  A    between atoms: C7_11  and  N2_12 
REMARK       I    between atoms: N2_12  and  C8_13 
REMARK    8  A    between atoms: C8_13  and  C9_15 
REMARK    9  A    between atoms: C9_15  and  C10_16 
REMARK   10  A    between atoms: C9_15  and  O17_54 
REMARK   11  A    between atoms: C10_16  and  C13_19 
REMARK   12  A    between atoms: C13_19  and  O4_20 
REMARK   13  A    between atoms: O4_20  and  P1_21 
REMARK   14  A    between atoms: P1_21  and  O6_23 
REMARK   15  A    between atoms: P1_21  and  O7_24 
REMARK   16  A    between atoms: O7_24  and  P2_25 
REMARK   17  A    between atoms: P2_25  and  O9_27 
REMARK   18  A    between atoms: P2_25  and  O10_28 
REMARK   19  A    between atoms: O10_28  and  C14_29 
REMARK   20  A    between atoms: C14_29  and  C15_30 
REMARK   21  A    between atoms: C16_31  and  O13_49 
REMARK   22  A    between atoms: C17_32  and  O12_48 
REMARK   23  A    between atoms: C18_33  and  N3_35 
REMARK   24  A    between atoms: C21_40  and  N7_47 
REMARK   25  A    between atoms: O13_49  and  P3_50 
REMARK   26  A    between atoms: P3_50  and  O15_52 
REMARK   27  A    between atoms: P3_50  and  O16_53 
ROOT
HETATM    1  C1  UNL     1       7.339   8.608  -6.902  1.00  0.00     0.104 C 
HETATM    2  C2  UNL     1       7.971   7.542  -6.060  1.00  0.00     0.182 C 
HETATM    3  O1  UNL     1       8.573   7.777  -5.015  1.00  0.00    -0.286 OA
ENDROOT
BRANCH   2   4
HETATM    4  S1  UNL     1       7.818   5.917  -6.712  1.00  0.00    -0.091 SA
BRANCH   4   5
HETATM    5  C3  UNL     1       9.570   5.526  -7.023  1.00  0.00     0.102 C 
BRANCH   5   6
HETATM    6  C4  UNL     1      10.216   6.527  -7.983  1.00  0.00     0.133 C 
BRANCH   6   7
HETATM    7  N1  UNL     1      11.439   7.096  -7.457  1.00  0.00    -0.360 N 
HETATM    8  C5  UNL     1      11.610   8.455  -7.332  1.00  0.00     0.219 C 
HETATM    9  O2  UNL     1      10.779   9.264  -7.729  1.00  0.00    -0.274 OA
HETATM   10  H8  UNL     1      12.182   6.473  -7.169  1.00  0.00     0.162 HD
BRANCH   8  11
HETATM   11  C6  UNL     1      12.936   8.838  -6.710  1.00  0.00     0.122 C 
BRANCH  11  12
HETATM   12  C7  UNL     1      13.865   9.513  -7.718  1.00  0.00     0.132 C 
BRANCH  12  13
HETATM   13  N2  UNL     1      13.546  10.908  -7.940  1.00  0.00    -0.358 N 
HETATM   14  C8  UNL     1      13.740  11.478  -9.185  1.00  0.00     0.247 C 
HETATM   15  O3  UNL     1      14.290  10.876 -10.098  1.00  0.00    -0.271 OA
HETATM   16  H13 UNL     1      12.788  11.279  -7.371  1.00  0.00     0.162 HD
BRANCH  14  17
HETATM   17  C9  UNL     1      13.196  12.907  -9.330  1.00  0.00     0.219 C 
BRANCH  17  18
HETATM   18  C10 UNL     1      14.123  14.009  -8.753  1.00  0.00     0.009 C 
HETATM   19  C11 UNL     1      15.453  13.437  -8.240  1.00  0.00     0.020 C 
HETATM   20  C12 UNL     1      14.445  15.087  -9.808  1.00  0.00     0.020 C 
BRANCH  18  21
HETATM   21  C13 UNL     1      13.340  14.649  -7.571  1.00  0.00     0.192 C 
BRANCH  21  22
HETATM   22  O4  UNL     1      13.053  13.718  -6.548  1.00  0.00    -0.296 OA
BRANCH  22  23
HETATM   23  P1  UNL     1      11.567  13.440  -6.015  1.00  0.00     0.401 P 
HETATM   24  O5  UNL     1      11.344  13.834  -4.588  1.00  0.00    -0.631 OA
BRANCH  23  25
HETATM   25  O6  UNL     1      11.246  11.892  -6.318  1.00  0.00    -0.307 OA
HETATM   26  H23 UNL     1      10.326  11.758  -6.580  1.00  0.00     0.222 HD
ENDBRANCH  23  25
BRANCH  23  27
HETATM   27  O7  UNL     1      10.612  14.164  -7.061  1.00  0.00    -0.195 OA
BRANCH  27  28
HETATM   28  P2  UNL     1       9.039  14.142  -6.812  1.00  0.00     0.401 P 
HETATM   29  O8  UNL     1       8.453  12.870  -6.294  1.00  0.00    -0.631 OA
BRANCH  28  30
HETATM   30  O9  UNL     1       8.801  15.403  -5.862  1.00  0.00    -0.307 OA
HETATM   31  H24 UNL     1       9.611  15.946  -5.701  1.00  0.00     0.222 HD
ENDBRANCH  28  30
BRANCH  28  32
HETATM   32  O10 UNL     1       8.424  14.686  -8.182  1.00  0.00    -0.294 OA
BRANCH  32  33
HETATM   33  C14 UNL     1       7.046  14.937  -8.282  1.00  0.00     0.215 C 
BRANCH  33  34
HETATM   34  C15 UNL     1       6.470  13.813  -9.141  1.00  0.00     0.180 C 
HETATM   35  C16 UNL     1       5.263  14.324  -9.917  1.00  0.00     0.197 C 
HETATM   36  C17 UNL     1       4.101  13.486  -9.416  1.00  0.00     0.199 C 
HETATM   37  C18 UNL     1       4.804  12.212  -8.939  1.00  0.00     0.262 C 
HETATM   38  O11 UNL     1       6.047  12.682  -8.371  1.00  0.00    -0.353 OA
BRANCH  35  39
HETATM   39  O13 UNL     1       5.512  14.121 -11.304  1.00  0.00    -0.286 OA
BRANCH  39  40
HETATM   40  P3  UNL     1       5.434  15.432 -12.216  1.00  0.00     0.391 P 
HETATM   41  O14 UNL     1       6.554  16.394 -11.984  1.00  0.00    -0.632 OA
BRANCH  40  42
HETATM   42  O15 UNL     1       3.949  15.933 -11.896  1.00  0.00    -0.307 OA
HETATM   43  H36 UNL     1       3.450  15.245 -11.394  1.00  0.00     0.222 HD
ENDBRANCH  40  42
BRANCH  40  44
HETATM   44  O16 UNL     1       5.297  14.798 -13.668  1.00  0.00    -0.307 OA
HETATM   45  H37 UNL     1       6.015  14.180 -13.878  1.00  0.00     0.222 HD
ENDBRANCH  40  44
ENDBRANCH  39  40
ENDBRANCH  35  39
BRANCH  36  46
HETATM   46  O12 UNL     1       3.113  13.347 -10.439  1.00  0.00    -0.388 OA
HETATM   47  H35 UNL     1       3.598  13.106 -11.264  1.00  0.00     0.210 HD
ENDBRANCH  36  46
BRANCH  37  48
HETATM   48  N3  UNL     1       4.056  11.515  -7.912  1.00  0.00    -0.297 N 
HETATM   49  C19 UNL     1       3.916  11.880  -6.593  1.00  0.00     0.188 A 
HETATM   50  N4  UNL     1       3.070  11.107  -5.949  1.00  0.00    -0.346 N 
HETATM   51  C20 UNL     1       2.635  10.199  -6.899  1.00  0.00     0.116 A 
HETATM   52  H4  UNL     1       2.794  11.164  -4.969  1.00  0.00     0.167 HD
HETATM   53  C21 UNL     1       1.702   9.148  -6.855  1.00  0.00     0.109 A 
HETATM   54  C23 UNL     1       3.267  10.416  -8.109  1.00  0.00     0.142 A 
HETATM   55  N5  UNL     1       1.497   8.415  -7.977  1.00  0.00    -0.341 N 
HETATM   56  C22 UNL     1       2.205   8.727  -9.081  1.00  0.00     0.183 A 
HETATM   57  H5  UNL     1       0.826   7.647  -7.985  1.00  0.00     0.167 HD
HETATM   58  N6  UNL     1       3.114   9.710  -9.243  1.00  0.00    -0.336 N 
HETATM   59  H6  UNL     1       3.618   9.895 -10.111  1.00  0.00     0.168 HD
BRANCH  53  60
HETATM   60  N7  UNL     1       0.982   8.814  -5.719  1.00  0.00    -0.287 NA
HETATM   61  H33 UNL     1       1.056   7.835  -5.450  1.00  0.00     0.125 HD
HETATM   62  H34 UNL     1       0.058   9.223  -5.702  1.00  0.00     0.125 HD
ENDBRANCH  53  60
ENDBRANCH  37  48
ENDBRANCH  33  34
ENDBRANCH  32  33
ENDBRANCH  28  32
ENDBRANCH  27  28
ENDBRANCH  23  27
ENDBRANCH  22  23
ENDBRANCH  21  22
ENDBRANCH  18  21
ENDBRANCH  17  18
BRANCH  17  63
HETATM   63  O17 UNL     1      12.945  13.201 -10.709  1.00  0.00    -0.385 OA
HETATM   64  H38 UNL     1      13.516  13.944 -10.968  1.00  0.00     0.210 HD
ENDBRANCH  17  63
ENDBRANCH  14  17
ENDBRANCH  12  13
ENDBRANCH  11  12
ENDBRANCH   8  11
ENDBRANCH   6   7
ENDBRANCH   5   6
ENDBRANCH   4   5
ENDBRANCH   2   4
TORSDOF 27
ENDMDL
MODEL 6
REMARK VINA RESULT:      -6.9      2.930      9.250
REMARK  27 active torsions:
REMARK  status: ('A' for Active; 'I' for Inactive)
REMARK    1  A    between atoms: C2_2  and  S1_4 
REMARK    2  A    between atoms: S1_4  and  C3_5 
REMARK    3  A    between atoms: C3_5  and  C4_6 
REMARK    4  A    between atoms: C4_6  and  N1_7 
REMARK       I    between atoms: N1_7  and  C5_8 
REMARK    5  A    between atoms: C5_8  and  C6_10 
REMARK    6  A    between atoms: C6_10  and  C7_11 
REMARK    7  A    between atoms: C7_11  and  N2_12 
REMARK       I    between atoms: N2_12  and  C8_13 
REMARK    8  A    between atoms: C8_13  and  C9_15 
REMARK    9  A    between atoms: C9_15  and  C10_16 
REMARK   10  A    between atoms: C9_15  and  O17_54 
REMARK   11  A    between atoms: C10_16  and  C13_19 
REMARK   12  A    between atoms: C13_19  and  O4_20 
REMARK   13  A    between atoms: O4_20  and  P1_21 
REMARK   14  A    between atoms: P1_21  and  O6_23 
REMARK   15  A    between atoms: P1_21  and  O7_24 
REMARK   16  A    between atoms: O7_24  and  P2_25 
REMARK   17  A    between atoms: P2_25  and  O9_27 
REMARK   18  A    between atoms: P2_25  and  O10_28 
REMARK   19  A    between atoms: O10_28  and  C14_29 
REMARK   20  A    between atoms: C14_29  and  C15_30 
REMARK   21  A    between atoms: C16_31  and  O13_49 
REMARK   22  A    between atoms: C17_32  and  O12_48 
REMARK   23  A    between atoms: C18_33  and  N3_35 
REMARK   24  A    between atoms: C21_40  and  N7_47 
REMARK   25  A    between atoms: O13_49  and  P3_50 
REMARK   26  A    between atoms: P3_50  and  O15_52 
REMARK   27  A    between atoms: P3_50  and  O16_53 
ROOT
HETATM    1  C1  UNL     1       7.510  16.819  -9.391  1.00  0.00     0.104 C 
HETATM    2  C2  UNL     1       6.570  16.329 -10.450  1.00  0.00     0.182 C 
HETATM    3  O1  UNL     1       6.721  16.563 -11.647  1.00  0.00    -0.286 OA
ENDROOT
BRANCH   2   4
HETATM    4  S1  UNL     1       5.198  15.417  -9.836  1.00  0.00    -0.091 SA
BRANCH   4   5
HETATM    5  C3  UNL     1       5.902  13.736  -9.833  1.00  0.00     0.102 C 
BRANCH   5   6
HETATM    6  C4  UNL     1       5.216  12.829 -10.857  1.00  0.00     0.133 C 
BRANCH   6   7
HETATM    7  N1  UNL     1       4.858  11.537 -10.309  1.00  0.00    -0.360 N 
HETATM    8  C5  UNL     1       3.557  11.219  -9.998  1.00  0.00     0.219 C 
HETATM    9  O2  UNL     1       2.640  12.027 -10.087  1.00  0.00    -0.274 OA
HETATM   10  H8  UNL     1       5.587  10.853 -10.161  1.00  0.00     0.162 HD
BRANCH   8  11
HETATM   11  C6  UNL     1       3.391   9.802  -9.491  1.00  0.00     0.122 C 
BRANCH  11  12
HETATM   12  C7  UNL     1       3.754   9.679  -8.012  1.00  0.00     0.132 C 
BRANCH  12  13
HETATM   13  N2  UNL     1       4.915   8.846  -7.779  1.00  0.00    -0.358 N 
HETATM   14  C8  UNL     1       6.179   9.406  -7.746  1.00  0.00     0.247 C 
HETATM   15  O3  UNL     1       6.378  10.582  -8.024  1.00  0.00    -0.271 OA
HETATM   16  H13 UNL     1       4.755   8.023  -7.202  1.00  0.00     0.162 HD
BRANCH  14  17
HETATM   17  C9  UNL     1       7.298   8.445  -7.316  1.00  0.00     0.219 C 
BRANCH  17  18
HETATM   18  C10 UNL     1       8.176   8.964  -6.147  1.00  0.00     0.009 C 
HETATM   19  C11 UNL     1       7.631  10.270  -5.549  1.00  0.00     0.020 C 
HETATM   20  C12 UNL     1       8.275   7.926  -5.011  1.00  0.00     0.020 C 
BRANCH  18  21
HETATM   21  C13 UNL     1       9.587   9.216  -6.753  1.00  0.00     0.192 C 
BRANCH  21  22
HETATM   22  O4  UNL     1       9.768   8.554  -7.988  1.00  0.00    -0.296 OA
BRANCH  22  23
HETATM   23  P1  UNL     1      10.784   7.328  -8.178  1.00  0.00     0.401 P 
HETATM   24  O5  UNL     1      10.116   6.006  -8.389  1.00  0.00    -0.631 OA
BRANCH  23  25
HETATM   25  O6  UNL     1      11.788   7.356  -6.920  1.00  0.00    -0.307 OA
HETATM   26  H23 UNL     1      11.314   7.320  -6.079  1.00  0.00     0.222 HD
ENDBRANCH  23  25
BRANCH  23  27
HETATM   27  O7  UNL     1      11.754   7.778  -9.357  1.00  0.00    -0.195 OA
BRANCH  27  28
HETATM   28  P2  UNL     1      13.060   8.618  -9.001  1.00  0.00     0.401 P 
HETATM   29  O8  UNL     1      14.203   7.869  -8.396  1.00  0.00    -0.631 OA
BRANCH  28  30
HETATM   30  O9  UNL     1      13.415   9.345 -10.378  1.00  0.00    -0.307 OA
HETATM   31  H24 UNL     1      13.983  10.147 -10.276  1.00  0.00     0.222 HD
ENDBRANCH  28  30
BRANCH  28  32
HETATM   32  O10 UNL     1      12.507   9.851  -8.151  1.00  0.00    -0.294 OA
BRANCH  32  33
HETATM   33  C14 UNL     1      13.254  11.036  -8.064  1.00  0.00     0.215 C 
BRANCH  33  34
HETATM   34  C15 UNL     1      12.887  11.674  -6.725  1.00  0.00     0.180 C 
HETATM   35  C16 UNL     1      13.141  13.175  -6.783  1.00  0.00     0.197 C 
HETATM   36  C17 UNL     1      14.203  13.427  -5.730  1.00  0.00     0.199 C 
HETATM   37  C18 UNL     1      13.988  12.255  -4.769  1.00  0.00     0.262 C 
HETATM   38  O11 UNL     1      13.643  11.147  -5.629  1.00  0.00    -0.353 OA
BRANCH  35  39
HETATM   39  O13 UNL     1      11.918  13.840  -6.483  1.00  0.00    -0.286 OA
BRANCH  39  40
HETATM   40  P3  UNL     1      11.285  14.692  -7.679  1.00  0.00     0.391 P 
HETATM   41  O14 UNL     1      11.428  16.170  -7.507  1.00  0.00    -0.632 OA
BRANCH  40  42
HETATM   42  O15 UNL     1       9.803  14.092  -7.722  1.00  0.00    -0.307 OA
HETATM   43  H36 UNL     1       9.187  14.646  -7.187  1.00  0.00     0.222 HD
ENDBRANCH  40  42
BRANCH  40  44
HETATM   44  O16 UNL     1      11.983  14.026  -8.943  1.00  0.00    -0.307 OA
HETATM   45  H37 UNL     1      11.374  13.908  -9.690  1.00  0.00     0.222 HD
ENDBRANCH  40  44
ENDBRANCH  39  40
ENDBRANCH  35  39
BRANCH  36  46
HETATM   46  O12 UNL     1      14.069  14.747  -5.197  1.00  0.00    -0.388 OA
HETATM   47  H35 UNL     1      13.159  15.050  -5.429  1.00  0.00     0.210 HD
ENDBRANCH  36  46
BRANCH  37  48
HETATM   48  N3  UNL     1      15.187  11.916  -4.029  1.00  0.00    -0.297 N 
HETATM   49  C19 UNL     1      15.522  12.319  -2.757  1.00  0.00     0.188 A 
HETATM   50  N4  UNL     1      16.617  11.736  -2.321  1.00  0.00    -0.346 N 
HETATM   51  C20 UNL     1      17.010  10.910  -3.360  1.00  0.00     0.116 A 
HETATM   52  H4  UNL     1      17.075  11.864  -1.419  1.00  0.00     0.167 HD
HETATM   53  C21 UNL     1      18.070   9.999  -3.504  1.00  0.00     0.109 A 
HETATM   54  C23 UNL     1      16.155  11.041  -4.439  1.00  0.00     0.142 A 
HETATM   55  N5  UNL     1      18.197   9.331  -4.676  1.00  0.00    -0.341 N 
HETATM   56  C22 UNL     1      17.301   9.578  -5.652  1.00  0.00     0.183 A 
HETATM   57  H5  UNL     1      18.952   8.659  -4.816  1.00  0.00     0.167 HD
HETATM   58  N6  UNL     1      16.245  10.417  -5.627  1.00  0.00    -0.336 N 
HETATM   59  H6  UNL     1      15.601  10.559  -6.405  1.00  0.00     0.168 HD
BRANCH  53  60
HETATM   60  N7  UNL     1      19.003   9.752  -2.509  1.00  0.00    -0.287 NA
HETATM   61  H33 UNL     1      19.209  10.555  -1.919  1.00  0.00     0.125 HD
HETATM   62  H34 UNL     1      19.793   9.211  -2.834  1.00  0.00     0.125 HD
ENDBRANCH  53  60
ENDBRANCH  37  48
ENDBRANCH  33  34
ENDBRANCH  32  33
ENDBRANCH  28  32
ENDBRANCH  27  28
ENDBRANCH  23  27
ENDBRANCH  22  23
ENDBRANCH  21  22
ENDBRANCH  18  21
ENDBRANCH  17  18
BRANCH  17  63
HETATM   63  O17 UNL     1       6.744   7.180  -6.941  1.00  0.00    -0.385 OA
HETATM   64  H38 UNL     1       7.435   6.505  -7.045  1.00  0.00     0.210 HD
ENDBRANCH  17  63
ENDBRANCH  14  17
ENDBRANCH  12  13
ENDBRANCH  11  12
ENDBRANCH   8  11
ENDBRANCH   6   7
ENDBRANCH   5   6
ENDBRANCH   4   5
ENDBRANCH   2   4
TORSDOF 27
ENDMDL
MODEL 7
REMARK VINA RESULT:      -6.8      1.832      3.175
REMARK  27 active torsions:
REMARK  status: ('A' for Active; 'I' for Inactive)
REMARK    1  A    between atoms: C2_2  and  S1_4 
REMARK    2  A    between atoms: S1_4  and  C3_5 
REMARK    3  A    between atoms: C3_5  and  C4_6 
REMARK    4  A    between atoms: C4_6  and  N1_7 
REMARK       I    between atoms: N1_7  and  C5_8 
REMARK    5  A    between atoms: C5_8  and  C6_10 
REMARK    6  A    between atoms: C6_10  and  C7_11 
REMARK    7  A    between atoms: C7_11  and  N2_12 
REMARK       I    between atoms: N2_12  and  C8_13 
REMARK    8  A    between atoms: C8_13  and  C9_15 
REMARK    9  A    between atoms: C9_15  and  C10_16 
REMARK   10  A    between atoms: C9_15  and  O17_54 
REMARK   11  A    between atoms: C10_16  and  C13_19 
REMARK   12  A    between atoms: C13_19  and  O4_20 
REMARK   13  A    between atoms: O4_20  and  P1_21 
REMARK   14  A    between atoms: P1_21  and  O6_23 
REMARK   15  A    between atoms: P1_21  and  O7_24 
REMARK   16  A    between atoms: O7_24  and  P2_25 
REMARK   17  A    between atoms: P2_25  and  O9_27 
REMARK   18  A    between atoms: P2_25  and  O10_28 
REMARK   19  A    between atoms: O10_28  and  C14_29 
REMARK   20  A    between atoms: C14_29  and  C15_30 
REMARK   21  A    between atoms: C16_31  and  O13_49 
REMARK   22  A    between atoms: C17_32  and  O12_48 
REMARK   23  A    between atoms: C18_33  and  N3_35 
REMARK   24  A    between atoms: C21_40  and  N7_47 
REMARK   25  A    between atoms: O13_49  and  P3_50 
REMARK   26  A    between atoms: P3_50  and  O15_52 
REMARK   27  A    between atoms: P3_50  and  O16_53 
ROOT
HETATM    1  C1  UNL     1      11.590  13.303  -5.538  1.00  0.00     0.104 C 
HETATM    2  C2  UNL     1      12.890  12.635  -5.211  1.00  0.00     0.182 C 
HETATM    3  O1  UNL     1      13.413  11.786  -5.930  1.00  0.00    -0.286 OA
ENDROOT
BRANCH   2   4
HETATM    4  S1  UNL     1      13.598  13.136  -3.681  1.00  0.00    -0.091 SA
BRANCH   4   5
HETATM    5  C3  UNL     1      15.219  12.310  -3.788  1.00  0.00     0.102 C 
BRANCH   5   6
HETATM    6  C4  UNL     1      15.765  11.946  -2.406  1.00  0.00     0.133 C 
BRANCH   6   7
HETATM    7  N1  UNL     1      17.156  11.543  -2.443  1.00  0.00    -0.360 N 
HETATM    8  C5  UNL     1      17.524  10.228  -2.616  1.00  0.00     0.219 C 
HETATM    9  O2  UNL     1      16.707   9.316  -2.668  1.00  0.00    -0.274 OA
HETATM   10  H8  UNL     1      17.871  12.251  -2.346  1.00  0.00     0.162 HD
BRANCH   8  11
HETATM   11  C6  UNL     1      19.022  10.029  -2.681  1.00  0.00     0.122 C 
BRANCH  11  12
HETATM   12  C7  UNL     1      19.522   9.921  -4.122  1.00  0.00     0.132 C 
BRANCH  12  13
HETATM   13  N2  UNL     1      18.452   9.748  -5.082  1.00  0.00    -0.358 N 
HETATM   14  C8  UNL     1      18.427   8.637  -5.904  1.00  0.00     0.247 C 
HETATM   15  O3  UNL     1      19.348   7.831  -5.940  1.00  0.00    -0.271 OA
HETATM   16  H13 UNL     1      17.556  10.152  -4.816  1.00  0.00     0.162 HD
BRANCH  14  17
HETATM   17  C9  UNL     1      17.151   8.488  -6.746  1.00  0.00     0.219 C 
BRANCH  17  18
HETATM   18  C10 UNL     1      17.102   9.392  -8.006  1.00  0.00     0.009 C 
HETATM   19  C11 UNL     1      16.365  10.713  -7.741  1.00  0.00     0.020 C 
HETATM   20  C12 UNL     1      18.519   9.731  -8.513  1.00  0.00     0.020 C 
BRANCH  18  21
HETATM   21  C13 UNL     1      16.339   8.575  -9.088  1.00  0.00     0.192 C 
BRANCH  21  22
HETATM   22  O4  UNL     1      14.999   8.317  -8.722  1.00  0.00    -0.296 OA
BRANCH  22  23
HETATM   23  P1  UNL     1      13.761   8.580  -9.706  1.00  0.00     0.401 P 
HETATM   24  O5  UNL     1      13.466   7.444 -10.635  1.00  0.00    -0.631 OA
BRANCH  23  25
HETATM   25  O6  UNL     1      14.051   9.974 -10.456  1.00  0.00    -0.307 OA
HETATM   26  H23 UNL     1      14.423  10.636  -9.859  1.00  0.00     0.222 HD
ENDBRANCH  23  25
BRANCH  23  27
HETATM   27  O7  UNL     1      12.556   8.987  -8.751  1.00  0.00    -0.195 OA
BRANCH  27  28
HETATM   28  P2  UNL     1      11.506   7.871  -8.317  1.00  0.00     0.401 P 
HETATM   29  O8  UNL     1      10.476   7.481  -9.327  1.00  0.00    -0.631 OA
BRANCH  28  30
HETATM   30  O9  UNL     1      12.432   6.664  -7.833  1.00  0.00    -0.307 OA
HETATM   31  H24 UNL     1      13.069   6.906  -7.117  1.00  0.00     0.222 HD
ENDBRANCH  28  30
BRANCH  28  32
HETATM   32  O10 UNL     1      10.945   8.391  -6.915  1.00  0.00    -0.294 OA
BRANCH  32  33
HETATM   33  C14 UNL     1      10.418   9.688  -6.807  1.00  0.00     0.215 C 
BRANCH  33  34
HETATM   34  C15 UNL     1       9.054   9.539  -6.135  1.00  0.00     0.180 C 
HETATM   35  C16 UNL     1       8.248   8.456  -6.840  1.00  0.00     0.197 C 
HETATM   36  C17 UNL     1       7.032   9.178  -7.389  1.00  0.00     0.199 C 
HETATM   37  C18 UNL     1       6.914  10.377  -6.445  1.00  0.00     0.262 C 
HETATM   38  O11 UNL     1       8.282  10.745  -6.163  1.00  0.00    -0.353 OA
BRANCH  35  39
HETATM   39  O13 UNL     1       7.895   7.470  -5.875  1.00  0.00    -0.286 OA
BRANCH  39  40
HETATM   40  P3  UNL     1       8.280   5.966  -6.255  1.00  0.00     0.391 P 
HETATM   41  O14 UNL     1       7.443   4.937  -5.565  1.00  0.00    -0.632 OA
BRANCH  40  42
HETATM   42  O15 UNL     1       9.850   5.971  -5.947  1.00  0.00    -0.307 OA
HETATM   43  H36 UNL     1      10.209   5.052  -5.950  1.00  0.00     0.222 HD
ENDBRANCH  40  42
BRANCH  40  44
HETATM   44  O16 UNL     1       8.223   6.018  -7.843  1.00  0.00    -0.307 OA
HETATM   45  H37 UNL     1       8.810   5.368  -8.262  1.00  0.00     0.222 HD
ENDBRANCH  40  44
ENDBRANCH  39  40
ENDBRANCH  35  39
BRANCH  36  46
HETATM   46  O12 UNL     1       5.916   8.287  -7.462  1.00  0.00    -0.388 OA
HETATM   47  H35 UNL     1       5.639   8.113  -6.531  1.00  0.00     0.210 HD
ENDBRANCH  36  46
BRANCH  37  48
HETATM   48  N3  UNL     1       6.244  11.506  -7.059  1.00  0.00    -0.297 N 
HETATM   49  C19 UNL     1       6.766  12.757  -7.289  1.00  0.00     0.188 A 
HETATM   50  N4  UNL     1       5.946  13.520  -7.979  1.00  0.00    -0.346 N 
HETATM   51  C20 UNL     1       4.840  12.722  -8.211  1.00  0.00     0.116 A 
HETATM   52  H4  UNL     1       6.093  14.484  -8.276  1.00  0.00     0.167 HD
HETATM   53  C21 UNL     1       3.645  12.933  -8.920  1.00  0.00     0.109 A 
HETATM   54  C23 UNL     1       4.995  11.485  -7.613  1.00  0.00     0.142 A 
HETATM   55  N5  UNL     1       2.727  11.936  -8.958  1.00  0.00    -0.341 N 
HETATM   56  C22 UNL     1       3.004  10.789  -8.306  1.00  0.00     0.183 A 
HETATM   57  H5  UNL     1       1.850  12.051  -9.465  1.00  0.00     0.167 HD
HETATM   58  N6  UNL     1       4.112  10.470  -7.606  1.00  0.00    -0.336 N 
HETATM   59  H6  UNL     1       4.260   9.578  -7.133  1.00  0.00     0.168 HD
BRANCH  53  60
HETATM   60  N7  UNL     1       3.348  14.116  -9.579  1.00  0.00    -0.287 NA
HETATM   61  H33 UNL     1       4.162  14.678  -9.817  1.00  0.00     0.125 HD
HETATM   62  H34 UNL     1       2.559  14.604  -9.178  1.00  0.00     0.125 HD
ENDBRANCH  53  60
ENDBRANCH  37  48
ENDBRANCH  33  34
ENDBRANCH  32  33
ENDBRANCH  28  32
ENDBRANCH  27  28
ENDBRANCH  23  27
ENDBRANCH  22  23
ENDBRANCH  21  22
ENDBRANCH  18  21
ENDBRANCH  17  18
BRANCH  17  63
HETATM   63  O17 UNL     1      16.988   7.126  -7.157  1.00  0.00    -0.385 OA
HETATM   64  H38 UNL     1      17.486   6.999  -7.983  1.00  0.00     0.210 HD
ENDBRANCH  17  63
ENDBRANCH  14  17
ENDBRANCH  12  13
ENDBRANCH  11  12
ENDBRANCH   8  11
ENDBRANCH   6   7
ENDBRANCH   5   6
ENDBRANCH   4   5
ENDBRANCH   2   4
TORSDOF 27
ENDMDL
MODEL 8
REMARK VINA RESULT:      -6.7      2.336      8.165
REMARK  27 active torsions:
REMARK  status: ('A' for Active; 'I' for Inactive)
REMARK    1  A    between atoms: C2_2  and  S1_4 
REMARK    2  A    between atoms: S1_4  and  C3_5 
REMARK    3  A    between atoms: C3_5  and  C4_6 
REMARK    4  A    between atoms: C4_6  and  N1_7 
REMARK       I    between atoms: N1_7  and  C5_8 
REMARK    5  A    between atoms: C5_8  and  C6_10 
REMARK    6  A    between atoms: C6_10  and  C7_11 
REMARK    7  A    between atoms: C7_11  and  N2_12 
REMARK       I    between atoms: N2_12  and  C8_13 
REMARK    8  A    between atoms: C8_13  and  C9_15 
REMARK    9  A    between atoms: C9_15  and  C10_16 
REMARK   10  A    between atoms: C9_15  and  O17_54 
REMARK   11  A    between atoms: C10_16  and  C13_19 
REMARK   12  A    between atoms: C13_19  and  O4_20 
REMARK   13  A    between atoms: O4_20  and  P1_21 
REMARK   14  A    between atoms: P1_21  and  O6_23 
REMARK   15  A    between atoms: P1_21  and  O7_24 
REMARK   16  A    between atoms: O7_24  and  P2_25 
REMARK   17  A    between atoms: P2_25  and  O9_27 
REMARK   18  A    between atoms: P2_25  and  O10_28 
REMARK   19  A    between atoms: O10_28  and  C14_29 
REMARK   20  A    between atoms: C14_29  and  C15_30 
REMARK   21  A    between atoms: C16_31  and  O13_49 
REMARK   22  A    between atoms: C17_32  and  O12_48 
REMARK   23  A    between atoms: C18_33  and  N3_35 
REMARK   24  A    between atoms: C21_40  and  N7_47 
REMARK   25  A    between atoms: O13_49  and  P3_50 
REMARK   26  A    between atoms: P3_50  and  O15_52 
REMARK   27  A    between atoms: P3_50  and  O16_53 
ROOT
HETATM    1  C1  UNL     1       7.479  14.539  -7.809  1.00  0.00     0.104 C 
HETATM    2  C2  UNL     1       6.344  13.683  -8.283  1.00  0.00     0.182 C 
HETATM    3  O1  UNL     1       6.449  12.476  -8.488  1.00  0.00    -0.286 OA
ENDROOT
BRANCH   2   4
HETATM    4  S1  UNL     1       4.845  14.559  -8.565  1.00  0.00    -0.091 SA
BRANCH   4   5
HETATM    5  C3  UNL     1       4.050  13.456  -9.777  1.00  0.00     0.102 C 
BRANCH   5   6
HETATM    6  C4  UNL     1       3.080  12.479  -9.109  1.00  0.00     0.133 C 
BRANCH   6   7
HETATM    7  N1  UNL     1       3.743  11.304  -8.582  1.00  0.00    -0.360 N 
HETATM    8  C5  UNL     1       3.523  10.052  -9.107  1.00  0.00     0.219 C 
HETATM    9  O2  UNL     1       2.700   9.842  -9.991  1.00  0.00    -0.274 OA
HETATM   10  H8  UNL     1       4.389  11.415  -7.812  1.00  0.00     0.162 HD
BRANCH   8  11
HETATM   11  C6  UNL     1       4.355   8.972  -8.450  1.00  0.00     0.122 C 
BRANCH  11  12
HETATM   12  C7  UNL     1       5.368   9.553  -7.464  1.00  0.00     0.132 C 
BRANCH  12  13
HETATM   13  N2  UNL     1       6.740   9.252  -7.817  1.00  0.00    -0.358 N 
HETATM   14  C8  UNL     1       7.679   9.024  -6.829  1.00  0.00     0.247 C 
HETATM   15  O3  UNL     1       7.427   9.180  -5.641  1.00  0.00    -0.271 OA
HETATM   16  H13 UNL     1       6.868   8.767  -8.703  1.00  0.00     0.162 HD
BRANCH  14  17
HETATM   17  C9  UNL     1       9.046   8.543  -7.338  1.00  0.00     0.219 C 
BRANCH  17  18
HETATM   18  C10 UNL     1       9.417   7.097  -6.916  1.00  0.00     0.009 C 
HETATM   19  C11 UNL     1       9.724   6.993  -5.415  1.00  0.00     0.020 C 
HETATM   20  C12 UNL     1       8.282   6.105  -7.239  1.00  0.00     0.020 C 
BRANCH  18  21
HETATM   21  C13 UNL     1      10.687   6.726  -7.735  1.00  0.00     0.192 C 
BRANCH  21  22
HETATM   22  O4  UNL     1      11.751   7.631  -7.518  1.00  0.00    -0.296 OA
BRANCH  22  23
HETATM   23  P1  UNL     1      12.867   7.945  -8.626  1.00  0.00     0.401 P 
HETATM   24  O5  UNL     1      12.806   7.053  -9.826  1.00  0.00    -0.631 OA
BRANCH  23  25
HETATM   25  O6  UNL     1      14.289   7.924  -7.873  1.00  0.00    -0.307 OA
HETATM   26  H23 UNL     1      14.258   8.391  -7.028  1.00  0.00     0.222 HD
ENDBRANCH  23  25
BRANCH  23  27
HETATM   27  O7  UNL     1      12.707   9.496  -8.942  1.00  0.00    -0.195 OA
BRANCH  27  28
HETATM   28  P2  UNL     1      14.003  10.343  -9.317  1.00  0.00     0.401 P 
HETATM   29  O8  UNL     1      14.992   9.697 -10.232  1.00  0.00    -0.631 OA
BRANCH  28  30
HETATM   30  O9  UNL     1      13.398  11.712  -9.873  1.00  0.00    -0.307 OA
HETATM   31  H24 UNL     1      13.502  12.478  -9.257  1.00  0.00     0.222 HD
ENDBRANCH  28  30
BRANCH  28  32
HETATM   32  O10 UNL     1      14.571  10.825  -7.904  1.00  0.00    -0.294 OA
BRANCH  32  33
HETATM   33  C14 UNL     1      15.116  12.111  -7.769  1.00  0.00     0.215 C 
BRANCH  33  34
HETATM   34  C15 UNL     1      15.930  12.096  -6.476  1.00  0.00     0.180 C 
HETATM   35  C16 UNL     1      15.955  10.686  -5.899  1.00  0.00     0.197 C 
HETATM   36  C17 UNL     1      15.269  10.810  -4.552  1.00  0.00     0.199 C 
HETATM   37  C18 UNL     1      15.503  12.282  -4.204  1.00  0.00     0.262 C 
HETATM   38  O11 UNL     1      15.401  12.969  -5.472  1.00  0.00    -0.353 OA
BRANCH  35  39
HETATM   39  O13 UNL     1      17.315  10.285  -5.774  1.00  0.00    -0.286 OA
BRANCH  39  40
HETATM   40  P3  UNL     1      17.684   8.882  -6.447  1.00  0.00     0.391 P 
HETATM   41  O14 UNL     1      19.130   8.520  -6.330  1.00  0.00    -0.632 OA
BRANCH  40  42
HETATM   42  O15 UNL     1      17.090   9.090  -7.917  1.00  0.00    -0.307 OA
HETATM   43  H36 UNL     1      16.831   8.224  -8.314  1.00  0.00     0.222 HD
ENDBRANCH  40  42
BRANCH  40  44
HETATM   44  O16 UNL     1      16.625   7.915  -5.761  1.00  0.00    -0.307 OA
HETATM   45  H37 UNL     1      16.296   8.256  -4.915  1.00  0.00     0.222 HD
ENDBRANCH  40  44
ENDBRANCH  39  40
ENDBRANCH  35  39
BRANCH  36  46
HETATM   46  O12 UNL     1      15.780   9.831  -3.644  1.00  0.00    -0.388 OA
HETATM   47  H35 UNL     1      16.763   9.912  -3.672  1.00  0.00     0.210 HD
ENDBRANCH  36  46
BRANCH  37  48
HETATM   48  N3  UNL     1      14.496  12.809  -3.306  1.00  0.00    -0.297 N 
HETATM   49  C19 UNL     1      14.641  13.091  -1.968  1.00  0.00     0.188 A 
HETATM   50  N4  UNL     1      13.578  13.678  -1.463  1.00  0.00    -0.346 N 
HETATM   51  C20 UNL     1      12.701  13.786  -2.529  1.00  0.00     0.116 A 
HETATM   52  H4  UNL     1      13.431  13.985  -0.502  1.00  0.00     0.167 HD
HETATM   53  C21 UNL     1      11.421  14.352  -2.655  1.00  0.00     0.109 A 
HETATM   54  C23 UNL     1      13.242  13.216  -3.667  1.00  0.00     0.142 A 
HETATM   55  N5  UNL     1      10.799  14.290  -3.858  1.00  0.00    -0.341 N 
HETATM   56  C22 UNL     1      11.440  13.681  -4.876  1.00  0.00     0.183 A 
HETATM   57  H5  UNL     1       9.872  14.693  -3.989  1.00  0.00     0.167 HD
HETATM   58  N6  UNL     1      12.663  13.114  -4.876  1.00  0.00    -0.336 N 
HETATM   59  H6  UNL     1      13.093  12.666  -5.686  1.00  0.00     0.168 HD
BRANCH  53  60
HETATM   60  N7  UNL     1      10.752  14.966  -1.608  1.00  0.00    -0.287 NA
HETATM   61  H33 UNL     1      11.362  15.359  -0.894  1.00  0.00     0.125 HD
HETATM   62  H34 UNL     1       9.954  14.436  -1.284  1.00  0.00     0.125 HD
ENDBRANCH  53  60
ENDBRANCH  37  48
ENDBRANCH  33  34
ENDBRANCH  32  33
ENDBRANCH  28  32
ENDBRANCH  27  28
ENDBRANCH  23  27
ENDBRANCH  22  23
ENDBRANCH  21  22
ENDBRANCH  18  21
ENDBRANCH  17  18
BRANCH  17  63
HETATM   63  O17 UNL     1       9.097   8.627  -8.767  1.00  0.00    -0.385 OA
HETATM   64  H38 UNL     1       8.497   9.337  -9.049  1.00  0.00     0.210 HD
ENDBRANCH  17  63
ENDBRANCH  14  17
ENDBRANCH  12  13
ENDBRANCH  11  12
ENDBRANCH   8  11
ENDBRANCH   6   7
ENDBRANCH   5   6
ENDBRANCH   4   5
ENDBRANCH   2   4
TORSDOF 27
ENDMDL
MODEL 9
REMARK VINA RESULT:      -6.7      3.721      8.934
REMARK  27 active torsions:
REMARK  status: ('A' for Active; 'I' for Inactive)
REMARK    1  A    between atoms: C2_2  and  S1_4 
REMARK    2  A    between atoms: S1_4  and  C3_5 
REMARK    3  A    between atoms: C3_5  and  C4_6 
REMARK    4  A    between atoms: C4_6  and  N1_7 
REMARK       I    between atoms: N1_7  and  C5_8 
REMARK    5  A    between atoms: C5_8  and  C6_10 
REMARK    6  A    between atoms: C6_10  and  C7_11 
REMARK    7  A    between atoms: C7_11  and  N2_12 
REMARK       I    between atoms: N2_12  and  C8_13 
REMARK    8  A    between atoms: C8_13  and  C9_15 
REMARK    9  A    between atoms: C9_15  and  C10_16 
REMARK   10  A    between atoms: C9_15  and  O17_54 
REMARK   11  A    between atoms: C10_16  and  C13_19 
REMARK   12  A    between atoms: C13_19  and  O4_20 
REMARK   13  A    between atoms: O4_20  and  P1_21 
REMARK   14  A    between atoms: P1_21  and  O6_23 
REMARK   15  A    between atoms: P1_21  and  O7_24 
REMARK   16  A    between atoms: O7_24  and  P2_25 
REMARK   17  A    between atoms: P2_25  and  O9_27 
REMARK   18  A    between atoms: P2_25  and  O10_28 
REMARK   19  A    between atoms: O10_28  and  C14_29 
REMARK   20  A    between atoms: C14_29  and  C15_30 
REMARK   21  A    between atoms: C16_31  and  O13_49 
REMARK   22  A    between atoms: C17_32  and  O12_48 
REMARK   23  A    between atoms: C18_33  and  N3_35 
REMARK   24  A    between atoms: C21_40  and  N7_47 
REMARK   25  A    between atoms: O13_49  and  P3_50 
REMARK   26  A    between atoms: P3_50  and  O15_52 
REMARK   27  A    between atoms: P3_50  and  O16_53 
ROOT
HETATM    1  C1  UNL     1       1.564  10.115  -5.925  1.00  0.00     0.104 C 
HETATM    2  C2  UNL     1       2.072   8.967  -6.743  1.00  0.00     0.182 C 
HETATM    3  O1  UNL     1       2.887   8.149  -6.324  1.00  0.00    -0.286 OA
ENDROOT
BRANCH   2   4
HETATM    4  S1  UNL     1       1.434   8.905  -8.380  1.00  0.00    -0.091 SA
BRANCH   4   5
HETATM    5  C3  UNL     1       2.981   8.714  -9.324  1.00  0.00     0.102 C 
BRANCH   5   6
HETATM    6  C4  UNL     1       3.913   9.913  -9.138  1.00  0.00     0.133 C 
BRANCH   6   7
HETATM    7  N1  UNL     1       3.531  11.050  -9.951  1.00  0.00    -0.360 N 
HETATM    8  C5  UNL     1       3.046  12.209  -9.393  1.00  0.00     0.219 C 
HETATM    9  O2  UNL     1       2.833  12.324  -8.191  1.00  0.00    -0.274 OA
HETATM   10  H8  UNL     1       3.633  10.986 -10.955  1.00  0.00     0.162 HD
BRANCH   8  11
HETATM   11  C6  UNL     1       2.761  13.291 -10.412  1.00  0.00     0.122 C 
BRANCH  11  12
HETATM   12  C7  UNL     1       3.539  14.573 -10.117  1.00  0.00     0.132 C 
BRANCH  12  13
HETATM   13  N2  UNL     1       4.866  14.324  -9.596  1.00  0.00    -0.358 N 
HETATM   14  C8  UNL     1       5.264  14.893  -8.400  1.00  0.00     0.247 C 
HETATM   15  O3  UNL     1       4.571  15.708  -7.804  1.00  0.00    -0.271 OA
HETATM   16  H13 UNL     1       5.270  13.422  -9.839  1.00  0.00     0.162 HD
BRANCH  14  17
HETATM   17  C9  UNL     1       6.624  14.408  -7.876  1.00  0.00     0.219 C 
BRANCH  17  18
HETATM   18  C10 UNL     1       6.555  13.131  -6.996  1.00  0.00     0.009 C 
HETATM   19  C11 UNL     1       5.431  13.208  -5.953  1.00  0.00     0.020 C 
HETATM   20  C12 UNL     1       6.325  11.868  -7.850  1.00  0.00     0.020 C 
BRANCH  18  21
HETATM   21  C13 UNL     1       7.931  13.035  -6.276  1.00  0.00     0.192 C 
BRANCH  21  22
HETATM   22  O4  UNL     1       8.690  14.220  -6.406  1.00  0.00    -0.296 OA
BRANCH  22  23
HETATM   23  P1  UNL     1      10.292  14.240  -6.326  1.00  0.00     0.401 P 
HETATM   24  O5  UNL     1      10.837  14.130  -4.937  1.00  0.00    -0.631 OA
BRANCH  23  25
HETATM   25  O6  UNL     1      10.780  15.557  -7.113  1.00  0.00    -0.307 OA
HETATM   26  H23 UNL     1      11.709  15.759  -6.939  1.00  0.00     0.222 HD
ENDBRANCH  23  25
BRANCH  23  27
HETATM   27  O7  UNL     1      10.767  13.093  -7.320  1.00  0.00    -0.195 OA
BRANCH  27  28
HETATM   28  P2  UNL     1      12.211  13.200  -7.985  1.00  0.00     0.401 P 
HETATM   29  O8  UNL     1      12.306  13.934  -9.282  1.00  0.00    -0.631 OA
BRANCH  28  30
HETATM   30  O9  UNL     1      13.107  13.820  -6.818  1.00  0.00    -0.307 OA
HETATM   31  H24 UNL     1      14.036  14.023  -7.087  1.00  0.00     0.222 HD
ENDBRANCH  28  30
BRANCH  28  32
HETATM   32  O10 UNL     1      12.744  11.694  -7.995  1.00  0.00    -0.294 OA
BRANCH  32  33
HETATM   33  C14 UNL     1      12.443  10.835  -6.927  1.00  0.00     0.215 C 
BRANCH  33  34
HETATM   34  C15 UNL     1      13.108   9.499  -7.253  1.00  0.00     0.180 C 
HETATM   35  C16 UNL     1      13.289   9.368  -8.760  1.00  0.00     0.197 C 
HETATM   36  C17 UNL     1      12.452   8.162  -9.144  1.00  0.00     0.199 C 
HETATM   37  C18 UNL     1      12.418   7.364  -7.838  1.00  0.00     0.262 C 
HETATM   38  O11 UNL     1      12.346   8.372  -6.806  1.00  0.00    -0.353 OA
BRANCH  35  39
HETATM   39  O13 UNL     1      14.674   9.166  -9.021  1.00  0.00    -0.286 OA
BRANCH  39  40
HETATM   40  P3  UNL     1      15.271   9.996 -10.251  1.00  0.00     0.391 P 
HETATM   41  O14 UNL     1      16.690  10.421 -10.058  1.00  0.00    -0.632 OA
BRANCH  40  42
HETATM   42  O15 UNL     1      14.167  11.144 -10.401  1.00  0.00    -0.307 OA
HETATM   43  H36 UNL     1      14.041  11.621  -9.546  1.00  0.00     0.222 HD
ENDBRANCH  40  42
BRANCH  40  44
HETATM   44  O16 UNL     1      14.952   9.026 -11.470  1.00  0.00    -0.307 OA
HETATM   45  H37 UNL     1      15.030   8.088 -11.235  1.00  0.00     0.222 HD
ENDBRANCH  40  44
ENDBRANCH  39  40
ENDBRANCH  35  39
BRANCH  36  46
HETATM   46  O12 UNL     1      13.009   7.518 -10.292  1.00  0.00    -0.388 OA
HETATM   47  H35 UNL     1      13.989   7.594 -10.206  1.00  0.00     0.210 HD
ENDBRANCH  36  46
BRANCH  37  48
HETATM   48  N3  UNL     1      11.251   6.510  -7.738  1.00  0.00    -0.297 N 
HETATM   49  C19 UNL     1      11.224   5.135  -7.751  1.00  0.00     0.188 A 
HETATM   50  N4  UNL     1      10.022   4.658  -7.514  1.00  0.00    -0.346 N 
HETATM   51  C20 UNL     1       9.231   5.779  -7.334  1.00  0.00     0.116 A 
HETATM   52  H4  UNL     1       9.736   3.680  -7.472  1.00  0.00     0.167 HD
HETATM   53  C21 UNL     1       7.873   5.945  -7.013  1.00  0.00     0.109 A 
HETATM   54  C23 UNL     1       9.972   6.933  -7.509  1.00  0.00     0.142 A 
HETATM   55  N5  UNL     1       7.378   7.203  -6.915  1.00  0.00    -0.341 N 
HETATM   56  C22 UNL     1       8.215   8.237  -7.136  1.00  0.00     0.183 A 
HETATM   57  H5  UNL     1       6.399   7.364  -6.680  1.00  0.00     0.167 HD
HETATM   58  N6  UNL     1       9.528   8.201  -7.440  1.00  0.00    -0.336 N 
HETATM   59  H6  UNL     1      10.109   9.025  -7.596  1.00  0.00     0.168 HD
BRANCH  53  60
HETATM   60  N7  UNL     1       7.005   4.886  -6.799  1.00  0.00    -0.287 NA
HETATM   61  H33 UNL     1       6.583   4.870  -5.873  1.00  0.00     0.125 HD
HETATM   62  H34 UNL     1       7.359   4.008  -7.153  1.00  0.00     0.125 HD
ENDBRANCH  53  60
ENDBRANCH  37  48
ENDBRANCH  33  34
ENDBRANCH  32  33
ENDBRANCH  28  32
ENDBRANCH  27  28
ENDBRANCH  23  27
ENDBRANCH  22  23
ENDBRANCH  21  22
ENDBRANCH  18  21
ENDBRANCH  17  18
BRANCH  17  63
HETATM   63  O17 UNL     1       7.513  14.158  -8.970  1.00  0.00    -0.385 OA
HETATM   64  H38 UNL     1       7.439  14.900  -9.594  1.00  0.00     0.210 HD
ENDBRANCH  17  63
ENDBRANCH  14  17
ENDBRANCH  12  13
ENDBRANCH  11  12
ENDBRANCH   8  11
ENDBRANCH   6   7
ENDBRANCH   5   6
ENDBRANCH   4   5
ENDBRANCH   2   4
TORSDOF 27
ENDMDL
MODEL 10
REMARK VINA RESULT:      -6.5      3.362      6.412
REMARK  27 active torsions:
REMARK  status: ('A' for Active; 'I' for Inactive)
REMARK    1  A    between atoms: C2_2  and  S1_4 
REMARK    2  A    between atoms: S1_4  and  C3_5 
REMARK    3  A    between atoms: C3_5  and  C4_6 
REMARK    4  A    between atoms: C4_6  and  N1_7 
REMARK       I    between atoms: N1_7  and  C5_8 
REMARK    5  A    between atoms: C5_8  and  C6_10 
REMARK    6  A    between atoms: C6_10  and  C7_11 
REMARK    7  A    between atoms: C7_11  and  N2_12 
REMARK       I    between atoms: N2_12  and  C8_13 
REMARK    8  A    between atoms: C8_13  and  C9_15 
REMARK    9  A    between atoms: C9_15  and  C10_16 
REMARK   10  A    between atoms: C9_15  and  O17_54 
REMARK   11  A    between atoms: C10_16  and  C13_19 
REMARK   12  A    between atoms: C13_19  and  O4_20 
REMARK   13  A    between atoms: O4_20  and  P1_21 
REMARK   14  A    between atoms: P1_21  and  O6_23 
REMARK   15  A    between atoms: P1_21  and  O7_24 
REMARK   16  A    between atoms: O7_24  and  P2_25 
REMARK   17  A    between atoms: P2_25  and  O9_27 
REMARK   18  A    between atoms: P2_25  and  O10_28 
REMARK   19  A    between atoms: O10_28  and  C14_29 
REMARK   20  A    between atoms: C14_29  and  C15_30 
REMARK   21  A    between atoms: C16_31  and  O13_49 
REMARK   22  A    between atoms: C17_32  and  O12_48 
REMARK   23  A    between atoms: C18_33  and  N3_35 
REMARK   24  A    between atoms: C21_40  and  N7_47 
REMARK   25  A    between atoms: O13_49  and  P3_50 
REMARK   26  A    between atoms: P3_50  and  O15_52 
REMARK   27  A    between atoms: P3_50  and  O16_53 
ROOT
HETATM    1  C1  UNL     1       4.074  13.843  -9.314  1.00  0.00     0.104 C 
HETATM    2  C2  UNL     1       3.768  12.666  -8.438  1.00  0.00     0.182 C 
HETATM    3  O1  UNL     1       2.625  12.283  -8.199  1.00  0.00    -0.286 OA
ENDROOT
BRANCH   2   4
HETATM    4  S1  UNL     1       5.184  11.895  -7.739  1.00  0.00    -0.091 SA
BRANCH   4   5
HETATM    5  C3  UNL     1       5.891  13.295  -6.812  1.00  0.00     0.102 C 
BRANCH   5   6
HETATM    6  C4  UNL     1       7.286  13.668  -7.318  1.00  0.00     0.133 C 
BRANCH   6   7
HETATM    7  N1  UNL     1       8.090  14.327  -6.310  1.00  0.00    -0.360 N 
HETATM    8  C5  UNL     1       9.404  13.983  -6.092  1.00  0.00     0.219 C 
HETATM    9  O2  UNL     1       9.948  13.052  -6.676  1.00  0.00    -0.274 OA
HETATM   10  H8  UNL     1       7.671  15.064  -5.759  1.00  0.00     0.162 HD
BRANCH   8  11
HETATM   11  C6  UNL     1      10.078  14.829  -5.034  1.00  0.00     0.122 C 
BRANCH  11  12
HETATM   12  C7  UNL     1      11.565  15.029  -5.325  1.00  0.00     0.132 C 
BRANCH  12  13
HETATM   13  N2  UNL     1      12.414  14.679  -4.205  1.00  0.00    -0.358 N 
HETATM   14  C8  UNL     1      12.970  13.416  -4.121  1.00  0.00     0.247 C 
HETATM   15  O3  UNL     1      12.680  12.522  -4.907  1.00  0.00    -0.271 OA
HETATM   16  H13 UNL     1      12.942  15.448  -3.799  1.00  0.00     0.162 HD
BRANCH  14  17
HETATM   17  C9  UNL     1      13.987  13.234  -2.985  1.00  0.00     0.219 C 
BRANCH  17  18
HETATM   18  C10 UNL     1      15.471  13.264  -3.438  1.00  0.00     0.009 C 
HETATM   19  C11 UNL     1      15.640  13.918  -4.818  1.00  0.00     0.020 C 
HETATM   20  C12 UNL     1      16.353  14.035  -2.436  1.00  0.00     0.020 C 
BRANCH  18  21
HETATM   21  C13 UNL     1      15.927  11.778  -3.504  1.00  0.00     0.192 C 
BRANCH  21  22
HETATM   22  O4  UNL     1      15.674  11.193  -4.766  1.00  0.00    -0.296 OA
BRANCH  22  23
HETATM   23  P1  UNL     1      15.430   9.621  -4.963  1.00  0.00     0.401 P 
HETATM   24  O5  UNL     1      13.988   9.221  -4.965  1.00  0.00    -0.631 OA
BRANCH  23  25
HETATM   25  O6  UNL     1      16.311   8.869  -3.845  1.00  0.00    -0.307 OA
HETATM   26  H23 UNL     1      17.109   8.474  -4.219  1.00  0.00     0.222 HD
ENDBRANCH  23  25
BRANCH  23  27
HETATM   27  O7  UNL     1      16.226   9.245  -6.288  1.00  0.00    -0.195 OA
BRANCH  27  28
HETATM   28  P2  UNL     1      16.211   7.733  -6.793  1.00  0.00     0.401 P 
HETATM   29  O8  UNL     1      17.516   7.154  -7.232  1.00  0.00    -0.631 OA
BRANCH  28  30
HETATM   30  O9  UNL     1      15.525   6.950  -5.582  1.00  0.00    -0.307 OA
HETATM   31  H24 UNL     1      14.954   7.516  -5.007  1.00  0.00     0.222 HD
ENDBRANCH  28  30
BRANCH  28  32
HETATM   32  O10 UNL     1      15.033   7.698  -7.871  1.00  0.00    -0.294 OA
BRANCH  32  33
HETATM   33  C14 UNL     1      15.177   8.378  -9.090  1.00  0.00     0.215 C 
BRANCH  33  34
HETATM   34  C15 UNL     1      13.782   8.872  -9.470  1.00  0.00     0.180 C 
HETATM   35  C16 UNL     1      13.308   9.905  -8.457  1.00  0.00     0.197 C 
HETATM   36  C17 UNL     1      12.072   9.289  -7.829  1.00  0.00     0.199 C 
HETATM   37  C18 UNL     1      11.591   8.339  -8.929  1.00  0.00     0.262 C 
HETATM   38  O11 UNL     1      12.809   7.823  -9.510  1.00  0.00    -0.353 OA
BRANCH  35  39
HETATM   39  O13 UNL     1      13.011  11.108  -9.159  1.00  0.00    -0.286 OA
BRANCH  39  40
HETATM   40  P3  UNL     1      13.681  12.434  -8.568  1.00  0.00     0.391 P 
HETATM   41  O14 UNL     1      14.178  13.376  -9.617  1.00  0.00    -0.632 OA
BRANCH  40  42
HETATM   42  O15 UNL     1      14.759  11.805  -7.568  1.00  0.00    -0.307 OA
HETATM   43  H36 UNL     1      15.162  10.992  -7.955  1.00  0.00     0.222 HD
ENDBRANCH  40  42
BRANCH  40  44
HETATM   44  O16 UNL     1      12.541  12.955  -7.591  1.00  0.00    -0.307 OA
HETATM   45  H37 UNL     1      12.799  12.916  -6.656  1.00  0.00     0.222 HD
ENDBRANCH  40  44
ENDBRANCH  39  40
ENDBRANCH  35  39
BRANCH  36  46
HETATM   46  O12 UNL     1      11.168  10.314  -7.405  1.00  0.00    -0.388 OA
HETATM   47  H35 UNL     1      10.765   9.996  -6.562  1.00  0.00     0.210 HD
ENDBRANCH  36  46
BRANCH  37  48
HETATM   48  N3  UNL     1      10.817   7.231  -8.407  1.00  0.00    -0.297 N 
HETATM   49  C19 UNL     1      11.247   5.940  -8.203  1.00  0.00     0.188 A 
HETATM   50  N4  UNL     1      10.341   5.203  -7.598  1.00  0.00    -0.346 N 
HETATM   51  C20 UNL     1       9.273   6.059  -7.395  1.00  0.00     0.116 A 
HETATM   52  H4  UNL     1      10.410   4.220  -7.336  1.00  0.00     0.167 HD
HETATM   53  C21 UNL     1       8.026   5.895  -6.767  1.00  0.00     0.109 A 
HETATM   54  C23 UNL     1       9.540   7.308  -7.926  1.00  0.00     0.142 A 
HETATM   55  N5  UNL     1       7.171   6.946  -6.739  1.00  0.00    -0.341 N 
HETATM   56  C22 UNL     1       7.557   8.099  -7.320  1.00  0.00     0.183 A 
HETATM   57  H5  UNL     1       6.258   6.866  -6.289  1.00  0.00     0.167 HD
HETATM   58  N6  UNL     1       8.723   8.376  -7.939  1.00  0.00    -0.336 N 
HETATM   59  H6  UNL     1       8.954   9.275  -8.361  1.00  0.00     0.168 HD
BRANCH  53  60
HETATM   60  N7  UNL     1       7.618   4.707  -6.181  1.00  0.00    -0.287 NA
HETATM   61  H33 UNL     1       7.578   3.917  -6.821  1.00  0.00     0.125 HD
HETATM   62  H34 UNL     1       6.834   4.826  -5.554  1.00  0.00     0.125 HD
ENDBRANCH  53  60
ENDBRANCH  37  48
ENDBRANCH  33  34
ENDBRANCH  32  33
ENDBRANCH  28  32
ENDBRANCH  27  28
ENDBRANCH  23  27
ENDBRANCH  22  23
ENDBRANCH  21  22
ENDBRANCH  18  21
ENDBRANCH  17  18
BRANCH  17  63
HETATM   63  O17 UNL     1      13.797  14.244  -1.987  1.00  0.00    -0.385 OA
HETATM   64  H38 UNL     1      13.138  14.876  -2.320  1.00  0.00     0.210 HD
ENDBRANCH  17  63
ENDBRANCH  14  17
ENDBRANCH  12  13
ENDBRANCH  11  12
ENDBRANCH   8  11
ENDBRANCH   6   7
ENDBRANCH   5   6
ENDBRANCH   4   5
ENDBRANCH   2   4
TORSDOF 27
ENDMDL
MODEL 11
REMARK VINA RESULT:      -6.4      4.027      6.945
REMARK  27 active torsions:
REMARK  status: ('A' for Active; 'I' for Inactive)
REMARK    1  A    between atoms: C2_2  and  S1_4 
REMARK    2  A    between atoms: S1_4  and  C3_5 
REMARK    3  A    between atoms: C3_5  and  C4_6 
REMARK    4  A    between atoms: C4_6  and  N1_7 
REMARK       I    between atoms: N1_7  and  C5_8 
REMARK    5  A    between atoms: C5_8  and  C6_10 
REMARK    6  A    between atoms: C6_10  and  C7_11 
REMARK    7  A    between atoms: C7_11  and  N2_12 
REMARK       I    between atoms: N2_12  and  C8_13 
REMARK    8  A    between atoms: C8_13  and  C9_15 
REMARK    9  A    between atoms: C9_15  and  C10_16 
REMARK   10  A    between atoms: C9_15  and  O17_54 
REMARK   11  A    between atoms: C10_16  and  C13_19 
REMARK   12  A    between atoms: C13_19  and  O4_20 
REMARK   13  A    between atoms: O4_20  and  P1_21 
REMARK   14  A    between atoms: P1_21  and  O6_23 
REMARK   15  A    between atoms: P1_21  and  O7_24 
REMARK   16  A    between atoms: O7_24  and  P2_25 
REMARK   17  A    between atoms: P2_25  and  O9_27 
REMARK   18  A    between atoms: P2_25  and  O10_28 
REMARK   19  A    between atoms: O10_28  and  C14_29 
REMARK   20  A    between atoms: C14_29  and  C15_30 
REMARK   21  A    between atoms: C16_31  and  O13_49 
REMARK   22  A    between atoms: C17_32  and  O12_48 
REMARK   23  A    between atoms: C18_33  and  N3_35 
REMARK   24  A    between atoms: C21_40  and  N7_47 
REMARK   25  A    between atoms: O13_49  and  P3_50 
REMARK   26  A    between atoms: P3_50  and  O15_52 
REMARK   27  A    between atoms: P3_50  and  O16_53 
ROOT
HETATM    1  C1  UNL     1       7.788   5.904  -3.933  1.00  0.00     0.104 C 
HETATM    2  C2  UNL     1       7.915   7.098  -4.829  1.00  0.00     0.182 C 
HETATM    3  O1  UNL     1       8.035   8.247  -4.410  1.00  0.00    -0.286 OA
ENDROOT
BRANCH   2   4
HETATM    4  S1  UNL     1       7.836   6.727  -6.546  1.00  0.00    -0.091 SA
BRANCH   4   5
HETATM    5  C3  UNL     1       9.339   5.713  -6.727  1.00  0.00     0.102 C 
BRANCH   5   6
HETATM    6  C4  UNL     1      10.099   6.043  -8.013  1.00  0.00     0.133 C 
BRANCH   6   7
HETATM    7  N1  UNL     1      11.439   6.531  -7.762  1.00  0.00    -0.360 N 
HETATM    8  C5  UNL     1      11.740   7.873  -7.802  1.00  0.00     0.219 C 
HETATM    9  O2  UNL     1      10.921   8.724  -8.128  1.00  0.00    -0.274 OA
HETATM   10  H8  UNL     1      12.167   5.864  -7.544  1.00  0.00     0.162 HD
BRANCH   8  11
HETATM   11  C6  UNL     1      13.182   8.174  -7.455  1.00  0.00     0.122 C 
BRANCH  11  12
HETATM   12  C7  UNL     1      13.755   9.296  -8.320  1.00  0.00     0.132 C 
BRANCH  12  13
HETATM   13  N2  UNL     1      14.080  10.487  -7.563  1.00  0.00    -0.358 N 
HETATM   14  C8  UNL     1      14.909  11.452  -8.105  1.00  0.00     0.247 C 
HETATM   15  O3  UNL     1      15.486  11.291  -9.172  1.00  0.00    -0.271 OA
HETATM   16  H13 UNL     1      13.364  10.800  -6.911  1.00  0.00     0.162 HD
BRANCH  14  17
HETATM   17  C9  UNL     1      15.028  12.739  -7.274  1.00  0.00     0.219 C 
BRANCH  17  18
HETATM   18  C10 UNL     1      14.387  13.989  -7.931  1.00  0.00     0.009 C 
HETATM   19  C11 UNL     1      14.289  15.170  -6.953  1.00  0.00     0.020 C 
HETATM   20  C12 UNL     1      15.191  14.456  -9.161  1.00  0.00     0.020 C 
BRANCH  18  21
HETATM   21  C13 UNL     1      12.959  13.556  -8.371  1.00  0.00     0.192 C 
BRANCH  21  22
HETATM   22  O4  UNL     1      11.961  14.003  -7.475  1.00  0.00    -0.296 OA
BRANCH  22  23
HETATM   23  P1  UNL     1      11.108  13.007  -6.553  1.00  0.00     0.401 P 
HETATM   24  O5  UNL     1      11.510  13.012  -5.112  1.00  0.00    -0.631 OA
BRANCH  23  25
HETATM   25  O6  UNL     1      11.184  11.554  -7.244  1.00  0.00    -0.307 OA
HETATM   26  H23 UNL     1      10.461  10.981  -6.960  1.00  0.00     0.222 HD
ENDBRANCH  23  25
BRANCH  23  27
HETATM   27  O7  UNL     1       9.589  13.397  -6.821  1.00  0.00    -0.195 OA
BRANCH  27  28
HETATM   28  P2  UNL     1       9.134  14.908  -6.606  1.00  0.00     0.401 P 
HETATM   29  O8  UNL     1       9.467  15.535  -5.292  1.00  0.00    -0.631 OA
BRANCH  28  30
HETATM   30  O9  UNL     1       9.761  15.663  -7.866  1.00  0.00    -0.307 OA
HETATM   31  H24 UNL     1       9.168  16.347  -8.263  1.00  0.00     0.222 HD
ENDBRANCH  28  30
BRANCH  28  32
HETATM   32  O10 UNL     1       7.587  14.906  -7.006  1.00  0.00    -0.294 OA
BRANCH  32  33
HETATM   33  C14 UNL     1       6.846  13.716  -6.935  1.00  0.00     0.215 C 
BRANCH  33  34
HETATM   34  C15 UNL     1       6.547  13.313  -8.378  1.00  0.00     0.180 C 
HETATM   35  C16 UNL     1       5.603  14.327  -9.011  1.00  0.00     0.197 C 
HETATM   36  C17 UNL     1       4.356  13.532  -9.349  1.00  0.00     0.199 C 
HETATM   37  C18 UNL     1       4.908  12.112  -9.495  1.00  0.00     0.262 C 
HETATM   38  O11 UNL     1       5.934  12.023  -8.482  1.00  0.00    -0.353 OA
BRANCH  35  39
HETATM   39  O13 UNL     1       6.236  14.853 -10.173  1.00  0.00    -0.286 OA
BRANCH  39  40
HETATM   40  P3  UNL     1       6.311  16.448 -10.254  1.00  0.00     0.391 P 
HETATM   41  O14 UNL     1       6.963  16.957 -11.499  1.00  0.00    -0.632 OA
BRANCH  40  42
HETATM   42  O15 UNL     1       7.015  16.785  -8.858  1.00  0.00    -0.307 OA
HETATM   43  H36 UNL     1       7.988  16.631  -8.911  1.00  0.00     0.222 HD
ENDBRANCH  40  42
BRANCH  40  44
HETATM   44  O16 UNL     1       4.793  16.849 -10.001  1.00  0.00    -0.307 OA
HETATM   45  H37 UNL     1       4.685  17.463  -9.257  1.00  0.00     0.222 HD
ENDBRANCH  40  44
ENDBRANCH  39  40
ENDBRANCH  35  39
BRANCH  36  46
HETATM   46  O12 UNL     1       3.698  14.101 -10.484  1.00  0.00    -0.388 OA
HETATM   47  H35 UNL     1       3.480  13.348 -11.085  1.00  0.00     0.210 HD
ENDBRANCH  36  46
BRANCH  37  48
HETATM   48  N3  UNL     1       3.907  11.097  -9.235  1.00  0.00    -0.297 N 
HETATM   49  C19 UNL     1       3.521  10.076 -10.072  1.00  0.00     0.188 A 
HETATM   50  N4  UNL     1       2.681   9.246  -9.493  1.00  0.00    -0.346 N 
HETATM   51  C20 UNL     1       2.517   9.752  -8.215  1.00  0.00     0.116 A 
HETATM   52  H4  UNL     1       2.247   8.416  -9.895  1.00  0.00     0.167 HD
HETATM   53  C21 UNL     1       1.785   9.306  -7.101  1.00  0.00     0.109 A 
HETATM   54  C23 UNL     1       3.240  10.920  -8.055  1.00  0.00     0.142 A 
HETATM   55  N5  UNL     1       1.819  10.044  -5.965  1.00  0.00    -0.341 N 
HETATM   56  C22 UNL     1       2.550  11.176  -5.961  1.00  0.00     0.183 A 
HETATM   57  H5  UNL     1       1.304   9.750  -5.135  1.00  0.00     0.167 HD
HETATM   58  N6  UNL     1       3.294  11.696  -6.958  1.00  0.00    -0.336 N 
HETATM   59  H6  UNL     1       3.828  12.563  -6.890  1.00  0.00     0.168 HD
BRANCH  53  60
HETATM   60  N7  UNL     1       1.020   8.150  -7.104  1.00  0.00    -0.287 NA
HETATM   61  H33 UNL     1       1.058   7.620  -6.237  1.00  0.00     0.125 HD
HETATM   62  H34 UNL     1       1.103   7.624  -7.964  1.00  0.00     0.125 HD
ENDBRANCH  53  60
ENDBRANCH  37  48
ENDBRANCH  33  34
ENDBRANCH  32  33
ENDBRANCH  28  32
ENDBRANCH  27  28
ENDBRANCH  23  27
ENDBRANCH  22  23
ENDBRANCH  21  22
ENDBRANCH  18  21
ENDBRANCH  17  18
BRANCH  17  63
HETATM   63  O17 UNL     1      14.436  12.549  -5.984  1.00  0.00    -0.385 OA
HETATM   64  H38 UNL     1      14.969  13.035  -5.333  1.00  0.00     0.210 HD
ENDBRANCH  17  63
ENDBRANCH  14  17
ENDBRANCH  12  13
ENDBRANCH  11  12
ENDBRANCH   8  11
ENDBRANCH   6   7
ENDBRANCH   5   6
ENDBRANCH   4   5
ENDBRANCH   2   4
TORSDOF 27
ENDMDL
MODEL 12
REMARK VINA RESULT:      -6.2      3.723      9.442
REMARK  27 active torsions:
REMARK  status: ('A' for Active; 'I' for Inactive)
REMARK    1  A    between atoms: C2_2  and  S1_4 
REMARK    2  A    between atoms: S1_4  and  C3_5 
REMARK    3  A    between atoms: C3_5  and  C4_6 
REMARK    4  A    between atoms: C4_6  and  N1_7 
REMARK       I    between atoms: N1_7  and  C5_8 
REMARK    5  A    between atoms: C5_8  and  C6_10 
REMARK    6  A    between atoms: C6_10  and  C7_11 
REMARK    7  A    between atoms: C7_11  and  N2_12 
REMARK       I    between atoms: N2_12  and  C8_13 
REMARK    8  A    between atoms: C8_13  and  C9_15 
REMARK    9  A    between atoms: C9_15  and  C10_16 
REMARK   10  A    between atoms: C9_15  and  O17_54 
REMARK   11  A    between atoms: C10_16  and  C13_19 
REMARK   12  A    between atoms: C13_19  and  O4_20 
REMARK   13  A    between atoms: O4_20  and  P1_21 
REMARK   14  A    between atoms: P1_21  and  O6_23 
REMARK   15  A    between atoms: P1_21  and  O7_24 
REMARK   16  A    between atoms: O7_24  and  P2_25 
REMARK   17  A    between atoms: P2_25  and  O9_27 
REMARK   18  A    between atoms: P2_25  and  O10_28 
REMARK   19  A    between atoms: O10_28  and  C14_29 
REMARK   20  A    between atoms: C14_29  and  C15_30 
REMARK   21  A    between atoms: C16_31  and  O13_49 
REMARK   22  A    between atoms: C17_32  and  O12_48 
REMARK   23  A    between atoms: C18_33  and  N3_35 
REMARK   24  A    between atoms: C21_40  and  N7_47 
REMARK   25  A    between atoms: O13_49  and  P3_50 
REMARK   26  A    between atoms: P3_50  and  O15_52 
REMARK   27  A    between atoms: P3_50  and  O16_53 
ROOT
HETATM    1  C1  UNL     1      10.407   8.903  -7.157  1.00  0.00     0.104 C 
HETATM    2  C2  UNL     1      10.350   7.713  -8.066  1.00  0.00     0.182 C 
HETATM    3  O1  UNL     1      10.479   7.789  -9.286  1.00  0.00    -0.286 OA
ENDROOT
BRANCH   2   4
HETATM    4  S1  UNL     1      10.043   6.189  -7.246  1.00  0.00    -0.091 SA
BRANCH   4   5
HETATM    5  C3  UNL     1       8.221   6.168  -7.273  1.00  0.00     0.102 C 
BRANCH   5   6
HETATM    6  C4  UNL     1       7.626   7.297  -6.428  1.00  0.00     0.133 C 
BRANCH   6   7
HETATM    7  N1  UNL     1       6.391   7.816  -6.979  1.00  0.00    -0.360 N 
HETATM    8  C5  UNL     1       6.294   9.103  -7.455  1.00  0.00     0.219 C 
HETATM    9  O2  UNL     1       7.214   9.909  -7.370  1.00  0.00    -0.274 OA
HETATM   10  H8  UNL     1       5.583   7.209  -7.018  1.00  0.00     0.162 HD
BRANCH   8  11
HETATM   11  C6  UNL     1       4.935   9.426  -8.037  1.00  0.00     0.122 C 
BRANCH  11  12
HETATM   12  C7  UNL     1       4.423  10.788  -7.569  1.00  0.00     0.132 C 
BRANCH  12  13
HETATM   13  N2  UNL     1       5.261  11.888  -8.001  1.00  0.00    -0.358 N 
HETATM   14  C8  UNL     1       5.650  12.862  -7.100  1.00  0.00     0.247 C 
HETATM   15  O3  UNL     1       5.216  12.903  -5.956  1.00  0.00    -0.271 OA
HETATM   16  H13 UNL     1       5.900  11.678  -8.765  1.00  0.00     0.162 HD
BRANCH  14  17
HETATM   17  C9  UNL     1       6.677  13.868  -7.643  1.00  0.00     0.219 C 
BRANCH  17  18
HETATM   18  C10 UNL     1       6.100  14.893  -8.654  1.00  0.00     0.009 C 
HETATM   19  C11 UNL     1       5.916  14.285 -10.053  1.00  0.00     0.020 C 
HETATM   20  C12 UNL     1       4.735  15.438  -8.190  1.00  0.00     0.020 C 
BRANCH  18  21
HETATM   21  C13 UNL     1       7.134  16.054  -8.721  1.00  0.00     0.192 C 
BRANCH  21  22
HETATM   22  O4  UNL     1       8.444  15.594  -8.986  1.00  0.00    -0.296 OA
BRANCH  22  23
HETATM   23  P1  UNL     1       9.734  16.149  -8.214  1.00  0.00     0.401 P 
HETATM   24  O5  UNL     1       9.423  16.866  -6.938  1.00  0.00    -0.631 OA
BRANCH  23  25
HETATM   25  O6  UNL     1      10.563  17.036  -9.272  1.00  0.00    -0.307 OA
HETATM   26  H23 UNL     1      11.317  16.554  -9.635  1.00  0.00     0.222 HD
ENDBRANCH  23  25
BRANCH  23  27
HETATM   27  O7  UNL     1      10.690  14.888  -8.052  1.00  0.00    -0.195 OA
BRANCH  27  28
HETATM   28  P2  UNL     1      12.265  15.095  -8.173  1.00  0.00     0.401 P 
HETATM   29  O8  UNL     1      12.838  15.139  -9.551  1.00  0.00    -0.631 OA
BRANCH  28  30
HETATM   30  O9  UNL     1      12.528  16.417  -7.316  1.00  0.00    -0.307 OA
HETATM   31  H24 UNL     1      13.286  16.344  -6.685  1.00  0.00     0.222 HD
ENDBRANCH  28  30
BRANCH  28  32
HETATM   32  O10 UNL     1      12.876  13.987  -7.198  1.00  0.00    -0.294 OA
BRANCH  32  33
HETATM   33  C14 UNL     1      13.269  14.336  -5.897  1.00  0.00     0.215 C 
BRANCH  33  34
HETATM   34  C15 UNL     1      13.157  13.061  -5.061  1.00  0.00     0.180 C 
HETATM   35  C16 UNL     1      14.476  12.793  -4.351  1.00  0.00     0.197 C 
HETATM   36  C17 UNL     1      14.948  11.462  -4.904  1.00  0.00     0.199 C 
HETATM   37  C18 UNL     1      13.633  10.809  -5.338  1.00  0.00     0.262 C 
HETATM   38  O11 UNL     1      12.841  11.905  -5.845  1.00  0.00    -0.353 OA
BRANCH  35  39
HETATM   39  O13 UNL     1      14.219  12.732  -2.952  1.00  0.00    -0.286 OA
BRANCH  39  40
HETATM   40  P3  UNL     1      15.087  13.725  -2.048  1.00  0.00     0.391 P 
HETATM   41  O14 UNL     1      14.305  14.385  -0.958  1.00  0.00    -0.632 OA
BRANCH  40  42
HETATM   42  O15 UNL     1      15.732  14.665  -3.170  1.00  0.00    -0.307 OA
HETATM   43  H36 UNL     1      15.167  15.459  -3.327  1.00  0.00     0.222 HD
ENDBRANCH  40  42
BRANCH  40  44
HETATM   44  O16 UNL     1      16.298  12.787  -1.621  1.00  0.00    -0.307 OA
HETATM   45  H37 UNL     1      16.357  11.982  -2.159  1.00  0.00     0.222 HD
ENDBRANCH  40  44
ENDBRANCH  39  40
ENDBRANCH  35  39
BRANCH  36  46
HETATM   46  O12 UNL     1      15.735  10.770  -3.931  1.00  0.00    -0.388 OA
HETATM   47  H35 UNL     1      15.108  10.467  -3.231  1.00  0.00     0.210 HD
ENDBRANCH  36  46
BRANCH  37  48
HETATM   48  N3  UNL     1      13.817   9.837  -6.397  1.00  0.00    -0.297 N 
HETATM   49  C19 UNL     1      13.819   8.467  -6.276  1.00  0.00     0.188 A 
HETATM   50  N4  UNL     1      13.883   7.864  -7.443  1.00  0.00    -0.346 N 
HETATM   51  C20 UNL     1      13.920   8.894  -8.367  1.00  0.00     0.116 A 
HETATM   52  H4  UNL     1      13.902   6.861  -7.627  1.00  0.00     0.167 HD
HETATM   53  C21 UNL     1      13.949   8.913  -9.772  1.00  0.00     0.109 A 
HETATM   54  C23 UNL     1      13.919  10.122  -7.730  1.00  0.00     0.142 A 
HETATM   55  N5  UNL     1      13.992  10.112 -10.404  1.00  0.00    -0.341 N 
HETATM   56  C22 UNL     1      14.010  11.230  -9.651  1.00  0.00     0.183 A 
HETATM   57  H5  UNL     1      14.010  10.166 -11.422  1.00  0.00     0.167 HD
HETATM   58  N6  UNL     1      13.977  11.335  -8.307  1.00  0.00    -0.336 N 
HETATM   59  H6  UNL     1      13.993  12.218  -7.795  1.00  0.00     0.168 HD
BRANCH  53  60
HETATM   60  N7  UNL     1      13.945   7.767 -10.550  1.00  0.00    -0.287 NA
HETATM   61  H33 UNL     1      13.292   7.051 -10.239  1.00  0.00     0.125 HD
HETATM   62  H34 UNL     1      14.875   7.457 -10.801  1.00  0.00     0.125 HD
ENDBRANCH  53  60
ENDBRANCH  37  48
ENDBRANCH  33  34
ENDBRANCH  32  33
ENDBRANCH  28  32
ENDBRANCH  27  28
ENDBRANCH  23  27
ENDBRANCH  22  23
ENDBRANCH  21  22
ENDBRANCH  18  21
ENDBRANCH  17  18
BRANCH  17  63
HETATM   63  O17 UNL     1       7.281  14.586  -6.562  1.00  0.00    -0.385 OA
HETATM   64  H38 UNL     1       8.235  14.651  -6.739  1.00  0.00     0.210 HD
ENDBRANCH  17  63
ENDBRANCH  14  17
ENDBRANCH  12  13
ENDBRANCH  11  12
ENDBRANCH   8  11
ENDBRANCH   6   7
ENDBRANCH   5   6
ENDBRANCH   4   5
ENDBRANCH   2   4
TORSDOF 27
ENDMDL
MODEL 13
REMARK VINA RESULT:      -6.2      2.566      7.794
REMARK  27 active torsions:
REMARK  status: ('A' for Active; 'I' for Inactive)
REMARK    1  A    between atoms: C2_2  and  S1_4 
REMARK    2  A    between atoms: S1_4  and  C3_5 
REMARK    3  A    between atoms: C3_5  and  C4_6 
REMARK    4  A    between atoms: C4_6  and  N1_7 
REMARK       I    between atoms: N1_7  and  C5_8 
REMARK    5  A    between atoms: C5_8  and  C6_10 
REMARK    6  A    between atoms: C6_10  and  C7_11 
REMARK    7  A    between atoms: C7_11  and  N2_12 
REMARK       I    between atoms: N2_12  and  C8_13 
REMARK    8  A    between atoms: C8_13  and  C9_15 
REMARK    9  A    between atoms: C9_15  and  C10_16 
REMARK   10  A    between atoms: C9_15  and  O17_54 
REMARK   11  A    between atoms: C10_16  and  C13_19 
REMARK   12  A    between atoms: C13_19  and  O4_20 
REMARK   13  A    between atoms: O4_20  and  P1_21 
REMARK   14  A    between atoms: P1_21  and  O6_23 
REMARK   15  A    between atoms: P1_21  and  O7_24 
REMARK   16  A    between atoms: O7_24  and  P2_25 
REMARK   17  A    between atoms: P2_25  and  O9_27 
REMARK   18  A    between atoms: P2_25  and  O10_28 
REMARK   19  A    between atoms: O10_28  and  C14_29 
REMARK   20  A    between atoms: C14_29  and  C15_30 
REMARK   21  A    between atoms: C16_31  and  O13_49 
REMARK   22  A    between atoms: C17_32  and  O12_48 
REMARK   23  A    between atoms: C18_33  and  N3_35 
REMARK   24  A    between atoms: C21_40  and  N7_47 
REMARK   25  A    between atoms: O13_49  and  P3_50 
REMARK   26  A    between atoms: P3_50  and  O15_52 
REMARK   27  A    between atoms: P3_50  and  O16_53 
ROOT
HETATM    1  C1  UNL     1       5.006  11.245 -10.398  1.00  0.00     0.104 C 
HETATM    2  C2  UNL     1       3.569  11.008 -10.046  1.00  0.00     0.182 C 
HETATM    3  O1  UNL     1       2.944  10.012 -10.403  1.00  0.00    -0.286 OA
ENDROOT
BRANCH   2   4
HETATM    4  S1  UNL     1       2.830  12.298  -9.108  1.00  0.00    -0.091 SA
BRANCH   4   5
HETATM    5  C3  UNL     1       2.332  13.428 -10.447  1.00  0.00     0.102 C 
BRANCH   5   6
HETATM    6  C4  UNL     1       3.234  14.662 -10.516  1.00  0.00     0.133 C 
BRANCH   6   7
HETATM    7  N1  UNL     1       4.292  14.637  -9.527  1.00  0.00    -0.360 N 
HETATM    8  C5  UNL     1       5.610  14.829  -9.872  1.00  0.00     0.219 C 
HETATM    9  O2  UNL     1       5.977  14.951 -11.035  1.00  0.00    -0.274 OA
HETATM   10  H8  UNL     1       4.049  14.482  -8.558  1.00  0.00     0.162 HD
BRANCH   8  11
HETATM   11  C6  UNL     1       6.548  14.820  -8.684  1.00  0.00     0.122 C 
BRANCH  11  12
HETATM   12  C7  UNL     1       6.033  13.925  -7.557  1.00  0.00     0.132 C 
BRANCH  12  13
HETATM   13  N2  UNL     1       7.088  13.200  -6.882  1.00  0.00    -0.358 N 
HETATM   14  C8  UNL     1       6.830  11.968  -6.308  1.00  0.00     0.247 C 
HETATM   15  O3  UNL     1       5.699  11.505  -6.242  1.00  0.00    -0.271 OA
HETATM   16  H13 UNL     1       8.028  13.358  -7.241  1.00  0.00     0.162 HD
BRANCH  14  17
HETATM   17  C9  UNL     1       8.070  11.229  -5.783  1.00  0.00     0.219 C 
BRANCH  17  18
HETATM   18  C10 UNL     1       8.212   9.770  -6.291  1.00  0.00     0.009 C 
HETATM   19  C11 UNL     1       7.858   8.743  -5.205  1.00  0.00     0.020 C 
HETATM   20  C12 UNL     1       7.304   9.505  -7.510  1.00  0.00     0.020 C 
BRANCH  18  21
HETATM   21  C13 UNL     1       9.703   9.604  -6.701  1.00  0.00     0.192 C 
BRANCH  21  22
HETATM   22  O4  UNL     1       9.875   8.651  -7.731  1.00  0.00    -0.296 OA
BRANCH  22  23
HETATM   23  P1  UNL     1      10.749   7.319  -7.548  1.00  0.00     0.401 P 
HETATM   24  O5  UNL     1      10.691   6.384  -8.715  1.00  0.00    -0.631 OA
BRANCH  23  25
HETATM   25  O6  UNL     1      10.292   6.651  -6.157  1.00  0.00    -0.307 OA
HETATM   26  H23 UNL     1       9.422   6.960  -5.876  1.00  0.00     0.222 HD
ENDBRANCH  23  25
BRANCH  23  27
HETATM   27  O7  UNL     1      12.209   7.833  -7.180  1.00  0.00    -0.195 OA
BRANCH  27  28
HETATM   28  P2  UNL     1      13.104   8.493  -8.321  1.00  0.00     0.401 P 
HETATM   29  O8  UNL     1      13.262   7.718  -9.589  1.00  0.00    -0.631 OA
BRANCH  28  30
HETATM   30  O9  UNL     1      12.445   9.934  -8.517  1.00  0.00    -0.307 OA
HETATM   31  H24 UNL     1      11.475   9.963  -8.333  1.00  0.00     0.222 HD
ENDBRANCH  28  30
BRANCH  28  32
HETATM   32  O10 UNL     1      14.457   8.887  -7.571  1.00  0.00    -0.294 OA
BRANCH  32  33
HETATM   33  C14 UNL     1      15.387   9.731  -8.198  1.00  0.00     0.215 C 
BRANCH  33  34
HETATM   34  C15 UNL     1      15.585  10.920  -7.259  1.00  0.00     0.180 C 
HETATM   35  C16 UNL     1      15.216  10.520  -5.836  1.00  0.00     0.197 C 
HETATM   36  C17 UNL     1      14.051  11.421  -5.474  1.00  0.00     0.199 C 
HETATM   37  C18 UNL     1      14.278  12.627  -6.389  1.00  0.00     0.262 C 
HETATM   38  O11 UNL     1      14.785  12.053  -7.614  1.00  0.00    -0.353 OA
BRANCH  35  39
HETATM   39  O13 UNL     1      16.349  10.747  -5.005  1.00  0.00    -0.286 OA
BRANCH  39  40
HETATM   40  P3  UNL     1      16.854   9.483  -4.167  1.00  0.00     0.391 P 
HETATM   41  O14 UNL     1      18.282   9.577  -3.736  1.00  0.00    -0.632 OA
BRANCH  40  42
HETATM   42  O15 UNL     1      16.455   8.290  -5.155  1.00  0.00    -0.307 OA
HETATM   43  H36 UNL     1      15.594   8.477  -5.598  1.00  0.00     0.222 HD
ENDBRANCH  40  42
BRANCH  40  44
HETATM   44  O16 UNL     1      15.746   9.397  -3.029  1.00  0.00    -0.307 OA
HETATM   45  H37 UNL     1      15.777   8.562  -2.536  1.00  0.00     0.222 HD
ENDBRANCH  40  44
ENDBRANCH  39  40
ENDBRANCH  35  39
BRANCH  36  46
HETATM   46  O12 UNL     1      14.030  11.662  -4.064  1.00  0.00    -0.388 OA
HETATM   47  H35 UNL     1      13.205  12.172  -3.881  1.00  0.00     0.210 HD
ENDBRANCH  36  46
BRANCH  37  48
HETATM   48  N3  UNL     1      13.052  13.342  -6.681  1.00  0.00    -0.297 N 
HETATM   49  C19 UNL     1      12.336  13.319  -7.855  1.00  0.00     0.188 A 
HETATM   50  N4  UNL     1      11.201  13.976  -7.759  1.00  0.00    -0.346 N 
HETATM   51  C20 UNL     1      11.178  14.445  -6.458  1.00  0.00     0.116 A 
HETATM   52  H4  UNL     1      10.495  14.111  -8.483  1.00  0.00     0.167 HD
HETATM   53  C21 UNL     1      10.226  15.175  -5.725  1.00  0.00     0.109 A 
HETATM   54  C23 UNL     1      12.337  14.093  -5.791  1.00  0.00     0.142 A 
HETATM   55  N5  UNL     1      10.507  15.499  -4.439  1.00  0.00    -0.341 N 
HETATM   56  C22 UNL     1      11.690  15.108  -3.926  1.00  0.00     0.183 A 
HETATM   57  H5  UNL     1       9.840  16.026  -3.875  1.00  0.00     0.167 HD
HETATM   58  N6  UNL     1      12.671  14.402  -4.525  1.00  0.00    -0.336 N 
HETATM   59  H6  UNL     1      13.548  14.137  -4.078  1.00  0.00     0.168 HD
BRANCH  53  60
HETATM   60  N7  UNL     1       9.014  15.593  -6.252  1.00  0.00    -0.287 NA
HETATM   61  H33 UNL     1       8.278  14.892  -6.214  1.00  0.00     0.125 HD
HETATM   62  H34 UNL     1       9.116  16.101  -7.120  1.00  0.00     0.125 HD
ENDBRANCH  53  60
ENDBRANCH  37  48
ENDBRANCH  33  34
ENDBRANCH  32  33
ENDBRANCH  28  32
ENDBRANCH  27  28
ENDBRANCH  23  27
ENDBRANCH  22  23
ENDBRANCH  21  22
ENDBRANCH  18  21
ENDBRANCH  17  18
BRANCH  17  63
HETATM   63  O17 UNL     1       9.258  11.949  -6.133  1.00  0.00    -0.385 OA
HETATM   64  H38 UNL     1       9.354  12.692  -5.513  1.00  0.00     0.210 HD
ENDBRANCH  17  63
ENDBRANCH  14  17
ENDBRANCH  12  13
ENDBRANCH  11  12
ENDBRANCH   8  11
ENDBRANCH   6   7
ENDBRANCH   5   6
ENDBRANCH   4   5
ENDBRANCH   2   4
TORSDOF 27
ENDMDL
MODEL 14
REMARK VINA RESULT:      -6.2      3.275      7.313
REMARK  27 active torsions:
REMARK  status: ('A' for Active; 'I' for Inactive)
REMARK    1  A    between atoms: C2_2  and  S1_4 
REMARK    2  A    between atoms: S1_4  and  C3_5 
REMARK    3  A    between atoms: C3_5  and  C4_6 
REMARK    4  A    between atoms: C4_6  and  N1_7 
REMARK       I    between atoms: N1_7  and  C5_8 
REMARK    5  A    between atoms: C5_8  and  C6_10 
REMARK    6  A    between atoms: C6_10  and  C7_11 
REMARK    7  A    between atoms: C7_11  and  N2_12 
REMARK       I    between atoms: N2_12  and  C8_13 
REMARK    8  A    between atoms: C8_13  and  C9_15 
REMARK    9  A    between atoms: C9_15  and  C10_16 
REMARK   10  A    between atoms: C9_15  and  O17_54 
REMARK   11  A    between atoms: C10_16  and  C13_19 
REMARK   12  A    between atoms: C13_19  and  O4_20 
REMARK   13  A    between atoms: O4_20  and  P1_21 
REMARK   14  A    between atoms: P1_21  and  O6_23 
REMARK   15  A    between atoms: P1_21  and  O7_24 
REMARK   16  A    between atoms: O7_24  and  P2_25 
REMARK   17  A    between atoms: P2_25  and  O9_27 
REMARK   18  A    between atoms: P2_25  and  O10_28 
REMARK   19  A    between atoms: O10_28  and  C14_29 
REMARK   20  A    between atoms: C14_29  and  C15_30 
REMARK   21  A    between atoms: C16_31  and  O13_49 
REMARK   22  A    between atoms: C17_32  and  O12_48 
REMARK   23  A    between atoms: C18_33  and  N3_35 
REMARK   24  A    between atoms: C21_40  and  N7_47 
REMARK   25  A    between atoms: O13_49  and  P3_50 
REMARK   26  A    between atoms: P3_50  and  O15_52 
REMARK   27  A    between atoms: P3_50  and  O16_53 
ROOT
HETATM    1  C1  UNL     1       2.575   8.856  -8.913  1.00  0.00     0.104 C 
HETATM    2  C2  UNL     1       1.881   9.526  -7.767  1.00  0.00     0.182 C 
HETATM    3  O1  UNL     1       0.742   9.238  -7.407  1.00  0.00    -0.286 OA
ENDROOT
BRANCH   2   4
HETATM    4  S1  UNL     1       2.818  10.797  -6.994  1.00  0.00    -0.091 SA
BRANCH   4   5
HETATM    5  C3  UNL     1       3.386  11.718  -8.461  1.00  0.00     0.102 C 
BRANCH   5   6
HETATM    6  C4  UNL     1       4.892  11.568  -8.679  1.00  0.00     0.133 C 
BRANCH   6   7
HETATM    7  N1  UNL     1       5.675  12.222  -7.651  1.00  0.00    -0.360 N 
HETATM    8  C5  UNL     1       6.501  13.284  -7.935  1.00  0.00     0.219 C 
HETATM    9  O2  UNL     1       6.688  13.688  -9.077  1.00  0.00    -0.274 OA
HETATM   10  H8  UNL     1       5.602  11.889  -6.699  1.00  0.00     0.162 HD
BRANCH   8  11
HETATM   11  C6  UNL     1       7.184  13.856  -6.711  1.00  0.00     0.122 C 
BRANCH  11  12
HETATM   12  C7  UNL     1       8.522  14.508  -7.057  1.00  0.00     0.132 C 
BRANCH  12  13
HETATM   13  N2  UNL     1       9.466  14.482  -5.959  1.00  0.00    -0.358 N 
HETATM   14  C8  UNL     1      10.230  13.354  -5.724  1.00  0.00     0.247 C 
HETATM   15  O3  UNL     1      10.061  12.311  -6.342  1.00  0.00    -0.271 OA
HETATM   16  H13 UNL     1       9.875  15.381  -5.712  1.00  0.00     0.162 HD
BRANCH  14  17
HETATM   17  C9  UNL     1      11.312  13.522  -4.646  1.00  0.00     0.219 C 
BRANCH  17  18
HETATM   18  C10 UNL     1      12.721  13.866  -5.198  1.00  0.00     0.009 C 
HETATM   19  C11 UNL     1      12.834  13.595  -6.706  1.00  0.00     0.020 C 
HETATM   20  C12 UNL     1      13.078  15.346  -4.954  1.00  0.00     0.020 C 
BRANCH  18  21
HETATM   21  C13 UNL     1      13.716  12.952  -4.427  1.00  0.00     0.192 C 
BRANCH  21  22
HETATM   22  O4  UNL     1      14.508  12.167  -5.295  1.00  0.00    -0.296 OA
BRANCH  22  23
HETATM   23  P1  UNL     1      14.975  10.675  -4.936  1.00  0.00     0.401 P 
HETATM   24  O5  UNL     1      13.871   9.665  -4.965  1.00  0.00    -0.631 OA
BRANCH  23  25
HETATM   25  O6  UNL     1      15.746  10.755  -3.526  1.00  0.00    -0.307 OA
HETATM   26  H23 UNL     1      15.871  11.667  -3.233  1.00  0.00     0.222 HD
ENDBRANCH  23  25
BRANCH  23  27
HETATM   27  O7  UNL     1      16.179  10.372  -5.930  1.00  0.00    -0.195 OA
BRANCH  27  28
HETATM   28  P2  UNL     1      16.458   8.864  -6.365  1.00  0.00     0.401 P 
HETATM   29  O8  UNL     1      17.750   8.589  -7.063  1.00  0.00    -0.631 OA
BRANCH  28  30
HETATM   30  O9  UNL     1      16.265   8.049  -5.006  1.00  0.00    -0.307 OA
HETATM   31  H24 UNL     1      16.285   7.067  -5.118  1.00  0.00     0.222 HD
ENDBRANCH  28  30
BRANCH  28  32
HETATM   32  O10 UNL     1      15.135   8.439  -7.153  1.00  0.00    -0.294 OA
BRANCH  32  33
HETATM   33  C14 UNL     1      15.200   8.136  -8.522  1.00  0.00     0.215 C 
BRANCH  33  34
HETATM   34  C15 UNL     1      13.846   8.531  -9.110  1.00  0.00     0.180 C 
HETATM   35  C16 UNL     1      13.222   9.637  -8.270  1.00  0.00     0.197 C 
HETATM   36  C17 UNL     1      11.939   9.033  -7.731  1.00  0.00     0.199 C 
HETATM   37  C18 UNL     1      11.624   7.959  -8.776  1.00  0.00     0.262 C 
HETATM   38  O11 UNL     1      12.918   7.441  -9.156  1.00  0.00    -0.353 OA
BRANCH  35  39
HETATM   39  O13 UNL     1      12.974  10.751  -9.122  1.00  0.00    -0.286 OA
BRANCH  39  40
HETATM   40  P3  UNL     1      14.272  11.546  -9.611  1.00  0.00     0.391 P 
HETATM   41  O14 UNL     1      15.328  11.679  -8.562  1.00  0.00    -0.632 OA
BRANCH  40  42
HETATM   42  O15 UNL     1      13.607  12.890 -10.168  1.00  0.00    -0.307 OA
HETATM   43  H36 UNL     1      12.706  12.711 -10.528  1.00  0.00     0.222 HD
ENDBRANCH  40  42
BRANCH  40  44
HETATM   44  O16 UNL     1      14.647  10.752 -10.937  1.00  0.00    -0.307 OA
HETATM   45  H37 UNL     1      13.927  10.746 -11.588  1.00  0.00     0.222 HD
ENDBRANCH  40  44
ENDBRANCH  39  40
ENDBRANCH  35  39
BRANCH  36  46
HETATM   46  O12 UNL     1      10.959  10.054  -7.523  1.00  0.00    -0.388 OA
HETATM   47  H35 UNL     1      10.815  10.484  -8.399  1.00  0.00     0.210 HD
ENDBRANCH  36  46
BRANCH  37  48
HETATM   48  N3  UNL     1      10.828   6.875  -8.237  1.00  0.00    -0.297 N 
HETATM   49  C19 UNL     1      11.230   5.579  -8.014  1.00  0.00     0.188 A 
HETATM   50  N4  UNL     1      10.310   4.870  -7.397  1.00  0.00    -0.346 N 
HETATM   51  C20 UNL     1       9.261   5.751  -7.206  1.00  0.00     0.116 A 
HETATM   52  H4  UNL     1      10.359   3.890  -7.121  1.00  0.00     0.167 HD
HETATM   53  C21 UNL     1       8.011   5.623  -6.574  1.00  0.00     0.109 A 
HETATM   54  C23 UNL     1       9.553   6.986  -7.756  1.00  0.00     0.142 A 
HETATM   55  N5  UNL     1       7.178   6.692  -6.561  1.00  0.00    -0.341 N 
HETATM   56  C22 UNL     1       7.588   7.828  -7.159  1.00  0.00     0.183 A 
HETATM   57  H5  UNL     1       6.265   6.637  -6.109  1.00  0.00     0.167 HD
HETATM   58  N6  UNL     1       8.758   8.071  -7.784  1.00  0.00    -0.336 N 
HETATM   59  H6  UNL     1       9.008   8.959  -8.219  1.00  0.00     0.168 HD
BRANCH  53  60
HETATM   60  N7  UNL     1       7.580   4.453  -5.971  1.00  0.00    -0.287 NA
HETATM   61  H33 UNL     1       8.320   3.908  -5.535  1.00  0.00     0.125 HD
HETATM   62  H34 UNL     1       6.910   3.943  -6.531  1.00  0.00     0.125 HD
ENDBRANCH  53  60
ENDBRANCH  37  48
ENDBRANCH  33  34
ENDBRANCH  32  33
ENDBRANCH  28  32
ENDBRANCH  27  28
ENDBRANCH  23  27
ENDBRANCH  22  23
ENDBRANCH  21  22
ENDBRANCH  18  21
ENDBRANCH  17  18
BRANCH  17  63
HETATM   63  O17 UNL     1      10.928  14.540  -3.716  1.00  0.00    -0.385 OA
HETATM   64  H38 UNL     1      11.123  15.404  -4.116  1.00  0.00     0.210 HD
ENDBRANCH  17  63
ENDBRANCH  14  17
ENDBRANCH  12  13
ENDBRANCH  11  12
ENDBRANCH   8  11
ENDBRANCH   6   7
ENDBRANCH   5   6
ENDBRANCH   4   5
ENDBRANCH   2   4
TORSDOF 27
ENDMDL
MODEL 15
REMARK VINA RESULT:      -6.2      2.569      7.745
REMARK  27 active torsions:
REMARK  status: ('A' for Active; 'I' for Inactive)
REMARK    1  A    between atoms: C2_2  and  S1_4 
REMARK    2  A    between atoms: S1_4  and  C3_5 
REMARK    3  A    between atoms: C3_5  and  C4_6 
REMARK    4  A    between atoms: C4_6  and  N1_7 
REMARK       I    between atoms: N1_7  and  C5_8 
REMARK    5  A    between atoms: C5_8  and  C6_10 
REMARK    6  A    between atoms: C6_10  and  C7_11 
REMARK    7  A    between atoms: C7_11  and  N2_12 
REMARK       I    between atoms: N2_12  and  C8_13 
REMARK    8  A    between atoms: C8_13  and  C9_15 
REMARK    9  A    between atoms: C9_15  and  C10_16 
REMARK   10  A    between atoms: C9_15  and  O17_54 
REMARK   11  A    between atoms: C10_16  and  C13_19 
REMARK   12  A    between atoms: C13_19  and  O4_20 
REMARK   13  A    between atoms: O4_20  and  P1_21 
REMARK   14  A    between atoms: P1_21  and  O6_23 
REMARK   15  A    between atoms: P1_21  and  O7_24 
REMARK   16  A    between atoms: O7_24  and  P2_25 
REMARK   17  A    between atoms: P2_25  and  O9_27 
REMARK   18  A    between atoms: P2_25  and  O10_28 
REMARK   19  A    between atoms: O10_28  and  C14_29 
REMARK   20  A    between atoms: C14_29  and  C15_30 
REMARK   21  A    between atoms: C16_31  and  O13_49 
REMARK   22  A    between atoms: C17_32  and  O12_48 
REMARK   23  A    between atoms: C18_33  and  N3_35 
REMARK   24  A    between atoms: C21_40  and  N7_47 
REMARK   25  A    between atoms: O13_49  and  P3_50 
REMARK   26  A    between atoms: P3_50  and  O15_52 
REMARK   27  A    between atoms: P3_50  and  O16_53 
ROOT
HETATM    1  C1  UNL     1       4.449  16.119  -8.912  1.00  0.00     0.104 C 
HETATM    2  C2  UNL     1       4.448  14.634  -9.117  1.00  0.00     0.182 C 
HETATM    3  O1  UNL     1       3.465  13.926  -8.913  1.00  0.00    -0.286 OA
ENDROOT
BRANCH   2   4
HETATM    4  S1  UNL     1       5.991  13.974  -9.640  1.00  0.00    -0.091 SA
BRANCH   4   5
HETATM    5  C3  UNL     1       6.980  14.227  -8.130  1.00  0.00     0.102 C 
BRANCH   5   6
HETATM    6  C4  UNL     1       6.558  13.277  -7.007  1.00  0.00     0.133 C 
BRANCH   6   7
HETATM    7  N1  UNL     1       5.846  12.114  -7.496  1.00  0.00    -0.360 N 
HETATM    8  C5  UNL     1       4.828  11.533  -6.777  1.00  0.00     0.219 C 
HETATM    9  O2  UNL     1       4.515  11.910  -5.653  1.00  0.00    -0.274 OA
HETATM   10  H8  UNL     1       6.106  11.727  -8.393  1.00  0.00     0.162 HD
BRANCH   8  11
HETATM   11  C6  UNL     1       4.181  10.365  -7.489  1.00  0.00     0.122 C 
BRANCH  11  12
HETATM   12  C7  UNL     1       5.216   9.459  -8.155  1.00  0.00     0.132 C 
BRANCH  12  13
HETATM   13  N2  UNL     1       5.848   8.543  -7.229  1.00  0.00    -0.358 N 
HETATM   14  C8  UNL     1       7.170   8.721  -6.864  1.00  0.00     0.247 C 
HETATM   15  O3  UNL     1       7.881   9.570  -7.388  1.00  0.00    -0.271 OA
HETATM   16  H13 UNL     1       5.229   8.119  -6.541  1.00  0.00     0.162 HD
BRANCH  14  17
HETATM   17  C9  UNL     1       7.661   7.791  -5.745  1.00  0.00     0.219 C 
BRANCH  17  18
HETATM   18  C10 UNL     1       8.845   6.872  -6.147  1.00  0.00     0.009 C 
HETATM   19  C11 UNL     1       9.219   5.888  -5.028  1.00  0.00     0.020 C 
HETATM   20  C12 UNL     1       8.519   6.051  -7.411  1.00  0.00     0.020 C 
BRANCH  18  21
HETATM   21  C13 UNL     1      10.044   7.821  -6.431  1.00  0.00     0.192 C 
BRANCH  21  22
HETATM   22  O4  UNL     1      11.064   7.190  -7.179  1.00  0.00    -0.296 OA
BRANCH  22  23
HETATM   23  P1  UNL     1      11.996   7.979  -8.218  1.00  0.00     0.401 P 
HETATM   24  O5  UNL     1      11.570   7.846  -9.646  1.00  0.00    -0.631 OA
BRANCH  23  25
HETATM   25  O6  UNL     1      13.508   7.499  -7.944  1.00  0.00    -0.307 OA
HETATM   26  H23 UNL     1      13.695   6.643  -8.350  1.00  0.00     0.222 HD
ENDBRANCH  23  25
BRANCH  23  27
HETATM   27  O7  UNL     1      12.044   9.474  -7.674  1.00  0.00    -0.195 OA
BRANCH  27  28
HETATM   28  P2  UNL     1      13.154  10.465  -8.243  1.00  0.00     0.401 P 
HETATM   29  O8  UNL     1      13.473  10.360  -9.698  1.00  0.00    -0.631 OA
BRANCH  28  30
HETATM   30  O9  UNL     1      12.625  11.903  -7.794  1.00  0.00    -0.307 OA
HETATM   31  H24 UNL     1      11.866  11.875  -7.162  1.00  0.00     0.222 HD
ENDBRANCH  28  30
BRANCH  28  32
HETATM   32  O10 UNL     1      14.385  10.280  -7.243  1.00  0.00    -0.294 OA
BRANCH  32  33
HETATM   33  C14 UNL     1      14.192  10.407  -5.859  1.00  0.00     0.215 C 
BRANCH  33  34
HETATM   34  C15 UNL     1      15.021  11.613  -5.421  1.00  0.00     0.180 C 
HETATM   35  C16 UNL     1      15.102  11.658  -3.901  1.00  0.00     0.197 C 
HETATM   36  C17 UNL     1      14.428  12.962  -3.518  1.00  0.00     0.199 C 
HETATM   37  C18 UNL     1      14.614  13.805  -4.782  1.00  0.00     0.262 C 
HETATM   38  O11 UNL     1      14.472  12.859  -5.866  1.00  0.00    -0.353 OA
BRANCH  35  39
HETATM   39  O13 UNL     1      16.477  11.637  -3.533  1.00  0.00    -0.286 OA
BRANCH  39  40
HETATM   40  P3  UNL     1      16.906  10.461  -2.538  1.00  0.00     0.391 P 
HETATM   41  O14 UNL     1      18.385  10.274  -2.428  1.00  0.00    -0.632 OA
BRANCH  40  42
HETATM   42  O15 UNL     1      16.048   9.245  -3.126  1.00  0.00    -0.307 OA
HETATM   43  H36 UNL     1      16.004   9.293  -4.110  1.00  0.00     0.222 HD
ENDBRANCH  40  42
BRANCH  40  44
HETATM   44  O16 UNL     1      16.113  10.859  -1.219  1.00  0.00    -0.307 OA
HETATM   45  H37 UNL     1      15.884  11.801  -1.187  1.00  0.00     0.222 HD
ENDBRANCH  40  44
ENDBRANCH  39  40
ENDBRANCH  35  39
BRANCH  36  46
HETATM   46  O12 UNL     1      14.984  13.470  -2.303  1.00  0.00    -0.388 OA
HETATM   47  H35 UNL     1      15.099  14.441  -2.435  1.00  0.00     0.210 HD
ENDBRANCH  36  46
BRANCH  37  48
HETATM   48  N3  UNL     1      13.598  14.830  -4.922  1.00  0.00    -0.297 N 
HETATM   49  C19 UNL     1      13.789  16.192  -4.942  1.00  0.00     0.188 A 
HETATM   50  N4  UNL     1      12.681  16.846  -5.211  1.00  0.00    -0.346 N 
HETATM   51  C20 UNL     1      11.725  15.860  -5.379  1.00  0.00     0.116 A 
HETATM   52  H4  UNL     1      12.554  17.856  -5.280  1.00  0.00     0.167 HD
HETATM   53  C21 UNL     1      10.362  15.902  -5.721  1.00  0.00     0.109 A 
HETATM   54  C23 UNL     1      12.271  14.608  -5.164  1.00  0.00     0.142 A 
HETATM   55  N5  UNL     1       9.676  14.736  -5.799  1.00  0.00    -0.341 N 
HETATM   56  C22 UNL     1      10.336  13.589  -5.540  1.00  0.00     0.183 A 
HETATM   57  H5  UNL     1       8.687  14.727  -6.048  1.00  0.00     0.167 HD
HETATM   58  N6  UNL     1      11.634  13.425  -5.213  1.00  0.00    -0.336 N 
HETATM   59  H6  UNL     1      12.074  12.523  -5.028  1.00  0.00     0.168 HD
BRANCH  53  60
HETATM   60  N7  UNL     1       9.676  17.080  -5.974  1.00  0.00    -0.287 NA
HETATM   61  H33 UNL     1      10.269  17.905  -6.037  1.00  0.00     0.125 HD
HETATM   62  H34 UNL     1       8.829  17.168  -5.429  1.00  0.00     0.125 HD
ENDBRANCH  53  60
ENDBRANCH  37  48
ENDBRANCH  33  34
ENDBRANCH  32  33
ENDBRANCH  28  32
ENDBRANCH  27  28
ENDBRANCH  23  27
ENDBRANCH  22  23
ENDBRANCH  21  22
ENDBRANCH  18  21
ENDBRANCH  17  18
BRANCH  17  63
HETATM   63  O17 UNL     1       8.049   8.558  -4.601  1.00  0.00    -0.385 OA
HETATM   64  H38 UNL     1       7.897   9.497  -4.801  1.00  0.00     0.210 HD
ENDBRANCH  17  63
ENDBRANCH  14  17
ENDBRANCH  12  13
ENDBRANCH  11  12
ENDBRANCH   8  11
ENDBRANCH   6   7
ENDBRANCH   5   6
ENDBRANCH   4   5
ENDBRANCH   2   4
TORSDOF 27
ENDMDL
MODEL 16
REMARK VINA RESULT:      -6.1      4.447      8.238
REMARK  27 active torsions:
REMARK  status: ('A' for Active; 'I' for Inactive)
REMARK    1  A    between atoms: C2_2  and  S1_4 
REMARK    2  A    between atoms: S1_4  and  C3_5 
REMARK    3  A    between atoms: C3_5  and  C4_6 
REMARK    4  A    between atoms: C4_6  and  N1_7 
REMARK       I    between atoms: N1_7  and  C5_8 
REMARK    5  A    between atoms: C5_8  and  C6_10 
REMARK    6  A    between atoms: C6_10  and  C7_11 
REMARK    7  A    between atoms: C7_11  and  N2_12 
REMARK       I    between atoms: N2_12  and  C8_13 
REMARK    8  A    between atoms: C8_13  and  C9_15 
REMARK    9  A    between atoms: C9_15  and  C10_16 
REMARK   10  A    between atoms: C9_15  and  O17_54 
REMARK   11  A    between atoms: C10_16  and  C13_19 
REMARK   12  A    between atoms: C13_19  and  O4_20 
REMARK   13  A    between atoms: O4_20  and  P1_21 
REMARK   14  A    between atoms: P1_21  and  O6_23 
REMARK   15  A    between atoms: P1_21  and  O7_24 
REMARK   16  A    between atoms: O7_24  and  P2_25 
REMARK   17  A    between atoms: P2_25  and  O9_27 
REMARK   18  A    between atoms: P2_25  and  O10_28 
REMARK   19  A    between atoms: O10_28  and  C14_29 
REMARK   20  A    between atoms: C14_29  and  C15_30 
REMARK   21  A    between atoms: C16_31  and  O13_49 
REMARK   22  A    between atoms: C17_32  and  O12_48 
REMARK   23  A    between atoms: C18_33  and  N3_35 
REMARK   24  A    between atoms: C21_40  and  N7_47 
REMARK   25  A    between atoms: O13_49  and  P3_50 
REMARK   26  A    between atoms: P3_50  and  O15_52 
REMARK   27  A    between atoms: P3_50  and  O16_53 
ROOT
HETATM    1  C1  UNL     1       8.177   7.718  -4.617  1.00  0.00     0.104 C 
HETATM    2  C2  UNL     1       8.092   6.305  -4.127  1.00  0.00     0.182 C 
HETATM    3  O1  UNL     1       7.417   5.966  -3.158  1.00  0.00    -0.286 OA
ENDROOT
BRANCH   2   4
HETATM    4  S1  UNL     1       9.077   5.164  -5.033  1.00  0.00    -0.091 SA
BRANCH   4   5
HETATM    5  C3  UNL     1       8.490   5.502  -6.725  1.00  0.00     0.102 C 
BRANCH   5   6
HETATM    6  C4  UNL     1       9.647   5.807  -7.679  1.00  0.00     0.133 C 
BRANCH   6   7
HETATM    7  N1  UNL     1      10.439   6.942  -7.253  1.00  0.00    -0.360 N 
HETATM    8  C5  UNL     1      10.110   8.229  -7.611  1.00  0.00     0.219 C 
HETATM    9  O2  UNL     1       9.184   8.486  -8.372  1.00  0.00    -0.274 OA
HETATM   10  H8  UNL     1      11.250   6.779  -6.671  1.00  0.00     0.162 HD
BRANCH   8  11
HETATM   11  C6  UNL     1      11.033   9.271  -7.017  1.00  0.00     0.122 C 
BRANCH  11  12
HETATM   12  C7  UNL     1      12.414   8.697  -6.702  1.00  0.00     0.132 C 
BRANCH  12  13
HETATM   13  N2  UNL     1      13.478   9.338  -7.445  1.00  0.00    -0.358 N 
HETATM   14  C8  UNL     1      13.890   8.820  -8.660  1.00  0.00     0.247 C 
HETATM   15  O3  UNL     1      13.466   7.755  -9.091  1.00  0.00    -0.271 OA
HETATM   16  H13 UNL     1      13.556  10.345  -7.318  1.00  0.00     0.162 HD
BRANCH  14  17
HETATM   17  C9  UNL     1      14.897   9.692  -9.424  1.00  0.00     0.219 C 
BRANCH  17  18
HETATM   18  C10 UNL     1      16.369   9.528  -8.962  1.00  0.00     0.009 C 
HETATM   19  C11 UNL     1      16.857   8.077  -9.088  1.00  0.00     0.020 C 
HETATM   20  C12 UNL     1      17.322  10.422  -9.782  1.00  0.00     0.020 C 
BRANCH  18  21
HETATM   21  C13 UNL     1      16.399   9.962  -7.469  1.00  0.00     0.192 C 
BRANCH  21  22
HETATM   22  O4  UNL     1      16.530   8.862  -6.591  1.00  0.00    -0.296 OA
BRANCH  22  23
HETATM   23  P1  UNL     1      16.109   8.927  -5.045  1.00  0.00     0.401 P 
HETATM   24  O5  UNL     1      15.720   7.605  -4.462  1.00  0.00    -0.631 OA
BRANCH  23  25
HETATM   25  O6  UNL     1      14.965  10.053  -4.921  1.00  0.00    -0.307 OA
HETATM   26  H23 UNL     1      14.838  10.532  -5.750  1.00  0.00     0.222 HD
ENDBRANCH  23  25
BRANCH  23  27
HETATM   27  O7  UNL     1      17.328   9.642  -4.316  1.00  0.00    -0.195 OA
BRANCH  27  28
HETATM   28  P2  UNL     1      17.098  10.274  -2.872  1.00  0.00     0.401 P 
HETATM   29  O8  UNL     1      16.520   9.379  -1.826  1.00  0.00    -0.631 OA
BRANCH  28  30
HETATM   30  O9  UNL     1      18.533  10.868  -2.499  1.00  0.00    -0.307 OA
HETATM   31  H24 UNL     1      18.941  11.416  -3.214  1.00  0.00     0.222 HD
ENDBRANCH  28  30
BRANCH  28  32
HETATM   32  O10 UNL     1      16.290  11.620  -3.163  1.00  0.00    -0.294 OA
BRANCH  32  33
HETATM   33  C14 UNL     1      16.913  12.681  -3.838  1.00  0.00     0.215 C 
BRANCH  33  34
HETATM   34  C15 UNL     1      15.833  13.740  -4.057  1.00  0.00     0.180 C 
HETATM   35  C16 UNL     1      14.529  13.287  -3.415  1.00  0.00     0.197 C 
HETATM   36  C17 UNL     1      13.552  13.167  -4.570  1.00  0.00     0.199 C 
HETATM   37  C18 UNL     1      14.142  14.141  -5.593  1.00  0.00     0.262 C 
HETATM   38  O11 UNL     1      15.572  13.993  -5.443  1.00  0.00    -0.353 OA
BRANCH  35  39
HETATM   39  O13 UNL     1      14.131  14.280  -2.476  1.00  0.00    -0.286 OA
BRANCH  39  40
HETATM   40  P3  UNL     1      13.876  13.758  -0.987  1.00  0.00     0.391 P 
HETATM   41  O14 UNL     1      14.378  14.687   0.072  1.00  0.00    -0.632 OA
BRANCH  40  42
HETATM   42  O15 UNL     1      14.529  12.300  -1.064  1.00  0.00    -0.307 OA
HETATM   43  H36 UNL     1      14.386  11.809  -0.221  1.00  0.00     0.222 HD
ENDBRANCH  40  42
BRANCH  40  44
HETATM   44  O16 UNL     1      12.315  13.457  -1.021  1.00  0.00    -0.307 OA
HETATM   45  H37 UNL     1      11.994  13.235  -1.910  1.00  0.00     0.222 HD
ENDBRANCH  40  44
ENDBRANCH  39  40
ENDBRANCH  35  39
BRANCH  36  46
HETATM   46  O12 UNL     1      12.218  13.417  -4.119  1.00  0.00    -0.388 OA
HETATM   47  H35 UNL     1      12.147  14.393  -3.990  1.00  0.00     0.210 HD
ENDBRANCH  36  46
BRANCH  37  48
HETATM   48  N3  UNL     1      13.780  13.803  -6.955  1.00  0.00    -0.297 N 
HETATM   49  C19 UNL     1      13.017  12.737  -7.373  1.00  0.00     0.188 A 
HETATM   50  N4  UNL     1      12.763  12.781  -8.662  1.00  0.00    -0.346 N 
HETATM   51  C20 UNL     1      13.387  13.935  -9.102  1.00  0.00     0.116 A 
HETATM   52  H4  UNL     1      12.225  12.114  -9.215  1.00  0.00     0.167 HD
HETATM   53  C21 UNL     1      13.455  14.562 -10.358  1.00  0.00     0.109 A 
HETATM   54  C23 UNL     1      14.054  14.557  -8.062  1.00  0.00     0.142 A 
HETATM   55  N5  UNL     1      14.172  15.706 -10.474  1.00  0.00    -0.341 N 
HETATM   56  C22 UNL     1      14.791  16.186  -9.377  1.00  0.00     0.183 A 
HETATM   57  H5  UNL     1      14.241  16.192 -11.369  1.00  0.00     0.167 HD
HETATM   58  N6  UNL     1      14.790  15.680  -8.127  1.00  0.00    -0.336 N 
HETATM   59  H6  UNL     1      15.283  16.095  -7.335  1.00  0.00     0.168 HD
BRANCH  53  60
HETATM   60  N7  UNL     1      12.833  14.065 -11.493  1.00  0.00    -0.287 NA
HETATM   61  H33 UNL     1      13.329  14.258 -12.360  1.00  0.00     0.125 HD
HETATM   62  H34 UNL     1      11.834  14.220 -11.495  1.00  0.00     0.125 HD
ENDBRANCH  53  60
ENDBRANCH  37  48
ENDBRANCH  33  34
ENDBRANCH  32  33
ENDBRANCH  28  32
ENDBRANCH  27  28
ENDBRANCH  23  27
ENDBRANCH  22  23
ENDBRANCH  21  22
ENDBRANCH  18  21
ENDBRANCH  17  18
BRANCH  17  63
HETATM   63  O17 UNL     1      14.827   9.413 -10.826  1.00  0.00    -0.385 OA
HETATM   64  H38 UNL     1      14.610  10.240 -11.288  1.00  0.00     0.210 HD
ENDBRANCH  17  63
ENDBRANCH  14  17
ENDBRANCH  12  13
ENDBRANCH  11  12
ENDBRANCH   8  11
ENDBRANCH   6   7
ENDBRANCH   5   6
ENDBRANCH   4   5
ENDBRANCH   2   4
TORSDOF 27
ENDMDL
MODEL 17
REMARK VINA RESULT:      -5.9      4.084      8.450
REMARK  27 active torsions:
REMARK  status: ('A' for Active; 'I' for Inactive)
REMARK    1  A    between atoms: C2_2  and  S1_4 
REMARK    2  A    between atoms: S1_4  and  C3_5 
REMARK    3  A    between atoms: C3_5  and  C4_6 
REMARK    4  A    between atoms: C4_6  and  N1_7 
REMARK       I    between atoms: N1_7  and  C5_8 
REMARK    5  A    between atoms: C5_8  and  C6_10 
REMARK    6  A    between atoms: C6_10  and  C7_11 
REMARK    7  A    between atoms: C7_11  and  N2_12 
REMARK       I    between atoms: N2_12  and  C8_13 
REMARK    8  A    between atoms: C8_13  and  C9_15 
REMARK    9  A    between atoms: C9_15  and  C10_16 
REMARK   10  A    between atoms: C9_15  and  O17_54 
REMARK   11  A    between atoms: C10_16  and  C13_19 
REMARK   12  A    between atoms: C13_19  and  O4_20 
REMARK   13  A    between atoms: O4_20  and  P1_21 
REMARK   14  A    between atoms: P1_21  and  O6_23 
REMARK   15  A    between atoms: P1_21  and  O7_24 
REMARK   16  A    between atoms: O7_24  and  P2_25 
REMARK   17  A    between atoms: P2_25  and  O9_27 
REMARK   18  A    between atoms: P2_25  and  O10_28 
REMARK   19  A    between atoms: O10_28  and  C14_29 
REMARK   20  A    between atoms: C14_29  and  C15_30 
REMARK   21  A    between atoms: C16_31  and  O13_49 
REMARK   22  A    between atoms: C17_32  and  O12_48 
REMARK   23  A    between atoms: C18_33  and  N3_35 
REMARK   24  A    between atoms: C21_40  and  N7_47 
REMARK   25  A    between atoms: O13_49  and  P3_50 
REMARK   26  A    between atoms: P3_50  and  O15_52 
REMARK   27  A    between atoms: P3_50  and  O16_53 
ROOT
HETATM    1  C1  UNL     1       7.088  11.127  -5.964  1.00  0.00     0.104 C 
HETATM    2  C2  UNL     1       8.071  10.123  -6.485  1.00  0.00     0.182 C 
HETATM    3  O1  UNL     1       9.267  10.362  -6.627  1.00  0.00    -0.286 OA
ENDROOT
BRANCH   2   4
HETATM    4  S1  UNL     1       7.363   8.573  -6.918  1.00  0.00    -0.091 SA
BRANCH   4   5
HETATM    5  C3  UNL     1       7.519   7.691  -5.330  1.00  0.00     0.102 C 
BRANCH   5   6
HETATM    6  C4  UNL     1       8.973   7.333  -5.017  1.00  0.00     0.133 C 
BRANCH   6   7
HETATM    7  N1  UNL     1       9.775   7.156  -6.210  1.00  0.00    -0.360 N 
HETATM    8  C5  UNL     1       9.917   5.927  -6.811  1.00  0.00     0.219 C 
HETATM    9  O2  UNL     1       9.446   4.901  -6.335  1.00  0.00    -0.274 OA
HETATM   10  H8  UNL     1      10.234   7.963  -6.612  1.00  0.00     0.162 HD
BRANCH   8  11
HETATM   11  C6  UNL     1      10.749   5.971  -8.075  1.00  0.00     0.122 C 
BRANCH  11  12
HETATM   12  C7  UNL     1      11.457   7.314  -8.246  1.00  0.00     0.132 C 
BRANCH  12  13
HETATM   13  N2  UNL     1      12.836   7.289  -7.805  1.00  0.00    -0.358 N 
HETATM   14  C8  UNL     1      13.257   8.124  -6.786  1.00  0.00     0.247 C 
HETATM   15  O3  UNL     1      12.529   8.984  -6.306  1.00  0.00    -0.271 OA
HETATM   16  H13 UNL     1      13.309   6.393  -7.899  1.00  0.00     0.162 HD
BRANCH  14  17
HETATM   17  C9  UNL     1      14.691   7.871  -6.298  1.00  0.00     0.219 C 
BRANCH  17  18
HETATM   18  C10 UNL     1      15.796   8.417  -7.239  1.00  0.00     0.009 C 
HETATM   19  C11 UNL     1      16.935   7.406  -7.441  1.00  0.00     0.020 C 
HETATM   20  C12 UNL     1      15.229   8.777  -8.627  1.00  0.00     0.020 C 
BRANCH  18  21
HETATM   21  C13 UNL     1      16.350   9.697  -6.551  1.00  0.00     0.192 C 
BRANCH  21  22
HETATM   22  O4  UNL     1      17.581   9.467  -5.896  1.00  0.00    -0.296 OA
BRANCH  22  23
HETATM   23  P1  UNL     1      18.087  10.349  -4.656  1.00  0.00     0.401 P 
HETATM   24  O5  UNL     1      18.908  11.538  -5.046  1.00  0.00    -0.631 OA
BRANCH  23  25
HETATM   25  O6  UNL     1      18.837   9.344  -3.646  1.00  0.00    -0.307 OA
HETATM   26  H23 UNL     1      19.075   9.777  -2.816  1.00  0.00     0.222 HD
ENDBRANCH  23  25
BRANCH  23  27
HETATM   27  O7  UNL     1      16.770  10.691  -3.832  1.00  0.00    -0.195 OA
BRANCH  27  28
HETATM   28  P2  UNL     1      16.864  10.807  -2.246  1.00  0.00     0.401 P 
HETATM   29  O8  UNL     1      16.620   9.560  -1.460  1.00  0.00    -0.631 OA
BRANCH  28  30
HETATM   30  O9  UNL     1      18.304  11.454  -2.010  1.00  0.00    -0.307 OA
HETATM   31  H24 UNL     1      18.434  12.325  -2.458  1.00  0.00     0.222 HD
ENDBRANCH  28  30
BRANCH  28  32
HETATM   32  O10 UNL     1      15.923  12.048  -1.893  1.00  0.00    -0.294 OA
BRANCH  32  33
HETATM   33  C14 UNL     1      16.392  13.068  -1.051  1.00  0.00     0.215 C 
BRANCH  33  34
HETATM   34  C15 UNL     1      15.200  13.987  -0.789  1.00  0.00     0.180 C 
HETATM   35  C16 UNL     1      14.233  13.314   0.176  1.00  0.00     0.197 C 
HETATM   36  C17 UNL     1      12.947  13.158  -0.614  1.00  0.00     0.199 C 
HETATM   37  C18 UNL     1      13.066  14.280  -1.649  1.00  0.00     0.262 C 
HETATM   38  O11 UNL     1      14.473  14.313  -1.979  1.00  0.00    -0.353 OA
BRANCH  35  39
HETATM   39  O13 UNL     1      14.069  14.168   1.304  1.00  0.00    -0.286 OA
BRANCH  39  40
HETATM   40  P3  UNL     1      14.429  13.518   2.719  1.00  0.00     0.391 P 
HETATM   41  O14 UNL     1      15.620  12.616   2.682  1.00  0.00    -0.632 OA
BRANCH  40  42
HETATM   42  O15 UNL     1      13.021  12.870   3.118  1.00  0.00    -0.307 OA
HETATM   43  H36 UNL     1      12.447  13.535   3.567  1.00  0.00     0.222 HD
ENDBRANCH  40  42
BRANCH  40  44
HETATM   44  O16 UNL     1      14.510  14.807   3.647  1.00  0.00    -0.307 OA
HETATM   45  H37 UNL     1      15.372  15.250   3.600  1.00  0.00     0.222 HD
ENDBRANCH  40  44
ENDBRANCH  39  40
ENDBRANCH  35  39
BRANCH  36  46
HETATM   46  O12 UNL     1      11.819  13.191   0.263  1.00  0.00    -0.388 OA
HETATM   47  H35 UNL     1      11.348  14.038   0.078  1.00  0.00     0.210 HD
ENDBRANCH  36  46
BRANCH  37  48
HETATM   48  N3  UNL     1      12.311  14.006  -2.855  1.00  0.00    -0.297 N 
HETATM   49  C19 UNL     1      11.119  14.576  -3.236  1.00  0.00     0.188 A 
HETATM   50  N4  UNL     1      10.755  14.210  -4.446  1.00  0.00    -0.346 N 
HETATM   51  C20 UNL     1      11.764  13.365  -4.872  1.00  0.00     0.116 A 
HETATM   52  H4  UNL     1       9.916  14.487  -4.956  1.00  0.00     0.167 HD
HETATM   53  C21 UNL     1      11.988  12.682  -6.081  1.00  0.00     0.109 A 
HETATM   54  C23 UNL     1      12.715  13.199  -3.882  1.00  0.00     0.142 A 
HETATM   55  N5  UNL     1      13.092  11.903  -6.191  1.00  0.00    -0.341 N 
HETATM   56  C22 UNL     1      13.921  11.817  -5.132  1.00  0.00     0.183 A 
HETATM   57  H5  UNL     1      13.290  11.395  -7.053  1.00  0.00     0.167 HD
HETATM   58  N6  UNL     1      13.815  12.428  -3.934  1.00  0.00    -0.336 N 
HETATM   59  H6  UNL     1      14.482  12.320  -3.169  1.00  0.00     0.168 HD
BRANCH  53  60
HETATM   60  N7  UNL     1      11.131  12.755  -7.167  1.00  0.00    -0.287 NA
HETATM   61  H33 UNL     1      10.152  12.595  -6.940  1.00  0.00     0.125 HD
HETATM   62  H34 UNL     1      11.492  12.284  -7.986  1.00  0.00     0.125 HD
ENDBRANCH  53  60
ENDBRANCH  37  48
ENDBRANCH  33  34
ENDBRANCH  32  33
ENDBRANCH  28  32
ENDBRANCH  27  28
ENDBRANCH  23  27
ENDBRANCH  22  23
ENDBRANCH  21  22
ENDBRANCH  18  21
ENDBRANCH  17  18
BRANCH  17  63
HETATM   63  O17 UNL     1      14.877   8.444  -4.999  1.00  0.00    -0.385 OA
HETATM   64  H38 UNL     1      14.824   7.729  -4.343  1.00  0.00     0.210 HD
ENDBRANCH  17  63
ENDBRANCH  14  17
ENDBRANCH  12  13
ENDBRANCH  11  12
ENDBRANCH   8  11
ENDBRANCH   6   7
ENDBRANCH   5   6
ENDBRANCH   4   5
ENDBRANCH   2   4
TORSDOF 27
ENDMDL
MODEL 18
REMARK VINA RESULT:      -5.9      4.336     10.198
REMARK  27 active torsions:
REMARK  status: ('A' for Active; 'I' for Inactive)
REMARK    1  A    between atoms: C2_2  and  S1_4 
REMARK    2  A    between atoms: S1_4  and  C3_5 
REMARK    3  A    between atoms: C3_5  and  C4_6 
REMARK    4  A    between atoms: C4_6  and  N1_7 
REMARK       I    between atoms: N1_7  and  C5_8 
REMARK    5  A    between atoms: C5_8  and  C6_10 
REMARK    6  A    between atoms: C6_10  and  C7_11 
REMARK    7  A    between atoms: C7_11  and  N2_12 
REMARK       I    between atoms: N2_12  and  C8_13 
REMARK    8  A    between atoms: C8_13  and  C9_15 
REMARK    9  A    between atoms: C9_15  and  C10_16 
REMARK   10  A    between atoms: C9_15  and  O17_54 
REMARK   11  A    between atoms: C10_16  and  C13_19 
REMARK   12  A    between atoms: C13_19  and  O4_20 
REMARK   13  A    between atoms: O4_20  and  P1_21 
REMARK   14  A    between atoms: P1_21  and  O6_23 
REMARK   15  A    between atoms: P1_21  and  O7_24 
REMARK   16  A    between atoms: O7_24  and  P2_25 
REMARK   17  A    between atoms: P2_25  and  O9_27 
REMARK   18  A    between atoms: P2_25  and  O10_28 
REMARK   19  A    between atoms: O10_28  and  C14_29 
REMARK   20  A    between atoms: C14_29  and  C15_30 
REMARK   21  A    between atoms: C16_31  and  O13_49 
REMARK   22  A    between atoms: C17_32  and  O12_48 
REMARK   23  A    between atoms: C18_33  and  N3_35 
REMARK   24  A    between atoms: C21_40  and  N7_47 
REMARK   25  A    between atoms: O13_49  and  P3_50 
REMARK   26  A    between atoms: P3_50  and  O15_52 
REMARK   27  A    between atoms: P3_50  and  O16_53 
ROOT
HETATM    1  C1  UNL     1       4.302  12.419 -10.041  1.00  0.00     0.104 C 
HETATM    2  C2  UNL     1       3.330  11.672  -9.178  1.00  0.00     0.182 C 
HETATM    3  O1  UNL     1       2.596  12.219  -8.360  1.00  0.00    -0.286 OA
ENDROOT
BRANCH   2   4
HETATM    4  S1  UNL     1       3.353   9.928  -9.403  1.00  0.00    -0.091 SA
BRANCH   4   5
HETATM    5  C3  UNL     1       4.103   9.408  -7.826  1.00  0.00     0.102 C 
BRANCH   5   6
HETATM    6  C4  UNL     1       5.620   9.608  -7.824  1.00  0.00     0.133 C 
BRANCH   6   7
HETATM    7  N1  UNL     1       6.342   8.411  -7.444  1.00  0.00    -0.360 N 
HETATM    8  C5  UNL     1       7.701   8.421  -7.233  1.00  0.00     0.219 C 
HETATM    9  O2  UNL     1       8.392   9.414  -7.430  1.00  0.00    -0.274 OA
HETATM   10  H8  UNL     1       5.826   7.549  -7.325  1.00  0.00     0.162 HD
BRANCH   8  11
HETATM   11  C6  UNL     1       8.249   7.082  -6.791  1.00  0.00     0.122 C 
BRANCH  11  12
HETATM   12  C7  UNL     1       9.500   6.689  -7.576  1.00  0.00     0.132 C 
BRANCH  12  13
HETATM   13  N2  UNL     1      10.720   7.211  -6.998  1.00  0.00    -0.358 N 
HETATM   14  C8  UNL     1      11.638   7.875  -7.790  1.00  0.00     0.247 C 
HETATM   15  O3  UNL     1      11.520   7.945  -9.006  1.00  0.00    -0.271 OA
HETATM   16  H13 UNL     1      10.657   7.493  -6.022  1.00  0.00     0.162 HD
BRANCH  14  17
HETATM   17  C9  UNL     1      12.797   8.529  -7.022  1.00  0.00     0.219 C 
BRANCH  17  18
HETATM   18  C10 UNL     1      12.861  10.074  -7.150  1.00  0.00     0.009 C 
HETATM   19  C11 UNL     1      13.467  10.519  -8.489  1.00  0.00     0.020 C 
HETATM   20  C12 UNL     1      11.462  10.710  -7.026  1.00  0.00     0.020 C 
BRANCH  18  21
HETATM   21  C13 UNL     1      13.764  10.561  -5.980  1.00  0.00     0.192 C 
BRANCH  21  22
HETATM   22  O4  UNL     1      13.508  11.906  -5.627  1.00  0.00    -0.296 OA
BRANCH  22  23
HETATM   23  P1  UNL     1      14.590  13.075  -5.810  1.00  0.00     0.401 P 
HETATM   24  O5  UNL     1      14.087  14.260  -6.572  1.00  0.00    -0.631 OA
BRANCH  23  25
HETATM   25  O6  UNL     1      15.902  12.399  -6.452  1.00  0.00    -0.307 OA
HETATM   26  H23 UNL     1      15.711  11.533  -6.836  1.00  0.00     0.222 HD
ENDBRANCH  23  25
BRANCH  23  27
HETATM   27  O7  UNL     1      15.098  13.398  -4.337  1.00  0.00    -0.195 OA
BRANCH  27  28
HETATM   28  P2  UNL     1      14.040  13.867  -3.242  1.00  0.00     0.401 P 
HETATM   29  O8  UNL     1      13.091  14.951  -3.639  1.00  0.00    -0.631 OA
BRANCH  28  30
HETATM   30  O9  UNL     1      13.329  12.504  -2.813  1.00  0.00    -0.307 OA
HETATM   31  H24 UNL     1      13.436  11.769  -3.466  1.00  0.00     0.222 HD
ENDBRANCH  28  30
BRANCH  28  32
HETATM   32  O10 UNL     1      14.927  14.156  -1.947  1.00  0.00    -0.294 OA
BRANCH  32  33
HETATM   33  C14 UNL     1      14.678  13.458  -0.755  1.00  0.00     0.215 C 
BRANCH  33  34
HETATM   34  C15 UNL     1      15.848  12.493  -0.572  1.00  0.00     0.180 C 
HETATM   35  C16 UNL     1      17.161  13.264  -0.596  1.00  0.00     0.197 C 
HETATM   36  C17 UNL     1      17.906  12.717  -1.799  1.00  0.00     0.199 C 
HETATM   37  C18 UNL     1      17.302  11.318  -1.944  1.00  0.00     0.262 C 
HETATM   38  O11 UNL     1      15.911  11.492  -1.595  1.00  0.00    -0.353 OA
BRANCH  35  39
HETATM   39  O13 UNL     1      17.847  13.005   0.624  1.00  0.00    -0.286 OA
BRANCH  39  40
HETATM   40  P3  UNL     1      18.180  14.290   1.514  1.00  0.00     0.391 P 
HETATM   41  O14 UNL     1      17.935  14.092   2.975  1.00  0.00    -0.632 OA
BRANCH  40  42
HETATM   42  O15 UNL     1      17.314  15.407   0.763  1.00  0.00    -0.307 OA
HETATM   43  H36 UNL     1      16.406  15.072   0.569  1.00  0.00     0.222 HD
ENDBRANCH  40  42
BRANCH  40  44
HETATM   44  O16 UNL     1      19.667  14.616   1.054  1.00  0.00    -0.307 OA
HETATM   45  H37 UNL     1      20.147  13.830   0.749  1.00  0.00     0.222 HD
ENDBRANCH  40  44
ENDBRANCH  39  40
ENDBRANCH  35  39
BRANCH  36  46
HETATM   46  O12 UNL     1      19.318  12.804  -1.589  1.00  0.00    -0.388 OA
HETATM   47  H35 UNL     1      19.629  11.885  -1.407  1.00  0.00     0.210 HD
ENDBRANCH  36  46
BRANCH  37  48
HETATM   48  N3  UNL     1      17.383  10.814  -3.300  1.00  0.00    -0.297 N 
HETATM   49  C19 UNL     1      18.198  11.272  -4.309  1.00  0.00     0.188 A 
HETATM   50  N4  UNL     1      18.126  10.522  -5.387  1.00  0.00    -0.346 N 
HETATM   51  C20 UNL     1      17.223   9.525  -5.059  1.00  0.00     0.116 A 
HETATM   52  H4  UNL     1      18.625  10.646  -6.268  1.00  0.00     0.167 HD
HETATM   53  C21 UNL     1      16.750   8.401  -5.757  1.00  0.00     0.109 A 
HETATM   54  C23 UNL     1      16.726   9.717  -3.783  1.00  0.00     0.142 A 
HETATM   55  N5  UNL     1      15.837   7.600  -5.155  1.00  0.00    -0.341 N 
HETATM   56  C22 UNL     1      15.424   7.924  -3.914  1.00  0.00     0.183 A 
HETATM   57  H5  UNL     1      15.474   6.773  -5.629  1.00  0.00     0.167 HD
HETATM   58  N6  UNL     1      15.811   8.964  -3.147  1.00  0.00    -0.336 N 
HETATM   59  H6  UNL     1      15.457   9.155  -2.210  1.00  0.00     0.168 HD
BRANCH  53  60
HETATM   60  N7  UNL     1      17.161   8.071  -7.039  1.00  0.00    -0.287 NA
HETATM   61  H33 UNL     1      18.098   7.678  -7.091  1.00  0.00     0.125 HD
HETATM   62  H34 UNL     1      16.925   8.778  -7.723  1.00  0.00     0.125 HD
ENDBRANCH  53  60
ENDBRANCH  37  48
ENDBRANCH  33  34
ENDBRANCH  32  33
ENDBRANCH  28  32
ENDBRANCH  27  28
ENDBRANCH  23  27
ENDBRANCH  22  23
ENDBRANCH  21  22
ENDBRANCH  18  21
ENDBRANCH  17  18
BRANCH  17  63
HETATM   63  O17 UNL     1      12.722   8.190  -5.633  1.00  0.00    -0.385 OA
HETATM   64  H38 UNL     1      11.811   7.911  -5.440  1.00  0.00     0.210 HD
ENDBRANCH  17  63
ENDBRANCH  14  17
ENDBRANCH  12  13
ENDBRANCH  11  12
ENDBRANCH   8  11
ENDBRANCH   6   7
ENDBRANCH   5   6
ENDBRANCH   4   5
ENDBRANCH   2   4
TORSDOF 27
ENDMDL
MODEL 19
REMARK VINA RESULT:      -5.8      3.976      8.390
REMARK  27 active torsions:
REMARK  status: ('A' for Active; 'I' for Inactive)
REMARK    1  A    between atoms: C2_2  and  S1_4 
REMARK    2  A    between atoms: S1_4  and  C3_5 
REMARK    3  A    between atoms: C3_5  and  C4_6 
REMARK    4  A    between atoms: C4_6  and  N1_7 
REMARK       I    between atoms: N1_7  and  C5_8 
REMARK    5  A    between atoms: C5_8  and  C6_10 
REMARK    6  A    between atoms: C6_10  and  C7_11 
REMARK    7  A    between atoms: C7_11  and  N2_12 
REMARK       I    between atoms: N2_12  and  C8_13 
REMARK    8  A    between atoms: C8_13  and  C9_15 
REMARK    9  A    between atoms: C9_15  and  C10_16 
REMARK   10  A    between atoms: C9_15  and  O17_54 
REMARK   11  A    between atoms: C10_16  and  C13_19 
REMARK   12  A    between atoms: C13_19  and  O4_20 
REMARK   13  A    between atoms: O4_20  and  P1_21 
REMARK   14  A    between atoms: P1_21  and  O6_23 
REMARK   15  A    between atoms: P1_21  and  O7_24 
REMARK   16  A    between atoms: O7_24  and  P2_25 
REMARK   17  A    between atoms: P2_25  and  O9_27 
REMARK   18  A    between atoms: P2_25  and  O10_28 
REMARK   19  A    between atoms: O10_28  and  C14_29 
REMARK   20  A    between atoms: C14_29  and  C15_30 
REMARK   21  A    between atoms: C16_31  and  O13_49 
REMARK   22  A    between atoms: C17_32  and  O12_48 
REMARK   23  A    between atoms: C18_33  and  N3_35 
REMARK   24  A    between atoms: C21_40  and  N7_47 
REMARK   25  A    between atoms: O13_49  and  P3_50 
REMARK   26  A    between atoms: P3_50  and  O15_52 
REMARK   27  A    between atoms: P3_50  and  O16_53 
ROOT
HETATM    1  C1  UNL     1       6.671   5.529  -3.666  1.00  0.00     0.104 C 
HETATM    2  C2  UNL     1       7.364   5.820  -4.962  1.00  0.00     0.182 C 
HETATM    3  O1  UNL     1       7.075   5.266  -6.020  1.00  0.00    -0.286 OA
ENDROOT
BRANCH   2   4
HETATM    4  S1  UNL     1       8.663   6.999  -4.841  1.00  0.00    -0.091 SA
BRANCH   4   5
HETATM    5  C3  UNL     1       7.812   8.483  -5.469  1.00  0.00     0.102 C 
BRANCH   5   6
HETATM    6  C4  UNL     1       7.697   8.473  -6.994  1.00  0.00     0.133 C 
BRANCH   6   7
HETATM    7  N1  UNL     1       8.689   7.624  -7.624  1.00  0.00    -0.360 N 
HETATM    8  C5  UNL     1       9.943   8.091  -7.943  1.00  0.00     0.219 C 
HETATM    9  O2  UNL     1      10.270   9.262  -7.791  1.00  0.00    -0.274 OA
HETATM   10  H8  UNL     1       8.449   6.663  -7.824  1.00  0.00     0.162 HD
BRANCH   8  11
HETATM   11  C6  UNL     1      10.842   7.030  -8.541  1.00  0.00     0.122 C 
BRANCH  11  12
HETATM   12  C7  UNL     1      12.319   7.411  -8.440  1.00  0.00     0.132 C 
BRANCH  12  13
HETATM   13  N2  UNL     1      12.711   7.815  -7.107  1.00  0.00    -0.358 N 
HETATM   14  C8  UNL     1      14.044   8.031  -6.807  1.00  0.00     0.247 C 
HETATM   15  O3  UNL     1      14.939   7.779  -7.604  1.00  0.00    -0.271 OA
HETATM   16  H13 UNL     1      12.024   8.367  -6.596  1.00  0.00     0.162 HD
BRANCH  14  17
HETATM   17  C9  UNL     1      14.304   8.625  -5.415  1.00  0.00     0.219 C 
BRANCH  17  18
HETATM   18  C10 UNL     1      15.754   9.127  -5.191  1.00  0.00     0.009 C 
HETATM   19  C11 UNL     1      16.295   8.734  -3.809  1.00  0.00     0.020 C 
HETATM   20  C12 UNL     1      16.718   8.565  -6.256  1.00  0.00     0.020 C 
BRANCH  18  21
HETATM   21  C13 UNL     1      15.691  10.677  -5.306  1.00  0.00     0.192 C 
BRANCH  21  22
HETATM   22  O4  UNL     1      16.616  11.318  -4.450  1.00  0.00    -0.296 OA
BRANCH  22  23
HETATM   23  P1  UNL     1      16.175  12.375  -3.328  1.00  0.00     0.401 P 
HETATM   24  O5  UNL     1      17.268  13.302  -2.898  1.00  0.00    -0.631 OA
BRANCH  23  25
HETATM   25  O6  UNL     1      15.529  11.529  -2.120  1.00  0.00    -0.307 OA
HETATM   26  H23 UNL     1      15.171  12.100  -1.429  1.00  0.00     0.222 HD
ENDBRANCH  23  25
BRANCH  23  27
HETATM   27  O7  UNL     1      14.888  13.095  -3.924  1.00  0.00    -0.195 OA
BRANCH  27  28
HETATM   28  P2  UNL     1      15.053  14.524  -4.608  1.00  0.00     0.401 P 
HETATM   29  O8  UNL     1      15.311  15.683  -3.701  1.00  0.00    -0.631 OA
BRANCH  28  30
HETATM   30  O9  UNL     1      16.196  14.280  -5.695  1.00  0.00    -0.307 OA
HETATM   31  H24 UNL     1      15.919  14.478  -6.623  1.00  0.00     0.222 HD
ENDBRANCH  28  30
BRANCH  28  32
HETATM   32  O10 UNL     1      13.771  14.650  -5.552  1.00  0.00    -0.294 OA
BRANCH  32  33
HETATM   33  C14 UNL     1      13.845  15.394  -6.741  1.00  0.00     0.215 C 
BRANCH  33  34
HETATM   34  C15 UNL     1      13.303  14.488  -7.845  1.00  0.00     0.180 C 
HETATM   35  C16 UNL     1      12.499  13.350  -7.230  1.00  0.00     0.197 C 
HETATM   36  C17 UNL     1      13.245  12.092  -7.633  1.00  0.00     0.199 C 
HETATM   37  C18 UNL     1      13.962  12.537  -8.910  1.00  0.00     0.262 C 
HETATM   38  O11 UNL     1      14.336  13.908  -8.649  1.00  0.00    -0.353 OA
BRANCH  35  39
HETATM   39  O13 UNL     1      11.185  13.393  -7.775  1.00  0.00    -0.286 OA
BRANCH  39  40
HETATM   40  P3  UNL     1       9.996  13.435  -6.707  1.00  0.00     0.391 P 
HETATM   41  O14 UNL     1       8.757  14.101  -7.210  1.00  0.00    -0.632 OA
BRANCH  40  42
HETATM   42  O15 UNL     1      10.741  14.101  -5.457  1.00  0.00    -0.307 OA
HETATM   43  H36 UNL     1      10.125  14.687  -4.956  1.00  0.00     0.222 HD
ENDBRANCH  40  42
BRANCH  40  44
HETATM   44  O16 UNL     1       9.892  11.904  -6.291  1.00  0.00    -0.307 OA
HETATM   45  H37 UNL     1       9.087  11.704  -5.788  1.00  0.00     0.222 HD
ENDBRANCH  40  44
ENDBRANCH  39  40
ENDBRANCH  35  39
BRANCH  36  46
HETATM   46  O12 UNL     1      12.338  10.991  -7.740  1.00  0.00    -0.388 OA
HETATM   47  H35 UNL     1      12.878  10.212  -8.015  1.00  0.00     0.210 HD
ENDBRANCH  36  46
BRANCH  37  48
HETATM   48  N3  UNL     1      15.163  11.768  -9.170  1.00  0.00    -0.297 N 
HETATM   49  C19 UNL     1      16.440  12.052  -8.746  1.00  0.00     0.188 A 
HETATM   50  N4  UNL     1      17.288  11.091  -9.040  1.00  0.00    -0.346 N 
HETATM   51  C20 UNL     1      16.523  10.134  -9.683  1.00  0.00     0.116 A 
HETATM   52  H4  UNL     1      18.288  11.058  -8.840  1.00  0.00     0.167 HD
HETATM   53  C21 UNL     1      16.825   8.864 -10.203  1.00  0.00     0.109 A 
HETATM   54  C23 UNL     1      15.212  10.558  -9.805  1.00  0.00     0.142 A 
HETATM   55  N5  UNL     1      15.835   8.154 -10.798  1.00  0.00    -0.341 N 
HETATM   56  C22 UNL     1      14.607   8.705 -10.866  1.00  0.00     0.183 A 
HETATM   57  H5  UNL     1      16.015   7.227 -11.184  1.00  0.00     0.167 HD
HETATM   58  N6  UNL     1      14.199   9.902 -10.398  1.00  0.00    -0.336 N 
HETATM   59  H6  UNL     1      13.248  10.263 -10.483  1.00  0.00     0.168 HD
BRANCH  53  60
HETATM   60  N7  UNL     1      18.089   8.299 -10.149  1.00  0.00    -0.287 NA
HETATM   61  H33 UNL     1      18.235   7.535 -10.805  1.00  0.00     0.125 HD
HETATM   62  H34 UNL     1      18.417   8.156  -9.204  1.00  0.00     0.125 HD
ENDBRANCH  53  60
ENDBRANCH  37  48
ENDBRANCH  33  34
ENDBRANCH  32  33
ENDBRANCH  28  32
ENDBRANCH  27  28
ENDBRANCH  23  27
ENDBRANCH  22  23
ENDBRANCH  21  22
ENDBRANCH  18  21
ENDBRANCH  17  18
BRANCH  17  63
HETATM   63  O17 UNL     1      13.403   9.710  -5.166  1.00  0.00    -0.385 OA
HETATM   64  H38 UNL     1      12.570   9.340  -4.829  1.00  0.00     0.210 HD
ENDBRANCH  17  63
ENDBRANCH  14  17
ENDBRANCH  12  13
ENDBRANCH  11  12
ENDBRANCH   8  11
ENDBRANCH   6   7
ENDBRANCH   5   6
ENDBRANCH   4   5
ENDBRANCH   2   4
TORSDOF 27
ENDMDL
MODEL 20
REMARK VINA RESULT:      -5.7      4.689     10.444
REMARK  27 active torsions:
REMARK  status: ('A' for Active; 'I' for Inactive)
REMARK    1  A    between atoms: C2_2  and  S1_4 
REMARK    2  A    between atoms: S1_4  and  C3_5 
REMARK    3  A    between atoms: C3_5  and  C4_6 
REMARK    4  A    between atoms: C4_6  and  N1_7 
REMARK       I    between atoms: N1_7  and  C5_8 
REMARK    5  A    between atoms: C5_8  and  C6_10 
REMARK    6  A    between atoms: C6_10  and  C7_11 
REMARK    7  A    between atoms: C7_11  and  N2_12 
REMARK       I    between atoms: N2_12  and  C8_13 
REMARK    8  A    between atoms: C8_13  and  C9_15 
REMARK    9  A    between atoms: C9_15  and  C10_16 
REMARK   10  A    between atoms: C9_15  and  O17_54 
REMARK   11  A    between atoms: C10_16  and  C13_19 
REMARK   12  A    between atoms: C13_19  and  O4_20 
REMARK   13  A    between atoms: O4_20  and  P1_21 
REMARK   14  A    between atoms: P1_21  and  O6_23 
REMARK   15  A    between atoms: P1_21  and  O7_24 
REMARK   16  A    between atoms: O7_24  and  P2_25 
REMARK   17  A    between atoms: P2_25  and  O9_27 
REMARK   18  A    between atoms: P2_25  and  O10_28 
REMARK   19  A    between atoms: O10_28  and  C14_29 
REMARK   20  A    between atoms: C14_29  and  C15_30 
REMARK   21  A    between atoms: C16_31  and  O13_49 
REMARK   22  A    between atoms: C17_32  and  O12_48 
REMARK   23  A    between atoms: C18_33  and  N3_35 
REMARK   24  A    between atoms: C21_40  and  N7_47 
REMARK   25  A    between atoms: O13_49  and  P3_50 
REMARK   26  A    between atoms: P3_50  and  O15_52 
REMARK   27  A    between atoms: P3_50  and  O16_53 
ROOT
HETATM    1  C1  UNL     1       4.197  12.489 -10.053  1.00  0.00     0.104 C 
HETATM    2  C2  UNL     1       3.320  11.689  -9.140  1.00  0.00     0.182 C 
HETATM    3  O1  UNL     1       2.636  12.191  -8.251  1.00  0.00    -0.286 OA
ENDROOT
BRANCH   2   4
HETATM    4  S1  UNL     1       3.375   9.954  -9.416  1.00  0.00    -0.091 SA
BRANCH   4   5
HETATM    5  C3  UNL     1       4.140   9.402  -7.857  1.00  0.00     0.102 C 
BRANCH   5   6
HETATM    6  C4  UNL     1       5.653   9.625  -7.854  1.00  0.00     0.133 C 
BRANCH   6   7
HETATM    7  N1  UNL     1       6.392   8.447  -7.450  1.00  0.00    -0.360 N 
HETATM    8  C5  UNL     1       7.726   8.506  -7.121  1.00  0.00     0.219 C 
HETATM    9  O2  UNL     1       8.387   9.533  -7.226  1.00  0.00    -0.274 OA
HETATM   10  H8  UNL     1       5.907   7.561  -7.403  1.00  0.00     0.162 HD
BRANCH   8  11
HETATM   11  C6  UNL     1       8.293   7.176  -6.674  1.00  0.00     0.122 C 
BRANCH  11  12
HETATM   12  C7  UNL     1       9.457   6.725  -7.556  1.00  0.00     0.132 C 
BRANCH  12  13
HETATM   13  N2  UNL     1      10.747   7.143  -7.050  1.00  0.00    -0.358 N 
HETATM   14  C8  UNL     1      11.674   7.722  -7.897  1.00  0.00     0.247 C 
HETATM   15  O3  UNL     1      11.495   7.795  -9.106  1.00  0.00    -0.271 OA
HETATM   16  H13 UNL     1      10.762   7.435  -6.075  1.00  0.00     0.162 HD
BRANCH  14  17
HETATM   17  C9  UNL     1      12.925   8.278  -7.201  1.00  0.00     0.219 C 
BRANCH  17  18
HETATM   18  C10 UNL     1      13.089   9.817  -7.308  1.00  0.00     0.009 C 
HETATM   19  C11 UNL     1      13.658  10.244  -8.670  1.00  0.00     0.020 C 
HETATM   20  C12 UNL     1      11.745  10.545  -7.106  1.00  0.00     0.020 C 
BRANCH  18  21
HETATM   21  C13 UNL     1      14.080  10.220  -6.179  1.00  0.00     0.192 C 
BRANCH  21  22
HETATM   22  O4  UNL     1      13.814  11.510  -5.664  1.00  0.00    -0.296 OA
BRANCH  22  23
HETATM   23  P1  UNL     1      14.755  12.774  -5.955  1.00  0.00     0.401 P 
HETATM   24  O5  UNL     1      14.188  13.746  -6.941  1.00  0.00    -0.631 OA
BRANCH  23  25
HETATM   25  O6  UNL     1      16.198  12.194  -6.370  1.00  0.00    -0.307 OA
HETATM   26  H23 UNL     1      16.273  12.060  -7.324  1.00  0.00     0.222 HD
ENDBRANCH  23  25
BRANCH  23  27
HETATM   27  O7  UNL     1      15.071  13.390  -4.522  1.00  0.00    -0.195 OA
BRANCH  27  28
HETATM   28  P2  UNL     1      13.869  13.973  -3.653  1.00  0.00     0.401 P 
HETATM   29  O8  UNL     1      13.104  15.115  -4.238  1.00  0.00    -0.631 OA
BRANCH  28  30
HETATM   30  O9  UNL     1      12.980  12.684  -3.344  1.00  0.00    -0.307 OA
HETATM   31  H24 UNL     1      12.876  12.072  -4.113  1.00  0.00     0.222 HD
ENDBRANCH  28  30
BRANCH  28  32
HETATM   32  O10 UNL     1      14.521  14.232  -2.218  1.00  0.00    -0.294 OA
BRANCH  32  33
HETATM   33  C14 UNL     1      13.750  14.067  -1.057  1.00  0.00     0.215 C 
BRANCH  33  34
HETATM   34  C15 UNL     1      14.445  12.984  -0.234  1.00  0.00     0.180 C 
HETATM   35  C16 UNL     1      15.323  13.630   0.830  1.00  0.00     0.197 C 
HETATM   36  C17 UNL     1      16.732  13.184   0.488  1.00  0.00     0.199 C 
HETATM   37  C18 UNL     1      16.482  11.877  -0.269  1.00  0.00     0.262 C 
HETATM   38  O11 UNL     1      15.277  12.128  -1.025  1.00  0.00    -0.353 OA
BRANCH  35  39
HETATM   39  O13 UNL     1      14.901  13.148   2.102  1.00  0.00    -0.286 OA
BRANCH  39  40
HETATM   40  P3  UNL     1      14.512  14.272   3.170  1.00  0.00     0.391 P 
HETATM   41  O14 UNL     1      13.609  13.784   4.256  1.00  0.00    -0.632 OA
BRANCH  40  42
HETATM   42  O15 UNL     1      13.956  15.421   2.205  1.00  0.00    -0.307 OA
HETATM   43  H36 UNL     1      14.399  15.383   1.325  1.00  0.00     0.222 HD
ENDBRANCH  40  42
BRANCH  40  44
HETATM   44  O16 UNL     1      15.945  14.817   3.592  1.00  0.00    -0.307 OA
HETATM   45  H37 UNL     1      16.667  14.234   3.308  1.00  0.00     0.222 HD
ENDBRANCH  40  44
ENDBRANCH  39  40
ENDBRANCH  35  39
BRANCH  36  46
HETATM   46  O12 UNL     1      17.531  13.114   1.672  1.00  0.00    -0.388 OA
HETATM   47  H35 UNL     1      17.274  12.280   2.132  1.00  0.00     0.210 HD
ENDBRANCH  36  46
BRANCH  37  48
HETATM   48  N3  UNL     1      17.552  11.555  -1.192  1.00  0.00    -0.297 N 
HETATM   49  C19 UNL     1      18.892  11.826  -1.038  1.00  0.00     0.188 A 
HETATM   50  N4  UNL     1      19.622  11.292  -1.993  1.00  0.00    -0.346 N 
HETATM   51  C20 UNL     1      18.711  10.638  -2.803  1.00  0.00     0.116 A 
HETATM   52  H4  UNL     1      20.633  11.347  -2.110  1.00  0.00     0.167 HD
HETATM   53  C21 UNL     1      18.857   9.847  -3.956  1.00  0.00     0.109 A 
HETATM   54  C23 UNL     1      17.421  10.826  -2.340  1.00  0.00     0.142 A 
HETATM   55  N5  UNL     1      17.744   9.342  -4.542  1.00  0.00    -0.341 N 
HETATM   56  C22 UNL     1      16.547   9.628  -3.992  1.00  0.00     0.183 A 
HETATM   57  H5  UNL     1      17.811   8.761  -5.378  1.00  0.00     0.167 HD
HETATM   58  N6  UNL     1      16.285  10.362  -2.891  1.00  0.00    -0.336 N 
HETATM   59  H6  UNL     1      15.350  10.542  -2.525  1.00  0.00     0.168 HD
BRANCH  53  60
HETATM   60  N7  UNL     1      20.084   9.562  -4.534  1.00  0.00    -0.287 NA
HETATM   61  H33 UNL     1      20.065   8.790  -5.197  1.00  0.00     0.125 HD
HETATM   62  H34 UNL     1      20.845   9.573  -3.869  1.00  0.00     0.125 HD
ENDBRANCH  53  60
ENDBRANCH  37  48
ENDBRANCH  33  34
ENDBRANCH  32  33
ENDBRANCH  28  32
ENDBRANCH  27  28
ENDBRANCH  23  27
ENDBRANCH  22  23
ENDBRANCH  21  22
ENDBRANCH  18  21
ENDBRANCH  17  18
BRANCH  17  63
HETATM   63  O17 UNL     1      12.919   7.918  -5.815  1.00  0.00    -0.385 OA
HETATM   64  H38 UNL     1      13.782   7.525  -5.602  1.00  0.00     0.210 HD
ENDBRANCH  17  63
ENDBRANCH  14  17
ENDBRANCH  12  13
ENDBRANCH  11  12
ENDBRANCH   8  11
ENDBRANCH   6   7
ENDBRANCH   5   6
ENDBRANCH   4   5
ENDBRANCH   2   4
TORSDOF 27
ENDMDL
