MODEL 1
REMARK VINA RESULT:      -4.1      0.000      0.000
REMARK  2 active torsions:
REMARK  status: ('A' for Active; 'I' for Inactive)
REMARK    1  A    between atoms: C3_3  and  O1_8 
REMARK    2  A    between atoms: C6_6  and  N1_7 
ROOT
HETATM    1  C1  UNL     1       7.773   3.924  -1.043  1.00  0.00     0.026 A 
HETATM    2  C2  UNL     1       7.984   2.903  -0.113  1.00  0.00     0.038 A 
HETATM    3  C3  UNL     1       8.912   3.080   0.903  1.00  0.00     0.065 A 
HETATM    4  C4  UNL     1       9.622   4.270   1.015  1.00  0.00     0.038 A 
HETATM    5  C5  UNL     1       9.406   5.287   0.080  1.00  0.00     0.026 A 
HETATM    6  C6  UNL     1       8.518   5.106  -0.985  1.00  0.00     0.005 A 
ENDROOT
BRANCH   6   7
HETATM    7  N1  UNL     1       8.221   6.170  -1.844  1.00  0.00    -0.303 NA
HETATM    8  H5  UNL     1       8.965   6.383  -2.501  1.00  0.00     0.124 HD
HETATM    9  H6  UNL     1       7.877   6.997  -1.368  1.00  0.00     0.124 HD
ENDBRANCH   6   7
BRANCH   3  10
HETATM   10  O1  UNL     1       9.087   2.061   1.792  1.00  0.00    -0.361 OA
HETATM   11  H7  UNL     1       9.269   1.246   1.297  1.00  0.00     0.217 HD
ENDBRANCH   3  10
TORSDOF 2
ENDMDL
MODEL 2
REMARK VINA RESULT:      -4.0      2.778      3.681
REMARK  2 active torsions:
REMARK  status: ('A' for Active; 'I' for Inactive)
REMARK    1  A    between atoms: C3_3  and  O1_8 
REMARK    2  A    between atoms: C6_6  and  N1_7 
ROOT
HETATM    1  C1  UNL     1       9.677   4.273   0.995  1.00  0.00     0.026 A 
HETATM    2  C2  UNL     1       9.425   5.309   0.092  1.00  0.00     0.038 A 
HETATM    3  C3  UNL     1       8.482   5.134  -0.911  1.00  0.00     0.065 A 
HETATM    4  C4  UNL     1       7.774   3.942  -1.016  1.00  0.00     0.038 A 
HETATM    5  C5  UNL     1       8.033   2.909  -0.110  1.00  0.00     0.026 A 
HETATM    6  C6  UNL     1       9.020   3.045   0.871  1.00  0.00     0.005 A 
ENDROOT
BRANCH   6   7
HETATM    7  N1  UNL     1       9.188   2.054   1.844  1.00  0.00    -0.303 NA
HETATM    8  H5  UNL     1       8.963   1.119   1.518  1.00  0.00     0.124 HD
HETATM    9  H6  UNL     1       8.745   2.271   2.731  1.00  0.00     0.124 HD
ENDBRANCH   6   7
BRANCH   3  10
HETATM   10  O1  UNL     1       8.263   6.169  -1.769  1.00  0.00    -0.361 OA
HETATM   11  H7  UNL     1       7.311   6.228  -1.947  1.00  0.00     0.217 HD
ENDBRANCH   3  10
TORSDOF 2
ENDMDL
MODEL 3
REMARK VINA RESULT:      -4.0     10.403     11.457
REMARK  2 active torsions:
REMARK  status: ('A' for Active; 'I' for Inactive)
REMARK    1  A    between atoms: C3_3  and  O1_8 
REMARK    2  A    between atoms: C6_6  and  N1_7 
ROOT
HETATM    1  C1  UNL     1       5.776  -4.874   3.022  1.00  0.00     0.026 A 
HETATM    2  C2  UNL     1       4.946  -4.609   1.930  1.00  0.00     0.038 A 
HETATM    3  C3  UNL     1       3.833  -5.407   1.703  1.00  0.00     0.065 A 
HETATM    4  C4  UNL     1       3.527  -6.456   2.563  1.00  0.00     0.038 A 
HETATM    5  C5  UNL     1       4.363  -6.716   3.652  1.00  0.00     0.026 A 
HETATM    6  C6  UNL     1       5.521  -5.961   3.864  1.00  0.00     0.005 A 
ENDROOT
BRANCH   6   7
HETATM    7  N1  UNL     1       6.285  -6.151   5.021  1.00  0.00    -0.303 NA
HETATM    8  H5  UNL     1       7.259  -5.884   4.915  1.00  0.00     0.124 HD
HETATM    9  H6  UNL     1       6.180  -7.070   5.436  1.00  0.00     0.124 HD
ENDBRANCH   6   7
BRANCH   3  10
HETATM   10  O1  UNL     1       3.046  -5.115   0.630  1.00  0.00    -0.361 OA
HETATM   11  H7  UNL     1       2.932  -4.152   0.582  1.00  0.00     0.217 HD
ENDBRANCH   3  10
TORSDOF 2
ENDMDL
MODEL 4
REMARK VINA RESULT:      -4.0     12.061     12.828
REMARK  2 active torsions:
REMARK  status: ('A' for Active; 'I' for Inactive)
REMARK    1  A    between atoms: C3_3  and  O1_8 
REMARK    2  A    between atoms: C6_6  and  N1_7 
ROOT
HETATM    1  C1  UNL     1       1.759  -7.373   1.446  1.00  0.00     0.026 A 
HETATM    2  C2  UNL     1       2.522  -8.225   2.248  1.00  0.00     0.038 A 
HETATM    3  C3  UNL     1       3.306  -7.696   3.263  1.00  0.00     0.065 A 
HETATM    4  C4  UNL     1       3.327  -6.325   3.500  1.00  0.00     0.038 A 
HETATM    5  C5  UNL     1       2.562  -5.479   2.692  1.00  0.00     0.026 A 
HETATM    6  C6  UNL     1       1.812  -5.988   1.627  1.00  0.00     0.005 A 
ENDROOT
BRANCH   6   7
HETATM    7  N1  UNL     1       0.958  -5.148   0.902  1.00  0.00    -0.303 NA
HETATM    8  H5  UNL     1       1.438  -4.571   0.218  1.00  0.00     0.124 HD
HETATM    9  H6  UNL     1       0.321  -4.612   1.481  1.00  0.00     0.124 HD
ENDBRANCH   6   7
BRANCH   3  10
HETATM   10  O1  UNL     1       4.033  -8.560   4.025  1.00  0.00    -0.361 OA
HETATM   11  H7  UNL     1       3.986  -8.272   4.951  1.00  0.00     0.217 HD
ENDBRANCH   3  10
TORSDOF 2
ENDMDL
MODEL 5
REMARK VINA RESULT:      -3.9     15.314     15.946
REMARK  2 active torsions:
REMARK  status: ('A' for Active; 'I' for Inactive)
REMARK    1  A    between atoms: C3_3  and  O1_8 
REMARK    2  A    between atoms: C6_6  and  N1_7 
ROOT
HETATM    1  C1  UNL     1      -2.566  -8.151   0.312  1.00  0.00     0.026 A 
HETATM    2  C2  UNL     1      -1.399  -8.701  -0.222  1.00  0.00     0.038 A 
HETATM    3  C3  UNL     1      -0.771  -8.078  -1.291  1.00  0.00     0.065 A 
HETATM    4  C4  UNL     1      -1.284  -6.901  -1.825  1.00  0.00     0.038 A 
HETATM    5  C5  UNL     1      -2.454  -6.357  -1.287  1.00  0.00     0.026 A 
HETATM    6  C6  UNL     1      -3.133  -7.002  -0.248  1.00  0.00     0.005 A 
ENDROOT
BRANCH   6   7
HETATM    7  N1  UNL     1      -4.233  -6.389   0.362  1.00  0.00    -0.303 NA
HETATM    8  H5  UNL     1      -5.040  -6.298  -0.248  1.00  0.00     0.124 HD
HETATM    9  H6  UNL     1      -4.009  -5.520   0.836  1.00  0.00     0.124 HD
ENDBRANCH   6   7
BRANCH   3  10
HETATM   10  O1  UNL     1       0.367  -8.645  -1.781  1.00  0.00    -0.361 OA
HETATM   11  H7  UNL     1       0.756  -8.042  -2.435  1.00  0.00     0.217 HD
ENDBRANCH   3  10
TORSDOF 2
ENDMDL
MODEL 6
REMARK VINA RESULT:      -3.9     12.297     13.223
REMARK  2 active torsions:
REMARK  status: ('A' for Active; 'I' for Inactive)
REMARK    1  A    between atoms: C3_3  and  O1_8 
REMARK    2  A    between atoms: C6_6  and  N1_7 
ROOT
HETATM    1  C1  UNL     1       3.407  -6.279   3.463  1.00  0.00     0.026 A 
HETATM    2  C2  UNL     1       2.574  -5.430   2.730  1.00  0.00     0.038 A 
HETATM    3  C3  UNL     1       1.773  -5.952   1.725  1.00  0.00     0.065 A 
HETATM    4  C4  UNL     1       1.780  -7.316   1.451  1.00  0.00     0.038 A 
HETATM    5  C5  UNL     1       2.617  -8.159   2.188  1.00  0.00     0.026 A 
HETATM    6  C6  UNL     1       3.474  -7.643   3.165  1.00  0.00     0.005 A 
ENDROOT
BRANCH   6   7
HETATM    7  N1  UNL     1       4.219  -8.507   3.977  1.00  0.00    -0.303 NA
HETATM    8  H5  UNL     1       3.651  -9.060   4.612  1.00  0.00     0.124 HD
HETATM    9  H6  UNL     1       4.998  -8.058   4.447  1.00  0.00     0.124 HD
ENDBRANCH   6   7
BRANCH   3  10
HETATM   10  O1  UNL     1       0.973  -5.093   1.034  1.00  0.00    -0.361 OA
HETATM   11  H7  UNL     1       0.966  -4.239   1.496  1.00  0.00     0.217 HD
ENDBRANCH   3  10
TORSDOF 2
ENDMDL
MODEL 7
REMARK VINA RESULT:      -3.9     10.175     11.055
REMARK  2 active torsions:
REMARK  status: ('A' for Active; 'I' for Inactive)
REMARK    1  A    between atoms: C3_3  and  O1_8 
REMARK    2  A    between atoms: C6_6  and  N1_7 
ROOT
HETATM    1  C1  UNL     1       3.591  -6.558   2.565  1.00  0.00     0.026 A 
HETATM    2  C2  UNL     1       4.428  -6.759   3.664  1.00  0.00     0.038 A 
HETATM    3  C3  UNL     1       5.498  -5.902   3.881  1.00  0.00     0.065 A 
HETATM    4  C4  UNL     1       5.734  -4.834   3.022  1.00  0.00     0.038 A 
HETATM    5  C5  UNL     1       4.892  -4.640   1.922  1.00  0.00     0.026 A 
HETATM    6  C6  UNL     1       3.845  -5.527   1.655  1.00  0.00     0.005 A 
ENDROOT
BRANCH   6   7
HETATM    7  N1  UNL     1       2.939  -5.257   0.623  1.00  0.00    -0.303 NA
HETATM    8  H5  UNL     1       2.792  -6.040  -0.006  1.00  0.00     0.124 HD
HETATM    9  H6  UNL     1       3.127  -4.393   0.127  1.00  0.00     0.124 HD
ENDBRANCH   6   7
BRANCH   3  10
HETATM   10  O1  UNL     1       6.289  -6.130   4.966  1.00  0.00    -0.361 OA
HETATM   11  H7  UNL     1       5.758  -6.005   5.769  1.00  0.00     0.217 HD
ENDBRANCH   3  10
TORSDOF 2
ENDMDL
MODEL 8
REMARK VINA RESULT:      -3.9      9.942     10.916
REMARK  2 active torsions:
REMARK  status: ('A' for Active; 'I' for Inactive)
REMARK    1  A    between atoms: C3_3  and  O1_8 
REMARK    2  A    between atoms: C6_6  and  N1_7 
ROOT
HETATM    1  C1  UNL     1       5.980  -4.504   2.227  1.00  0.00     0.026 A 
HETATM    2  C2  UNL     1       4.693  -4.665   2.744  1.00  0.00     0.038 A 
HETATM    3  C3  UNL     1       4.365  -5.832   3.421  1.00  0.00     0.065 A 
HETATM    4  C4  UNL     1       5.311  -6.834   3.603  1.00  0.00     0.038 A 
HETATM    5  C5  UNL     1       6.597  -6.666   3.082  1.00  0.00     0.026 A 
HETATM    6  C6  UNL     1       6.929  -5.524   2.346  1.00  0.00     0.005 A 
ENDROOT
BRANCH   6   7
HETATM    7  N1  UNL     1       8.249  -5.311   1.932  1.00  0.00    -0.303 NA
HETATM    8  H5  UNL     1       8.365  -5.311   0.924  1.00  0.00     0.124 HD
HETATM    9  H6  UNL     1       8.926  -5.905   2.399  1.00  0.00     0.124 HD
ENDBRANCH   6   7
BRANCH   3  10
HETATM   10  O1  UNL     1       3.099  -5.950   3.912  1.00  0.00    -0.361 OA
HETATM   11  H7  UNL     1       2.699  -5.067   3.952  1.00  0.00     0.217 HD
ENDBRANCH   3  10
TORSDOF 2
ENDMDL
MODEL 9
REMARK VINA RESULT:      -3.8      9.763     10.293
REMARK  2 active torsions:
REMARK  status: ('A' for Active; 'I' for Inactive)
REMARK    1  A    between atoms: C3_3  and  O1_8 
REMARK    2  A    between atoms: C6_6  and  N1_7 
ROOT
HETATM    1  C1  UNL     1       5.104  -6.212   0.719  1.00  0.00     0.026 A 
HETATM    2  C2  UNL     1       6.480  -6.296   0.945  1.00  0.00     0.038 A 
HETATM    3  C3  UNL     1       7.077  -5.460   1.877  1.00  0.00     0.065 A 
HETATM    4  C4  UNL     1       6.315  -4.549   2.601  1.00  0.00     0.038 A 
HETATM    5  C5  UNL     1       4.939  -4.470   2.369  1.00  0.00     0.026 A 
HETATM    6  C6  UNL     1       4.329  -5.263   1.392  1.00  0.00     0.005 A 
ENDROOT
BRANCH   6   7
HETATM    7  N1  UNL     1       2.936  -5.261   1.252  1.00  0.00    -0.303 NA
HETATM    8  H5  UNL     1       2.588  -5.985   0.631  1.00  0.00     0.124 HD
HETATM    9  H6  UNL     1       2.546  -4.350   1.038  1.00  0.00     0.124 HD
ENDBRANCH   6   7
BRANCH   3  10
HETATM   10  O1  UNL     1       8.421  -5.574   2.070  1.00  0.00    -0.361 OA
HETATM   11  H7  UNL     1       8.579  -5.878   2.978  1.00  0.00     0.217 HD
ENDBRANCH   3  10
TORSDOF 2
ENDMDL
MODEL 10
REMARK VINA RESULT:      -3.8     11.516     12.414
REMARK  2 active torsions:
REMARK  status: ('A' for Active; 'I' for Inactive)
REMARK    1  A    between atoms: C3_3  and  O1_8 
REMARK    2  A    between atoms: C6_6  and  N1_7 
ROOT
HETATM    1  C1  UNL     1       5.796  -7.279   3.571  1.00  0.00     0.026 A 
HETATM    2  C2  UNL     1       4.748  -8.201   3.517  1.00  0.00     0.038 A 
HETATM    3  C3  UNL     1       3.441  -7.750   3.390  1.00  0.00     0.065 A 
HETATM    4  C4  UNL     1       3.168  -6.390   3.298  1.00  0.00     0.038 A 
HETATM    5  C5  UNL     1       4.222  -5.473   3.354  1.00  0.00     0.026 A 
HETATM    6  C6  UNL     1       5.539  -5.905   3.541  1.00  0.00     0.005 A 
ENDROOT
BRANCH   6   7
HETATM    7  N1  UNL     1       6.597  -4.991   3.476  1.00  0.00    -0.303 NA
HETATM    8  H5  UNL     1       7.207  -5.130   2.676  1.00  0.00     0.124 HD
HETATM    9  H6  UNL     1       7.113  -4.898   4.344  1.00  0.00     0.124 HD
ENDBRANCH   6   7
BRANCH   3  10
HETATM   10  O1  UNL     1       2.447  -8.680   3.338  1.00  0.00    -0.361 OA
HETATM   11  H7  UNL     1       2.128  -8.743   2.424  1.00  0.00     0.217 HD
ENDBRANCH   3  10
TORSDOF 2
ENDMDL
MODEL 11
REMARK VINA RESULT:      -3.8     15.420     16.187
REMARK  2 active torsions:
REMARK  status: ('A' for Active; 'I' for Inactive)
REMARK    1  A    between atoms: C3_3  and  O1_8 
REMARK    2  A    between atoms: C6_6  and  N1_7 
ROOT
HETATM    1  C1  UNL     1      -0.871  -9.220  -0.821  1.00  0.00     0.026 A 
HETATM    2  C2  UNL     1      -0.520  -8.191  -1.698  1.00  0.00     0.038 A 
HETATM    3  C3  UNL     1      -1.157  -6.961  -1.606  1.00  0.00     0.065 A 
HETATM    4  C4  UNL     1      -2.129  -6.739  -0.637  1.00  0.00     0.038 A 
HETATM    5  C5  UNL     1      -2.476  -7.774   0.237  1.00  0.00     0.026 A 
HETATM    6  C6  UNL     1      -1.888  -9.038   0.121  1.00  0.00     0.005 A 
ENDROOT
BRANCH   6   7
HETATM    7  N1  UNL     1      -2.153 -10.029   1.073  1.00  0.00    -0.303 NA
HETATM    8  H5  UNL     1      -3.053 -10.482   0.949  1.00  0.00     0.124 HD
HETATM    9  H6  UNL     1      -2.000  -9.730   2.030  1.00  0.00     0.124 HD
ENDBRANCH   6   7
BRANCH   3  10
HETATM   10  O1  UNL     1      -0.785  -5.982  -2.477  1.00  0.00    -0.361 OA
HETATM   11  H7  UNL     1       0.074  -5.628  -2.197  1.00  0.00     0.217 HD
ENDBRANCH   3  10
TORSDOF 2
ENDMDL
MODEL 12
REMARK VINA RESULT:      -3.8      9.874     10.445
REMARK  2 active torsions:
REMARK  status: ('A' for Active; 'I' for Inactive)
REMARK    1  A    between atoms: C3_3  and  O1_8 
REMARK    2  A    between atoms: C6_6  and  N1_7 
ROOT
HETATM    1  C1  UNL     1       6.437  -6.325   0.946  1.00  0.00     0.026 A 
HETATM    2  C2  UNL     1       5.066  -6.191   0.720  1.00  0.00     0.038 A 
HETATM    3  C3  UNL     1       4.339  -5.251   1.437  1.00  0.00     0.065 A 
HETATM    4  C4  UNL     1       4.967  -4.430   2.367  1.00  0.00     0.038 A 
HETATM    5  C5  UNL     1       6.340  -4.571   2.589  1.00  0.00     0.026 A 
HETATM    6  C6  UNL     1       7.078  -5.551   1.919  1.00  0.00     0.005 A 
ENDROOT
BRANCH   6   7
HETATM    7  N1  UNL     1       8.470  -5.605   2.059  1.00  0.00    -0.303 NA
HETATM    8  H5  UNL     1       8.823  -5.050   2.832  1.00  0.00     0.124 HD
HETATM    9  H6  UNL     1       8.976  -5.432   1.197  1.00  0.00     0.124 HD
ENDBRANCH   6   7
BRANCH   3  10
HETATM   10  O1  UNL     1       3.003  -5.150   1.185  1.00  0.00    -0.361 OA
HETATM   11  H7  UNL     1       2.694  -4.285   1.499  1.00  0.00     0.217 HD
ENDBRANCH   3  10
TORSDOF 2
ENDMDL
MODEL 13
REMARK VINA RESULT:      -3.8     15.386     15.998
REMARK  2 active torsions:
REMARK  status: ('A' for Active; 'I' for Inactive)
REMARK    1  A    between atoms: C3_3  and  O1_8 
REMARK    2  A    between atoms: C6_6  and  N1_7 
ROOT
HETATM    1  C1  UNL     1      -1.477  -8.709  -0.104  1.00  0.00     0.026 A 
HETATM    2  C2  UNL     1      -2.624  -8.037   0.322  1.00  0.00     0.038 A 
HETATM    3  C3  UNL     1      -3.017  -6.871  -0.320  1.00  0.00     0.065 A 
HETATM    4  C4  UNL     1      -2.288  -6.374  -1.394  1.00  0.00     0.038 A 
HETATM    5  C5  UNL     1      -1.140  -7.052  -1.815  1.00  0.00     0.026 A 
HETATM    6  C6  UNL     1      -0.695  -8.195  -1.143  1.00  0.00     0.005 A 
ENDROOT
BRANCH   6   7
HETATM    7  N1  UNL     1       0.385  -8.931  -1.644  1.00  0.00    -0.303 NA
HETATM    8  H5  UNL     1       0.376  -9.032  -2.654  1.00  0.00     0.124 HD
HETATM    9  H6  UNL     1       0.535  -9.815  -1.168  1.00  0.00     0.124 HD
ENDBRANCH   6   7
BRANCH   3  10
HETATM   10  O1  UNL     1      -4.144  -6.246   0.124  1.00  0.00    -0.361 OA
HETATM   11  H7  UNL     1      -3.890  -5.577   0.779  1.00  0.00     0.217 HD
ENDBRANCH   3  10
TORSDOF 2
ENDMDL
MODEL 14
REMARK VINA RESULT:      -3.8     13.062     13.967
REMARK  2 active torsions:
REMARK  status: ('A' for Active; 'I' for Inactive)
REMARK    1  A    between atoms: C3_3  and  O1_8 
REMARK    2  A    between atoms: C6_6  and  N1_7 
ROOT
HETATM    1  C1  UNL     1      -1.336  -6.825  -1.748  1.00  0.00     0.026 A 
HETATM    2  C2  UNL     1      -0.150  -6.519  -2.419  1.00  0.00     0.038 A 
HETATM    3  C3  UNL     1       0.865  -5.848  -1.751  1.00  0.00     0.065 A 
HETATM    4  C4  UNL     1       0.718  -5.492  -0.415  1.00  0.00     0.038 A 
HETATM    5  C5  UNL     1      -0.473  -5.801   0.250  1.00  0.00     0.026 A 
HETATM    6  C6  UNL     1      -1.529  -6.424  -0.422  1.00  0.00     0.005 A 
ENDROOT
BRANCH   6   7
HETATM    7  N1  UNL     1      -2.667  -6.835   0.280  1.00  0.00    -0.303 NA
HETATM    8  H5  UNL     1      -2.664  -7.822   0.520  1.00  0.00     0.124 HD
HETATM    9  H6  UNL     1      -3.540  -6.544  -0.146  1.00  0.00     0.124 HD
ENDBRANCH   6   7
BRANCH   3  10
HETATM   10  O1  UNL     1       2.007  -5.569  -2.439  1.00  0.00    -0.361 OA
HETATM   11  H7  UNL     1       2.768  -5.764  -1.869  1.00  0.00     0.217 HD
ENDBRANCH   3  10
TORSDOF 2
ENDMDL
MODEL 15
REMARK VINA RESULT:      -3.8     10.753     11.781
REMARK  2 active torsions:
REMARK  status: ('A' for Active; 'I' for Inactive)
REMARK    1  A    between atoms: C3_3  and  O1_8 
REMARK    2  A    between atoms: C6_6  and  N1_7 
ROOT
HETATM    1  C1  UNL     1       5.407  -7.342   3.444  1.00  0.00     0.026 A 
HETATM    2  C2  UNL     1       6.271  -6.302   3.094  1.00  0.00     0.038 A 
HETATM    3  C3  UNL     1       5.752  -5.059   2.762  1.00  0.00     0.065 A 
HETATM    4  C4  UNL     1       4.380  -4.834   2.790  1.00  0.00     0.038 A 
HETATM    5  C5  UNL     1       3.521  -5.880   3.139  1.00  0.00     0.026 A 
HETATM    6  C6  UNL     1       4.021  -7.156   3.420  1.00  0.00     0.005 A 
ENDROOT
BRANCH   6   7
HETATM    7  N1  UNL     1       3.166  -8.162   3.884  1.00  0.00    -0.303 NA
HETATM    8  H5  UNL     1       2.402  -7.816   4.456  1.00  0.00     0.124 HD
HETATM    9  H6  UNL     1       3.648  -8.944   4.315  1.00  0.00     0.124 HD
ENDBRANCH   6   7
BRANCH   3  10
HETATM   10  O1  UNL     1       6.628  -4.070   2.429  1.00  0.00    -0.361 OA
HETATM   11  H7  UNL     1       7.149  -3.840   3.215  1.00  0.00     0.217 HD
ENDBRANCH   3  10
TORSDOF 2
ENDMDL
MODEL 16
REMARK VINA RESULT:      -3.7      3.136      4.086
REMARK  2 active torsions:
REMARK  status: ('A' for Active; 'I' for Inactive)
REMARK    1  A    between atoms: C3_3  and  O1_8 
REMARK    2  A    between atoms: C6_6  and  N1_7 
ROOT
HETATM    1  C1  UNL     1       9.429   3.429   2.160  1.00  0.00     0.026 A 
HETATM    2  C2  UNL     1       8.833   3.896   0.986  1.00  0.00     0.038 A 
HETATM    3  C3  UNL     1       8.300   2.991   0.079  1.00  0.00     0.065 A 
HETATM    4  C4  UNL     1       8.340   1.625   0.336  1.00  0.00     0.038 A 
HETATM    5  C5  UNL     1       8.939   1.165   1.512  1.00  0.00     0.026 A 
HETATM    6  C6  UNL     1       9.534   2.058   2.410  1.00  0.00     0.005 A 
ENDROOT
BRANCH   6   7
HETATM    7  N1  UNL     1      10.024   1.600   3.638  1.00  0.00    -0.303 NA
HETATM    8  H5  UNL     1      10.980   1.886   3.828  1.00  0.00     0.124 HD
HETATM    9  H6  UNL     1       9.881   0.607   3.793  1.00  0.00     0.124 HD
ENDBRANCH   6   7
BRANCH   3  10
HETATM   10  O1  UNL     1       7.725   3.485  -1.053  1.00  0.00    -0.361 OA
HETATM   11  H7  UNL     1       8.346   3.374  -1.790  1.00  0.00     0.217 HD
ENDBRANCH   3  10
TORSDOF 2
ENDMDL
MODEL 17
REMARK VINA RESULT:      -3.7     13.285     14.296
REMARK  2 active torsions:
REMARK  status: ('A' for Active; 'I' for Inactive)
REMARK    1  A    between atoms: C3_3  and  O1_8 
REMARK    2  A    between atoms: C6_6  and  N1_7 
ROOT
HETATM    1  C1  UNL     1      -0.204  -5.940   0.475  1.00  0.00     0.026 A 
HETATM    2  C2  UNL     1      -0.762  -7.216   0.571  1.00  0.00     0.038 A 
HETATM    3  C3  UNL     1      -1.059  -7.926  -0.584  1.00  0.00     0.065 A 
HETATM    4  C4  UNL     1      -0.791  -7.384  -1.836  1.00  0.00     0.038 A 
HETATM    5  C5  UNL     1      -0.233  -6.105  -1.924  1.00  0.00     0.026 A 
HETATM    6  C6  UNL     1       0.018  -5.351  -0.774  1.00  0.00     0.005 A 
ENDROOT
BRANCH   6   7
HETATM    7  N1  UNL     1       0.685  -4.124  -0.867  1.00  0.00    -0.303 NA
HETATM    8  H5  UNL     1       0.287  -3.495  -1.557  1.00  0.00     0.124 HD
HETATM    9  H6  UNL     1       1.692  -4.210  -0.958  1.00  0.00     0.124 HD
ENDBRANCH   6   7
BRANCH   3  10
HETATM   10  O1  UNL     1      -1.600  -9.169  -0.448  1.00  0.00    -0.361 OA
HETATM   11  H7  UNL     1      -1.165  -9.766  -1.078  1.00  0.00     0.217 HD
ENDBRANCH   3  10
TORSDOF 2
ENDMDL
MODEL 18
REMARK VINA RESULT:      -3.7     17.629     18.008
REMARK  2 active torsions:
REMARK  status: ('A' for Active; 'I' for Inactive)
REMARK    1  A    between atoms: C3_3  and  O1_8 
REMARK    2  A    between atoms: C6_6  and  N1_7 
ROOT
HETATM    1  C1  UNL     1      -5.846  -6.857   2.267  1.00  0.00     0.026 A 
HETATM    2  C2  UNL     1      -4.953  -7.314   1.295  1.00  0.00     0.038 A 
HETATM    3  C3  UNL     1      -3.744  -7.873   1.680  1.00  0.00     0.065 A 
HETATM    4  C4  UNL     1      -3.418  -7.998   3.027  1.00  0.00     0.038 A 
HETATM    5  C5  UNL     1      -4.316  -7.538   3.994  1.00  0.00     0.026 A 
HETATM    6  C6  UNL     1      -5.514  -6.918   3.624  1.00  0.00     0.005 A 
ENDROOT
BRANCH   6   7
HETATM    7  N1  UNL     1      -6.457  -6.569   4.597  1.00  0.00    -0.303 NA
HETATM    8  H5  UNL     1      -7.404  -6.857   4.370  1.00  0.00     0.124 HD
HETATM    9  H6  UNL     1      -6.408  -5.598   4.887  1.00  0.00     0.124 HD
ENDBRANCH   6   7
BRANCH   3  10
HETATM   10  O1  UNL     1      -2.901  -8.310   0.702  1.00  0.00    -0.361 OA
HETATM   11  H7  UNL     1      -3.339  -8.196  -0.157  1.00  0.00     0.217 HD
ENDBRANCH   3  10
TORSDOF 2
ENDMDL
MODEL 19
REMARK VINA RESULT:      -3.6     12.524     13.604
REMARK  2 active torsions:
REMARK  status: ('A' for Active; 'I' for Inactive)
REMARK    1  A    between atoms: C3_3  and  O1_8 
REMARK    2  A    between atoms: C6_6  and  N1_7 
ROOT
HETATM    1  C1  UNL     1       1.189  -5.896   0.177  1.00  0.00     0.026 A 
HETATM    2  C2  UNL     1       0.908  -4.776  -0.607  1.00  0.00     0.038 A 
HETATM    3  C3  UNL     1       0.168  -4.919  -1.772  1.00  0.00     0.065 A 
HETATM    4  C4  UNL     1      -0.310  -6.167  -2.157  1.00  0.00     0.038 A 
HETATM    5  C5  UNL     1      -0.024  -7.284  -1.368  1.00  0.00     0.026 A 
HETATM    6  C6  UNL     1       0.769  -7.169  -0.222  1.00  0.00     0.005 A 
ENDROOT
BRANCH   6   7
HETATM    7  N1  UNL     1       0.950  -8.269   0.624  1.00  0.00    -0.303 NA
HETATM    8  H5  UNL     1       1.670  -8.912   0.309  1.00  0.00     0.124 HD
HETATM    9  H6  UNL     1       0.088  -8.744   0.869  1.00  0.00     0.124 HD
ENDBRANCH   6   7
BRANCH   3  10
HETATM   10  O1  UNL     1      -0.087  -3.802  -2.509  1.00  0.00    -0.361 OA
HETATM   11  H7  UNL     1      -1.046  -3.661  -2.536  1.00  0.00     0.217 HD
ENDBRANCH   3  10
TORSDOF 2
ENDMDL
MODEL 20
REMARK VINA RESULT:      -3.6      1.475      2.065
REMARK  2 active torsions:
REMARK  status: ('A' for Active; 'I' for Inactive)
REMARK    1  A    between atoms: C3_3  and  O1_8 
REMARK    2  A    between atoms: C6_6  and  N1_7 
ROOT
HETATM    1  C1  UNL     1       9.781   4.169  -1.220  1.00  0.00     0.026 A 
HETATM    2  C2  UNL     1      10.012   2.840  -0.859  1.00  0.00     0.038 A 
HETATM    3  C3  UNL     1       8.944   2.026  -0.510  1.00  0.00     0.065 A 
HETATM    4  C4  UNL     1       7.643   2.517  -0.532  1.00  0.00     0.038 A 
HETATM    5  C5  UNL     1       7.419   3.849  -0.893  1.00  0.00     0.026 A 
HETATM    6  C6  UNL     1       8.488   4.701  -1.191  1.00  0.00     0.005 A 
ENDROOT
BRANCH   6   7
HETATM    7  N1  UNL     1       8.246   5.995  -1.666  1.00  0.00    -0.303 NA
HETATM    8  H5  UNL     1       7.512   6.042  -2.365  1.00  0.00     0.124 HD
HETATM    9  H6  UNL     1       9.084   6.490  -1.951  1.00  0.00     0.124 HD
ENDBRANCH   6   7
BRANCH   3  10
HETATM   10  O1  UNL     1       9.211   0.735  -0.167  1.00  0.00    -0.361 OA
HETATM   11  H7  UNL     1       8.408   0.206  -0.303  1.00  0.00     0.217 HD
ENDBRANCH   3  10
TORSDOF 2
ENDMDL
