MODEL 1
REMARK VINA RESULT:      -4.6      0.000      0.000
REMARK  2 active torsions:
REMARK  status: ('A' for Active; 'I' for Inactive)
REMARK    1  A    between atoms: C3_3  and  O1_8 
REMARK    2  A    between atoms: C6_6  and  N1_7 
ROOT
HETATM    1  C1  UNL     1      -0.740  -7.291  -9.107  1.00  0.00     0.026 A 
HETATM    2  C2  UNL     1      -1.326  -8.527  -8.825  1.00  0.00     0.038 A 
HETATM    3  C3  UNL     1      -1.008  -9.632  -9.601  1.00  0.00     0.065 A 
HETATM    4  C4  UNL     1      -0.098  -9.524 -10.647  1.00  0.00     0.038 A 
HETATM    5  C5  UNL     1       0.484  -8.283 -10.924  1.00  0.00     0.026 A 
HETATM    6  C6  UNL     1       0.132  -7.146 -10.190  1.00  0.00     0.005 A 
ENDROOT
BRANCH   6   7
HETATM    7  N1  UNL     1       0.806  -5.937 -10.397  1.00  0.00    -0.303 NA
HETATM    8  H5  UNL     1       0.642  -5.249  -9.668  1.00  0.00     0.124 HD
HETATM    9  H6  UNL     1       0.683  -5.552 -11.327  1.00  0.00     0.124 HD
ENDBRANCH   6   7
BRANCH   3  10
HETATM   10  O1  UNL     1      -1.599 -10.820  -9.293  1.00  0.00    -0.361 OA
HETATM   11  H7  UNL     1      -1.928 -11.225 -10.112  1.00  0.00     0.217 HD
ENDBRANCH   3  10
TORSDOF 2
ENDMDL
MODEL 2
REMARK VINA RESULT:      -4.6      2.790      3.672
REMARK  2 active torsions:
REMARK  status: ('A' for Active; 'I' for Inactive)
REMARK    1  A    between atoms: C3_3  and  O1_8 
REMARK    2  A    between atoms: C6_6  and  N1_7 
ROOT
HETATM    1  C1  UNL     1       0.038  -9.550 -10.842  1.00  0.00     0.026 A 
HETATM    2  C2  UNL     1       0.610  -8.275 -10.862  1.00  0.00     0.038 A 
HETATM    3  C3  UNL     1       0.065  -7.265 -10.082  1.00  0.00     0.065 A 
HETATM    4  C4  UNL     1      -1.035  -7.514  -9.268  1.00  0.00     0.038 A 
HETATM    5  C5  UNL     1      -1.602  -8.791  -9.254  1.00  0.00     0.026 A 
HETATM    6  C6  UNL     1      -1.104  -9.807 -10.077  1.00  0.00     0.005 A 
ENDROOT
BRANCH   6   7
HETATM    7  N1  UNL     1      -1.601 -11.110  -9.968  1.00  0.00    -0.303 NA
HETATM    8  H5  UNL     1      -2.371 -11.199  -9.312  1.00  0.00     0.124 HD
HETATM    9  H6  UNL     1      -0.884 -11.812  -9.818  1.00  0.00     0.124 HD
ENDBRANCH   6   7
BRANCH   3  10
HETATM   10  O1  UNL     1       0.652  -6.036 -10.128  1.00  0.00    -0.361 OA
HETATM   11  H7  UNL     1       1.536  -6.130 -10.517  1.00  0.00     0.217 HD
ENDBRANCH   3  10
TORSDOF 2
ENDMDL
MODEL 3
REMARK VINA RESULT:      -4.2      1.444      2.380
REMARK  2 active torsions:
REMARK  status: ('A' for Active; 'I' for Inactive)
REMARK    1  A    between atoms: C3_3  and  O1_8 
REMARK    2  A    between atoms: C6_6  and  N1_7 
ROOT
HETATM    1  C1  UNL     1       0.618  -9.373 -10.137  1.00  0.00     0.026 A 
HETATM    2  C2  UNL     1       0.411 -10.751 -10.224  1.00  0.00     0.038 A 
HETATM    3  C3  UNL     1      -0.692 -11.321  -9.605  1.00  0.00     0.065 A 
HETATM    4  C4  UNL     1      -1.603 -10.530  -8.913  1.00  0.00     0.038 A 
HETATM    5  C5  UNL     1      -1.389  -9.151  -8.830  1.00  0.00     0.026 A 
HETATM    6  C6  UNL     1      -0.252  -8.566  -9.397  1.00  0.00     0.005 A 
ENDROOT
BRANCH   6   7
HETATM    7  N1  UNL     1      -0.108  -7.174  -9.412  1.00  0.00    -0.303 NA
HETATM    8  H5  UNL     1       0.667  -6.839  -8.849  1.00  0.00     0.124 HD
HETATM    9  H6  UNL     1      -0.968  -6.671  -9.223  1.00  0.00     0.124 HD
ENDBRANCH   6   7
BRANCH   3  10
HETATM   10  O1  UNL     1      -0.860 -12.669  -9.714  1.00  0.00    -0.361 OA
HETATM   11  H7  UNL     1      -0.723 -12.924 -10.640  1.00  0.00     0.217 HD
ENDBRANCH   3  10
TORSDOF 2
ENDMDL
MODEL 4
REMARK VINA RESULT:      -4.2      2.924      3.599
REMARK  2 active torsions:
REMARK  status: ('A' for Active; 'I' for Inactive)
REMARK    1  A    between atoms: C3_3  and  O1_8 
REMARK    2  A    between atoms: C6_6  and  N1_7 
ROOT
HETATM    1  C1  UNL     1       1.516 -10.082  -9.845  1.00  0.00     0.026 A 
HETATM    2  C2  UNL     1       0.608  -9.486 -10.724  1.00  0.00     0.038 A 
HETATM    3  C3  UNL     1      -0.746  -9.769 -10.610  1.00  0.00     0.065 A 
HETATM    4  C4  UNL     1      -1.209 -10.627  -9.620  1.00  0.00     0.038 A 
HETATM    5  C5  UNL     1      -0.295 -11.222  -8.745  1.00  0.00     0.026 A 
HETATM    6  C6  UNL     1       1.079 -10.995  -8.881  1.00  0.00     0.005 A 
ENDROOT
BRANCH   6   7
HETATM    7  N1  UNL     1       1.973 -11.499  -7.929  1.00  0.00    -0.303 NA
HETATM    8  H5  UNL     1       2.727 -10.859  -7.700  1.00  0.00     0.124 HD
HETATM    9  H6  UNL     1       2.309 -12.433  -8.135  1.00  0.00     0.124 HD
ENDBRANCH   6   7
BRANCH   3  10
HETATM   10  O1  UNL     1      -1.599  -9.165 -11.484  1.00  0.00    -0.361 OA
HETATM   11  H7  UNL     1      -1.513  -9.596 -12.350  1.00  0.00     0.217 HD
ENDBRANCH   3  10
TORSDOF 2
ENDMDL
MODEL 5
REMARK VINA RESULT:      -4.1      5.048      5.679
REMARK  2 active torsions:
REMARK  status: ('A' for Active; 'I' for Inactive)
REMARK    1  A    between atoms: C3_3  and  O1_8 
REMARK    2  A    between atoms: C6_6  and  N1_7 
ROOT
HETATM    1  C1  UNL     1       2.756 -10.153 -10.348  1.00  0.00     0.026 A 
HETATM    2  C2  UNL     1       3.741 -10.560 -11.251  1.00  0.00     0.038 A 
HETATM    3  C3  UNL     1       4.821 -11.305 -10.800  1.00  0.00     0.065 A 
HETATM    4  C4  UNL     1       4.924 -11.664  -9.461  1.00  0.00     0.038 A 
HETATM    5  C5  UNL     1       3.935 -11.252  -8.563  1.00  0.00     0.026 A 
HETATM    6  C6  UNL     1       2.870 -10.451  -8.986  1.00  0.00     0.005 A 
ENDROOT
BRANCH   6   7
HETATM    7  N1  UNL     1       1.826 -10.144  -8.107  1.00  0.00    -0.303 NA
HETATM    8  H5  UNL     1       0.942  -9.958  -8.572  1.00  0.00     0.124 HD
HETATM    9  H6  UNL     1       2.060  -9.432  -7.424  1.00  0.00     0.124 HD
ENDBRANCH   6   7
BRANCH   3  10
HETATM   10  O1  UNL     1       5.759 -11.686 -11.712  1.00  0.00    -0.361 OA
HETATM   11  H7  UNL     1       6.382 -10.953 -11.840  1.00  0.00     0.217 HD
ENDBRANCH   3  10
TORSDOF 2
ENDMDL
MODEL 6
REMARK VINA RESULT:      -4.1      2.810      3.200
REMARK  2 active torsions:
REMARK  status: ('A' for Active; 'I' for Inactive)
REMARK    1  A    between atoms: C3_3  and  O1_8 
REMARK    2  A    between atoms: C6_6  and  N1_7 
ROOT
HETATM    1  C1  UNL     1      -0.418 -10.692  -8.632  1.00  0.00     0.026 A 
HETATM    2  C2  UNL     1      -1.270 -10.067  -9.545  1.00  0.00     0.038 A 
HETATM    3  C3  UNL     1      -0.738  -9.430 -10.657  1.00  0.00     0.065 A 
HETATM    4  C4  UNL     1       0.635  -9.421 -10.879  1.00  0.00     0.038 A 
HETATM    5  C5  UNL     1       1.482 -10.047  -9.959  1.00  0.00     0.026 A 
HETATM    6  C6  UNL     1       0.969 -10.644  -8.803  1.00  0.00     0.005 A 
ENDROOT
BRANCH   6   7
HETATM    7  N1  UNL     1       1.811 -11.369  -7.952  1.00  0.00    -0.303 NA
HETATM    8  H5  UNL     1       2.757 -11.005  -7.907  1.00  0.00     0.124 HD
HETATM    9  H6  UNL     1       1.789 -12.371  -8.109  1.00  0.00     0.124 HD
ENDBRANCH   6   7
BRANCH   3  10
HETATM   10  O1  UNL     1      -1.602  -8.835 -11.526  1.00  0.00    -0.361 OA
HETATM   11  H7  UNL     1      -2.509  -9.070 -11.272  1.00  0.00     0.217 HD
ENDBRANCH   3  10
TORSDOF 2
ENDMDL
MODEL 7
REMARK VINA RESULT:      -4.0      6.404      6.921
REMARK  2 active torsions:
REMARK  status: ('A' for Active; 'I' for Inactive)
REMARK    1  A    between atoms: C3_3  and  O1_8 
REMARK    2  A    between atoms: C6_6  and  N1_7 
ROOT
HETATM    1  C1  UNL     1       5.080 -10.705  -7.850  1.00  0.00     0.026 A 
HETATM    2  C2  UNL     1       6.299 -10.532  -8.510  1.00  0.00     0.038 A 
HETATM    3  C3  UNL     1       6.409 -10.873  -9.851  1.00  0.00     0.065 A 
HETATM    4  C4  UNL     1       5.312 -11.370 -10.547  1.00  0.00     0.038 A 
HETATM    5  C5  UNL     1       4.096 -11.542  -9.879  1.00  0.00     0.026 A 
HETATM    6  C6  UNL     1       3.982 -11.259  -8.514  1.00  0.00     0.005 A 
ENDROOT
BRANCH   6   7
HETATM    7  N1  UNL     1       2.734 -11.320  -7.884  1.00  0.00    -0.303 NA
HETATM    8  H5  UNL     1       2.315 -12.245  -7.898  1.00  0.00     0.124 HD
HETATM    9  H6  UNL     1       2.087 -10.598  -8.183  1.00  0.00     0.124 HD
ENDBRANCH   6   7
BRANCH   3  10
HETATM   10  O1  UNL     1       7.613 -10.687 -10.460  1.00  0.00    -0.361 OA
HETATM   11  H7  UNL     1       7.967  -9.825 -10.191  1.00  0.00     0.217 HD
ENDBRANCH   3  10
TORSDOF 2
ENDMDL
MODEL 8
REMARK VINA RESULT:      -3.9      3.583      4.253
REMARK  2 active torsions:
REMARK  status: ('A' for Active; 'I' for Inactive)
REMARK    1  A    between atoms: C3_3  and  O1_8 
REMARK    2  A    between atoms: C6_6  and  N1_7 
ROOT
HETATM    1  C1  UNL     1      -0.134 -12.283  -9.052  1.00  0.00     0.026 A 
HETATM    2  C2  UNL     1       1.054 -12.419  -8.329  1.00  0.00     0.038 A 
HETATM    3  C3  UNL     1       2.016 -11.422  -8.394  1.00  0.00     0.065 A 
HETATM    4  C4  UNL     1       1.803 -10.280  -9.158  1.00  0.00     0.038 A 
HETATM    5  C5  UNL     1       0.612 -10.151  -9.879  1.00  0.00     0.026 A 
HETATM    6  C6  UNL     1      -0.344 -11.171  -9.874  1.00  0.00     0.005 A 
ENDROOT
BRANCH   6   7
HETATM    7  N1  UNL     1      -1.581 -10.982 -10.501  1.00  0.00    -0.303 NA
HETATM    8  H5  UNL     1      -2.168 -10.290 -10.045  1.00  0.00     0.124 HD
HETATM    9  H6  UNL     1      -2.079 -11.844 -10.695  1.00  0.00     0.124 HD
ENDBRANCH   6   7
BRANCH   3  10
HETATM   10  O1  UNL     1       3.160 -11.591  -7.673  1.00  0.00    -0.361 OA
HETATM   11  H7  UNL     1       3.315 -10.791  -7.145  1.00  0.00     0.217 HD
ENDBRANCH   3  10
TORSDOF 2
ENDMDL
MODEL 9
REMARK VINA RESULT:      -3.9      4.927      5.511
REMARK  2 active torsions:
REMARK  status: ('A' for Active; 'I' for Inactive)
REMARK    1  A    between atoms: C3_3  and  O1_8 
REMARK    2  A    between atoms: C6_6  and  N1_7 
ROOT
HETATM    1  C1  UNL     1       5.005 -11.598  -9.362  1.00  0.00     0.026 A 
HETATM    2  C2  UNL     1       3.993 -11.582  -8.400  1.00  0.00     0.038 A 
HETATM    3  C3  UNL     1       2.674 -11.404  -8.793  1.00  0.00     0.065 A 
HETATM    4  C4  UNL     1       2.349 -11.258 -10.137  1.00  0.00     0.038 A 
HETATM    5  C5  UNL     1       3.368 -11.274 -11.094  1.00  0.00     0.026 A 
HETATM    6  C6  UNL     1       4.708 -11.394 -10.713  1.00  0.00     0.005 A 
ENDROOT
BRANCH   6   7
HETATM    7  N1  UNL     1       5.708 -11.528 -11.684  1.00  0.00    -0.303 NA
HETATM    8  H5  UNL     1       5.799 -10.719 -12.289  1.00  0.00     0.124 HD
HETATM    9  H6  UNL     1       5.659 -12.397 -12.205  1.00  0.00     0.124 HD
ENDBRANCH   6   7
BRANCH   3  10
HETATM   10  O1  UNL     1       1.715 -11.397  -7.825  1.00  0.00    -0.361 OA
HETATM   11  H7  UNL     1       2.149 -11.333  -6.959  1.00  0.00     0.217 HD
ENDBRANCH   3  10
TORSDOF 2
ENDMDL
MODEL 10
REMARK VINA RESULT:      -3.9      4.200      4.986
REMARK  2 active torsions:
REMARK  status: ('A' for Active; 'I' for Inactive)
REMARK    1  A    between atoms: C3_3  and  O1_8 
REMARK    2  A    between atoms: C6_6  and  N1_7 
ROOT
HETATM    1  C1  UNL     1       2.273 -10.225 -11.011  1.00  0.00     0.026 A 
HETATM    2  C2  UNL     1       3.359 -11.085 -11.188  1.00  0.00     0.038 A 
HETATM    3  C3  UNL     1       4.621 -10.560 -11.426  1.00  0.00     0.065 A 
HETATM    4  C4  UNL     1       4.818  -9.185 -11.475  1.00  0.00     0.038 A 
HETATM    5  C5  UNL     1       3.726  -8.329 -11.298  1.00  0.00     0.026 A 
HETATM    6  C6  UNL     1       2.437  -8.840 -11.116  1.00  0.00     0.005 A 
ENDROOT
BRANCH   6   7
HETATM    7  N1  UNL     1       1.373  -7.980 -10.822  1.00  0.00    -0.303 NA
HETATM    8  H5  UNL     1       1.354  -7.143 -11.397  1.00  0.00     0.124 HD
HETATM    9  H6  UNL     1       1.275  -7.771  -9.834  1.00  0.00     0.124 HD
ENDBRANCH   6   7
BRANCH   3  10
HETATM   10  O1  UNL     1       5.654 -11.433 -11.591  1.00  0.00    -0.361 OA
HETATM   11  H7  UNL     1       5.700 -11.686 -12.526  1.00  0.00     0.217 HD
ENDBRANCH   3  10
TORSDOF 2
ENDMDL
MODEL 11
REMARK VINA RESULT:      -3.9      3.909      4.521
REMARK  2 active torsions:
REMARK  status: ('A' for Active; 'I' for Inactive)
REMARK    1  A    between atoms: C3_3  and  O1_8 
REMARK    2  A    between atoms: C6_6  and  N1_7 
ROOT
HETATM    1  C1  UNL     1       3.712  -9.710 -10.574  1.00  0.00     0.026 A 
HETATM    2  C2  UNL     1       4.277 -10.232  -9.408  1.00  0.00     0.038 A 
HETATM    3  C3  UNL     1       3.455 -10.745  -8.415  1.00  0.00     0.065 A 
HETATM    4  C4  UNL     1       2.074 -10.759  -8.577  1.00  0.00     0.038 A 
HETATM    5  C5  UNL     1       1.515 -10.234  -9.746  1.00  0.00     0.026 A 
HETATM    6  C6  UNL     1       2.324  -9.659 -10.732  1.00  0.00     0.005 A 
ENDROOT
BRANCH   6   7
HETATM    7  N1  UNL     1       1.767  -9.246 -11.948  1.00  0.00    -0.303 NA
HETATM    8  H5  UNL     1       1.224  -8.391 -11.878  1.00  0.00     0.124 HD
HETATM    9  H6  UNL     1       1.271  -9.980 -12.443  1.00  0.00     0.124 HD
ENDBRANCH   6   7
BRANCH   3  10
HETATM   10  O1  UNL     1       4.044 -11.247  -7.294  1.00  0.00    -0.361 OA
HETATM   11  H7  UNL     1       3.849 -10.655  -6.550  1.00  0.00     0.217 HD
ENDBRANCH   3  10
TORSDOF 2
ENDMDL
MODEL 12
REMARK VINA RESULT:      -3.8      4.310      5.133
REMARK  2 active torsions:
REMARK  status: ('A' for Active; 'I' for Inactive)
REMARK    1  A    between atoms: C3_3  and  O1_8 
REMARK    2  A    between atoms: C6_6  and  N1_7 
ROOT
HETATM    1  C1  UNL     1       4.673  -7.711 -11.243  1.00  0.00     0.026 A 
HETATM    2  C2  UNL     1       5.393  -8.899 -11.392  1.00  0.00     0.038 A 
HETATM    3  C3  UNL     1       4.715 -10.106 -11.487  1.00  0.00     0.065 A 
HETATM    4  C4  UNL     1       3.325 -10.142 -11.452  1.00  0.00     0.038 A 
HETATM    5  C5  UNL     1       2.612  -8.949 -11.301  1.00  0.00     0.026 A 
HETATM    6  C6  UNL     1       3.279  -7.730 -11.144  1.00  0.00     0.005 A 
ENDROOT
BRANCH   6   7
HETATM    7  N1  UNL     1       2.558  -6.531 -11.114  1.00  0.00    -0.303 NA
HETATM    8  H5  UNL     1       1.620  -6.609 -11.494  1.00  0.00     0.124 HD
HETATM    9  H6  UNL     1       3.063  -5.738 -11.493  1.00  0.00     0.124 HD
ENDBRANCH   6   7
BRANCH   3  10
HETATM   10  O1  UNL     1       5.452 -11.242 -11.635  1.00  0.00    -0.361 OA
HETATM   11  H7  UNL     1       6.374 -11.045 -11.405  1.00  0.00     0.217 HD
ENDBRANCH   3  10
TORSDOF 2
ENDMDL
MODEL 13
REMARK VINA RESULT:      -3.7      4.416      5.032
REMARK  2 active torsions:
REMARK  status: ('A' for Active; 'I' for Inactive)
REMARK    1  A    between atoms: C3_3  and  O1_8 
REMARK    2  A    between atoms: C6_6  and  N1_7 
ROOT
HETATM    1  C1  UNL     1       1.609 -11.296  -9.747  1.00  0.00     0.026 A 
HETATM    2  C2  UNL     1       0.972 -11.817  -8.619  1.00  0.00     0.038 A 
HETATM    3  C3  UNL     1       1.278 -13.099  -8.186  1.00  0.00     0.065 A 
HETATM    4  C4  UNL     1       2.226 -13.865  -8.856  1.00  0.00     0.038 A 
HETATM    5  C5  UNL     1       2.859 -13.337  -9.985  1.00  0.00     0.026 A 
HETATM    6  C6  UNL     1       2.521 -12.070 -10.471  1.00  0.00     0.005 A 
ENDROOT
BRANCH   6   7
HETATM    7  N1  UNL     1       3.244 -11.505 -11.528  1.00  0.00    -0.303 NA
HETATM    8  H5  UNL     1       3.249 -10.489 -11.521  1.00  0.00     0.124 HD
HETATM    9  H6  UNL     1       3.004 -11.884 -12.438  1.00  0.00     0.124 HD
ENDBRANCH   6   7
BRANCH   3  10
HETATM   10  O1  UNL     1       0.637 -13.570  -7.080  1.00  0.00    -0.361 OA
HETATM   11  H7  UNL     1      -0.237 -13.152  -7.027  1.00  0.00     0.217 HD
ENDBRANCH   3  10
TORSDOF 2
ENDMDL
MODEL 14
REMARK VINA RESULT:      -3.7      6.292      6.919
REMARK  2 active torsions:
REMARK  status: ('A' for Active; 'I' for Inactive)
REMARK    1  A    between atoms: C3_3  and  O1_8 
REMARK    2  A    between atoms: C6_6  and  N1_7 
ROOT
HETATM    1  C1  UNL     1       3.409 -12.047  -8.628  1.00  0.00     0.026 A 
HETATM    2  C2  UNL     1       4.288 -11.513  -9.573  1.00  0.00     0.038 A 
HETATM    3  C3  UNL     1       4.756 -12.313 -10.606  1.00  0.00     0.065 A 
HETATM    4  C4  UNL     1       4.346 -13.637 -10.718  1.00  0.00     0.038 A 
HETATM    5  C5  UNL     1       3.468 -14.165  -9.767  1.00  0.00     0.026 A 
HETATM    6  C6  UNL     1       3.031 -13.392  -8.686  1.00  0.00     0.005 A 
ENDROOT
BRANCH   6   7
HETATM    7  N1  UNL     1       2.061 -13.891  -7.809  1.00  0.00    -0.303 NA
HETATM    8  H5  UNL     1       1.241 -13.299  -7.729  1.00  0.00     0.124 HD
HETATM    9  H6  UNL     1       2.429 -14.167  -6.905  1.00  0.00     0.124 HD
ENDBRANCH   6   7
BRANCH   3  10
HETATM   10  O1  UNL     1       5.609 -11.754 -11.509  1.00  0.00    -0.361 OA
HETATM   11  H7  UNL     1       5.759 -12.389 -12.228  1.00  0.00     0.217 HD
ENDBRANCH   3  10
TORSDOF 2
ENDMDL
MODEL 15
REMARK VINA RESULT:      -3.7      3.362      3.997
REMARK  2 active torsions:
REMARK  status: ('A' for Active; 'I' for Inactive)
REMARK    1  A    between atoms: C3_3  and  O1_8 
REMARK    2  A    between atoms: C6_6  and  N1_7 
ROOT
HETATM    1  C1  UNL     1       1.948 -10.488  -8.651  1.00  0.00     0.026 A 
HETATM    2  C2  UNL     1       2.296 -11.835  -8.531  1.00  0.00     0.038 A 
HETATM    3  C3  UNL     1       1.303 -12.805  -8.532  1.00  0.00     0.065 A 
HETATM    4  C4  UNL     1      -0.035 -12.448  -8.668  1.00  0.00     0.038 A 
HETATM    5  C5  UNL     1      -0.375 -11.097  -8.786  1.00  0.00     0.026 A 
HETATM    6  C6  UNL     1       0.606 -10.102  -8.728  1.00  0.00     0.005 A 
ENDROOT
BRANCH   6   7
HETATM    7  N1  UNL     1       0.269  -8.765  -8.967  1.00  0.00    -0.303 NA
HETATM    8  H5  UNL     1       0.452  -8.152  -8.179  1.00  0.00     0.124 HD
HETATM    9  H6  UNL     1      -0.663  -8.638  -9.347  1.00  0.00     0.124 HD
ENDBRANCH   6   7
BRANCH   3  10
HETATM   10  O1  UNL     1       1.682 -14.108  -8.415  1.00  0.00    -0.361 OA
HETATM   11  H7  UNL     1       2.081 -14.237  -7.540  1.00  0.00     0.217 HD
ENDBRANCH   3  10
TORSDOF 2
ENDMDL
MODEL 16
REMARK VINA RESULT:      -3.7      2.720      3.451
REMARK  2 active torsions:
REMARK  status: ('A' for Active; 'I' for Inactive)
REMARK    1  A    between atoms: C3_3  and  O1_8 
REMARK    2  A    between atoms: C6_6  and  N1_7 
ROOT
HETATM    1  C1  UNL     1       1.335 -11.483 -10.327  1.00  0.00     0.026 A 
HETATM    2  C2  UNL     1       0.127 -10.949  -9.875  1.00  0.00     0.038 A 
HETATM    3  C3  UNL     1      -0.209  -9.640 -10.194  1.00  0.00     0.065 A 
HETATM    4  C4  UNL     1       0.640  -8.862 -10.973  1.00  0.00     0.038 A 
HETATM    5  C5  UNL     1       1.849  -9.403 -11.420  1.00  0.00     0.026 A 
HETATM    6  C6  UNL     1       2.231 -10.699 -11.060  1.00  0.00     0.005 A 
ENDROOT
BRANCH   6   7
HETATM    7  N1  UNL     1       3.384 -11.272 -11.610  1.00  0.00    -0.303 NA
HETATM    8  H5  UNL     1       4.247 -10.891 -11.235  1.00  0.00     0.124 HD
HETATM    9  H6  UNL     1       3.383 -11.303 -12.624  1.00  0.00     0.124 HD
ENDBRANCH   6   7
BRANCH   3  10
HETATM   10  O1  UNL     1      -1.398  -9.157  -9.737  1.00  0.00    -0.361 OA
HETATM   11  H7  UNL     1      -1.267  -8.242  -9.440  1.00  0.00     0.217 HD
ENDBRANCH   3  10
TORSDOF 2
ENDMDL
MODEL 17
REMARK VINA RESULT:      -3.6      5.918      6.628
REMARK  2 active torsions:
REMARK  status: ('A' for Active; 'I' for Inactive)
REMARK    1  A    between atoms: C3_3  and  O1_8 
REMARK    2  A    between atoms: C6_6  and  N1_7 
ROOT
HETATM    1  C1  UNL     1       5.229 -12.237 -10.004  1.00  0.00     0.026 A 
HETATM    2  C2  UNL     1       4.604 -11.472  -9.018  1.00  0.00     0.038 A 
HETATM    3  C3  UNL     1       3.301 -11.766  -8.642  1.00  0.00     0.065 A 
HETATM    4  C4  UNL     1       2.618 -12.827  -9.226  1.00  0.00     0.038 A 
HETATM    5  C5  UNL     1       3.251 -13.588 -10.214  1.00  0.00     0.026 A 
HETATM    6  C6  UNL     1       4.541 -13.270 -10.648  1.00  0.00     0.005 A 
ENDROOT
BRANCH   6   7
HETATM    7  N1  UNL     1       5.209 -14.108 -11.549  1.00  0.00    -0.303 NA
HETATM    8  H5  UNL     1       5.308 -15.063 -11.221  1.00  0.00     0.124 HD
HETATM    9  H6  UNL     1       6.082 -13.725 -11.895  1.00  0.00     0.124 HD
ENDBRANCH   6   7
BRANCH   3  10
HETATM   10  O1  UNL     1       2.726 -10.998  -7.674  1.00  0.00    -0.361 OA
HETATM   11  H7  UNL     1       2.196 -11.572  -7.097  1.00  0.00     0.217 HD
ENDBRANCH   3  10
TORSDOF 2
ENDMDL
MODEL 18
REMARK VINA RESULT:      -3.6      5.792      6.493
REMARK  2 active torsions:
REMARK  status: ('A' for Active; 'I' for Inactive)
REMARK    1  A    between atoms: C3_3  and  O1_8 
REMARK    2  A    between atoms: C6_6  and  N1_7 
ROOT
HETATM    1  C1  UNL     1       2.908 -13.093  -9.077  1.00  0.00     0.026 A 
HETATM    2  C2  UNL     1       3.638 -13.836 -10.007  1.00  0.00     0.038 A 
HETATM    3  C3  UNL     1       4.694 -13.243 -10.684  1.00  0.00     0.065 A 
HETATM    4  C4  UNL     1       5.042 -11.920 -10.434  1.00  0.00     0.038 A 
HETATM    5  C5  UNL     1       4.305 -11.182  -9.503  1.00  0.00     0.026 A 
HETATM    6  C6  UNL     1       3.201 -11.745  -8.853  1.00  0.00     0.005 A 
ENDROOT
BRANCH   6   7
HETATM    7  N1  UNL     1       2.546 -11.039  -7.838  1.00  0.00    -0.303 NA
HETATM    8  H5  UNL     1       1.716 -11.507  -7.486  1.00  0.00     0.124 HD
HETATM    9  H6  UNL     1       2.374 -10.064  -8.061  1.00  0.00     0.124 HD
ENDBRANCH   6   7
BRANCH   3  10
HETATM   10  O1  UNL     1       5.384 -14.002 -11.581  1.00  0.00    -0.361 OA
HETATM   11  H7  UNL     1       6.162 -14.375 -11.138  1.00  0.00     0.217 HD
ENDBRANCH   3  10
TORSDOF 2
ENDMDL
MODEL 19
REMARK VINA RESULT:      -3.6      4.510      5.012
REMARK  2 active torsions:
REMARK  status: ('A' for Active; 'I' for Inactive)
REMARK    1  A    between atoms: C3_3  and  O1_8 
REMARK    2  A    between atoms: C6_6  and  N1_7 
ROOT
HETATM    1  C1  UNL     1       5.351  -9.537  -9.561  1.00  0.00     0.026 A 
HETATM    2  C2  UNL     1       4.621 -10.173  -8.554  1.00  0.00     0.038 A 
HETATM    3  C3  UNL     1       3.327 -10.603  -8.809  1.00  0.00     0.065 A 
HETATM    4  C4  UNL     1       2.755 -10.421 -10.064  1.00  0.00     0.038 A 
HETATM    5  C5  UNL     1       3.491  -9.783 -11.066  1.00  0.00     0.026 A 
HETATM    6  C6  UNL     1       4.775  -9.290 -10.810  1.00  0.00     0.005 A 
ENDROOT
BRANCH   6   7
HETATM    7  N1  UNL     1       5.547  -8.761 -11.851  1.00  0.00    -0.303 NA
HETATM    8  H5  UNL     1       6.491  -8.512 -11.572  1.00  0.00     0.124 HD
HETATM    9  H6  UNL     1       5.087  -8.017 -12.366  1.00  0.00     0.124 HD
ENDBRANCH   6   7
BRANCH   3  10
HETATM   10  O1  UNL     1       2.649 -11.221  -7.802  1.00  0.00    -0.361 OA
HETATM   11  H7  UNL     1       3.003 -12.119  -7.695  1.00  0.00     0.217 HD
ENDBRANCH   3  10
TORSDOF 2
ENDMDL
MODEL 20
REMARK VINA RESULT:      -1.2      3.313      3.964
REMARK  2 active torsions:
REMARK  status: ('A' for Active; 'I' for Inactive)
REMARK    1  A    between atoms: C3_3  and  O1_8 
REMARK    2  A    between atoms: C6_6  and  N1_7 
ROOT
HETATM    1  C1  UNL     1      -1.603 -10.980  -9.504  1.00  0.00     0.026 A 
HETATM    2  C2  UNL     1      -1.454  -9.625  -9.201  1.00  0.00     0.038 A 
HETATM    3  C3  UNL     1      -0.216  -9.141  -8.804  1.00  0.00     0.065 A 
HETATM    4  C4  UNL     1       0.882  -9.990  -8.720  1.00  0.00     0.038 A 
HETATM    5  C5  UNL     1       0.725 -11.345  -9.023  1.00  0.00     0.026 A 
HETATM    6  C6  UNL     1      -0.527 -11.863  -9.368  1.00  0.00     0.005 A 
ENDROOT
BRANCH   6   7
HETATM    7  N1  UNL     1      -0.650 -13.193  -9.784  1.00  0.00    -0.303 NA
HETATM    8  H5  UNL     1      -0.223 -13.860  -9.149  1.00  0.00     0.124 HD
HETATM    9  H6  UNL     1      -0.376 -13.349 -10.749  1.00  0.00     0.124 HD
ENDBRANCH   6   7
BRANCH   3  10
HETATM   10  O1  UNL     1      -0.111  -7.812  -8.520  1.00  0.00    -0.361 OA
HETATM   11  H7  UNL     1      -0.397  -7.306  -9.297  1.00  0.00     0.217 HD
ENDBRANCH   3  10
TORSDOF 2
ENDMDL
