MODEL 1
REMARK VINA RESULT:      -3.5      0.000      0.000
REMARK  2 active torsions:
REMARK  status: ('A' for Active; 'I' for Inactive)
REMARK    1  A    between atoms: C3_3  and  O1_8 
REMARK    2  A    between atoms: C6_6  and  N1_7 
ROOT
HETATM    1  C1  UNL     1      17.951   3.667   4.575  1.00  0.00     0.026 A 
HETATM    2  C2  UNL     1      17.961   4.333   3.347  1.00  0.00     0.038 A 
HETATM    3  C3  UNL     1      17.207   5.487   3.185  1.00  0.00     0.065 A 
HETATM    4  C4  UNL     1      16.456   5.996   4.239  1.00  0.00     0.038 A 
HETATM    5  C5  UNL     1      16.451   5.323   5.464  1.00  0.00     0.026 A 
HETATM    6  C6  UNL     1      17.156   4.127   5.629  1.00  0.00     0.005 A 
ENDROOT
BRANCH   6   7
HETATM    7  N1  UNL     1      17.241   3.527   6.890  1.00  0.00    -0.303 NA
HETATM    8  H5  UNL     1      16.867   4.099   7.640  1.00  0.00     0.124 HD
HETATM    9  H6  UNL     1      18.160   3.157   7.108  1.00  0.00     0.124 HD
ENDBRANCH   6   7
BRANCH   3  10
HETATM   10  O1  UNL     1      17.245   6.109   1.973  1.00  0.00    -0.361 OA
HETATM   11  H7  UNL     1      18.039   5.816   1.499  1.00  0.00     0.217 HD
ENDBRANCH   3  10
TORSDOF 2
ENDMDL
MODEL 2
REMARK VINA RESULT:      -3.5      0.211      1.716
REMARK  2 active torsions:
REMARK  status: ('A' for Active; 'I' for Inactive)
REMARK    1  A    between atoms: C3_3  and  O1_8 
REMARK    2  A    between atoms: C6_6  and  N1_7 
ROOT
HETATM    1  C1  UNL     1      16.629   5.218   5.397  1.00  0.00     0.026 A 
HETATM    2  C2  UNL     1      16.575   5.901   4.180  1.00  0.00     0.038 A 
HETATM    3  C3  UNL     1      17.287   5.422   3.090  1.00  0.00     0.065 A 
HETATM    4  C4  UNL     1      18.042   4.259   3.194  1.00  0.00     0.038 A 
HETATM    5  C5  UNL     1      18.092   3.581   4.415  1.00  0.00     0.026 A 
HETATM    6  C6  UNL     1      17.428   4.080   5.541  1.00  0.00     0.005 A 
ENDROOT
BRANCH   6   7
HETATM    7  N1  UNL     1      17.387   3.333   6.724  1.00  0.00    -0.303 NA
HETATM    8  H5  UNL     1      18.304   3.072   7.073  1.00  0.00     0.124 HD
HETATM    9  H6  UNL     1      16.748   2.546   6.690  1.00  0.00     0.124 HD
ENDBRANCH   6   7
BRANCH   3  10
HETATM   10  O1  UNL     1      17.207   6.115   1.920  1.00  0.00    -0.361 OA
HETATM   11  H7  UNL     1      16.520   6.795   2.010  1.00  0.00     0.217 HD
ENDBRANCH   3  10
TORSDOF 2
ENDMDL
MODEL 3
REMARK VINA RESULT:      -3.5      2.776      3.680
REMARK  2 active torsions:
REMARK  status: ('A' for Active; 'I' for Inactive)
REMARK    1  A    between atoms: C3_3  and  O1_8 
REMARK    2  A    between atoms: C6_6  and  N1_7 
ROOT
HETATM    1  C1  UNL     1      16.508   5.975   4.260  1.00  0.00     0.026 A 
HETATM    2  C2  UNL     1      16.464   5.283   5.473  1.00  0.00     0.038 A 
HETATM    3  C3  UNL     1      17.185   4.106   5.619  1.00  0.00     0.065 A 
HETATM    4  C4  UNL     1      17.963   3.617   4.575  1.00  0.00     0.038 A 
HETATM    5  C5  UNL     1      18.000   4.315   3.364  1.00  0.00     0.026 A 
HETATM    6  C6  UNL     1      17.235   5.471   3.178  1.00  0.00     0.005 A 
ENDROOT
BRANCH   6   7
HETATM    7  N1  UNL     1      17.372   6.225   2.007  1.00  0.00    -0.303 NA
HETATM    8  H5  UNL     1      18.337   6.409   1.750  1.00  0.00     0.124 HD
HETATM    9  H6  UNL     1      16.801   7.063   1.990  1.00  0.00     0.124 HD
ENDBRANCH   6   7
BRANCH   3  10
HETATM   10  O1  UNL     1      17.119   3.462   6.818  1.00  0.00    -0.361 OA
HETATM   11  H7  UNL     1      16.319   3.755   7.283  1.00  0.00     0.217 HD
ENDBRANCH   3  10
TORSDOF 2
ENDMDL
MODEL 4
REMARK VINA RESULT:      -3.3      2.794      3.276
REMARK  2 active torsions:
REMARK  status: ('A' for Active; 'I' for Inactive)
REMARK    1  A    between atoms: C3_3  and  O1_8 
REMARK    2  A    between atoms: C6_6  and  N1_7 
ROOT
HETATM    1  C1  UNL     1      18.240   4.231   3.320  1.00  0.00     0.026 A 
HETATM    2  C2  UNL     1      18.239   3.485   4.500  1.00  0.00     0.038 A 
HETATM    3  C3  UNL     1      17.467   3.901   5.576  1.00  0.00     0.065 A 
HETATM    4  C4  UNL     1      16.682   5.045   5.484  1.00  0.00     0.038 A 
HETATM    5  C5  UNL     1      16.690   5.788   4.300  1.00  0.00     0.026 A 
HETATM    6  C6  UNL     1      17.505   5.418   3.226  1.00  0.00     0.005 A 
ENDROOT
BRANCH   6   7
HETATM    7  N1  UNL     1      17.416   6.097   2.006  1.00  0.00    -0.303 NA
HETATM    8  H5  UNL     1      18.073   6.866   1.918  1.00  0.00     0.124 HD
HETATM    9  H6  UNL     1      16.471   6.366   1.754  1.00  0.00     0.124 HD
ENDBRANCH   6   7
BRANCH   3  10
HETATM   10  O1  UNL     1      17.490   3.144   6.709  1.00  0.00    -0.361 OA
HETATM   11  H7  UNL     1      17.346   2.216   6.465  1.00  0.00     0.217 HD
ENDBRANCH   3  10
TORSDOF 2
ENDMDL
MODEL 5
REMARK VINA RESULT:      -3.2      2.041      2.597
REMARK  2 active torsions:
REMARK  status: ('A' for Active; 'I' for Inactive)
REMARK    1  A    between atoms: C3_3  and  O1_8 
REMARK    2  A    between atoms: C6_6  and  N1_7 
ROOT
HETATM    1  C1  UNL     1      17.552   3.789   5.140  1.00  0.00     0.026 A 
HETATM    2  C2  UNL     1      16.726   4.797   5.643  1.00  0.00     0.038 A 
HETATM    3  C3  UNL     1      16.380   5.870   4.835  1.00  0.00     0.065 A 
HETATM    4  C4  UNL     1      16.835   5.944   3.523  1.00  0.00     0.038 A 
HETATM    5  C5  UNL     1      17.663   4.933   3.027  1.00  0.00     0.026 A 
HETATM    6  C6  UNL     1      18.070   3.873   3.844  1.00  0.00     0.005 A 
ENDROOT
BRANCH   6   7
HETATM    7  N1  UNL     1      18.799   2.807   3.305  1.00  0.00    -0.303 NA
HETATM    8  H5  UNL     1      18.414   2.447   2.437  1.00  0.00     0.124 HD
HETATM    9  H6  UNL     1      19.002   2.070   3.972  1.00  0.00     0.124 HD
ENDBRANCH   6   7
BRANCH   3  10
HETATM   10  O1  UNL     1      15.570   6.831   5.362  1.00  0.00    -0.361 OA
HETATM   11  H7  UNL     1      14.859   7.018   4.728  1.00  0.00     0.217 HD
ENDBRANCH   3  10
TORSDOF 2
ENDMDL
MODEL 6
REMARK VINA RESULT:      -3.2      1.996      2.564
REMARK  2 active torsions:
REMARK  status: ('A' for Active; 'I' for Inactive)
REMARK    1  A    between atoms: C3_3  and  O1_8 
REMARK    2  A    between atoms: C6_6  and  N1_7 
ROOT
HETATM    1  C1  UNL     1      16.789   5.938   3.577  1.00  0.00     0.026 A 
HETATM    2  C2  UNL     1      17.636   4.988   3.001  1.00  0.00     0.038 A 
HETATM    3  C3  UNL     1      18.059   3.900   3.752  1.00  0.00     0.065 A 
HETATM    4  C4  UNL     1      17.636   3.739   5.066  1.00  0.00     0.038 A 
HETATM    5  C5  UNL     1      16.789   4.695   5.636  1.00  0.00     0.026 A 
HETATM    6  C6  UNL     1      16.399   5.828   4.915  1.00  0.00     0.005 A 
ENDROOT
BRANCH   6   7
HETATM    7  N1  UNL     1      15.459   6.715   5.451  1.00  0.00    -0.303 NA
HETATM    8  H5  UNL     1      14.547   6.298   5.607  1.00  0.00     0.124 HD
HETATM    9  H6  UNL     1      15.400   7.599   4.956  1.00  0.00     0.124 HD
ENDBRANCH   6   7
BRANCH   3  10
HETATM   10  O1  UNL     1      18.883   2.993   3.154  1.00  0.00    -0.361 OA
HETATM   11  H7  UNL     1      19.644   2.836   3.735  1.00  0.00     0.217 HD
ENDBRANCH   3  10
TORSDOF 2
ENDMDL
MODEL 7
REMARK VINA RESULT:      -3.1     12.552     13.528
REMARK  2 active torsions:
REMARK  status: ('A' for Active; 'I' for Inactive)
REMARK    1  A    between atoms: C3_3  and  O1_8 
REMARK    2  A    between atoms: C6_6  and  N1_7 
ROOT
HETATM    1  C1  UNL     1      26.549   4.962  -5.856  1.00  0.00     0.026 A 
HETATM    2  C2  UNL     1      25.847   5.379  -4.724  1.00  0.00     0.038 A 
HETATM    3  C3  UNL     1      24.576   5.918  -4.862  1.00  0.00     0.065 A 
HETATM    4  C4  UNL     1      23.988   6.031  -6.117  1.00  0.00     0.038 A 
HETATM    5  C5  UNL     1      24.698   5.612  -7.247  1.00  0.00     0.026 A 
HETATM    6  C6  UNL     1      26.002   5.121  -7.133  1.00  0.00     0.005 A 
ENDROOT
BRANCH   6   7
HETATM    7  N1  UNL     1      26.657   4.595  -8.252  1.00  0.00    -0.303 NA
HETATM    8  H5  UNL     1      26.865   5.287  -8.966  1.00  0.00     0.124 HD
HETATM    9  H6  UNL     1      26.214   3.766  -8.635  1.00  0.00     0.124 HD
ENDBRANCH   6   7
BRANCH   3  10
HETATM   10  O1  UNL     1      23.923   6.311  -3.733  1.00  0.00    -0.361 OA
HETATM   11  H7  UNL     1      23.020   5.955  -3.757  1.00  0.00     0.217 HD
ENDBRANCH   3  10
TORSDOF 2
ENDMDL
MODEL 8
REMARK VINA RESULT:      -3.0     12.404     13.374
REMARK  2 active torsions:
REMARK  status: ('A' for Active; 'I' for Inactive)
REMARK    1  A    between atoms: C3_3  and  O1_8 
REMARK    2  A    between atoms: C6_6  and  N1_7 
ROOT
HETATM    1  C1  UNL     1      24.029   6.143  -6.141  1.00  0.00     0.026 A 
HETATM    2  C2  UNL     1      24.697   5.677  -7.275  1.00  0.00     0.038 A 
HETATM    3  C3  UNL     1      25.957   5.109  -7.146  1.00  0.00     0.065 A 
HETATM    4  C4  UNL     1      26.553   4.986  -5.896  1.00  0.00     0.038 A 
HETATM    5  C5  UNL     1      25.878   5.456  -4.765  1.00  0.00     0.026 A 
HETATM    6  C6  UNL     1      24.634   6.084  -4.882  1.00  0.00     0.005 A 
ENDROOT
BRANCH   6   7
HETATM    7  N1  UNL     1      23.915   6.442  -3.736  1.00  0.00    -0.303 NA
HETATM    8  H5  UNL     1      24.153   5.892  -2.916  1.00  0.00     0.124 HD
HETATM    9  H6  UNL     1      22.914   6.504  -3.882  1.00  0.00     0.124 HD
ENDBRANCH   6   7
BRANCH   3  10
HETATM   10  O1  UNL     1      26.575   4.664  -8.276  1.00  0.00    -0.361 OA
HETATM   11  H7  UNL     1      26.896   5.431  -8.776  1.00  0.00     0.217 HD
ENDBRANCH   3  10
TORSDOF 2
ENDMDL
MODEL 9
REMARK VINA RESULT:      -2.8     12.027     13.011
REMARK  2 active torsions:
REMARK  status: ('A' for Active; 'I' for Inactive)
REMARK    1  A    between atoms: C3_3  and  O1_8 
REMARK    2  A    between atoms: C6_6  and  N1_7 
ROOT
HETATM    1  C1  UNL     1      24.664   5.425  -4.353  1.00  0.00     0.026 A 
HETATM    2  C2  UNL     1      24.064   5.939  -5.505  1.00  0.00     0.038 A 
HETATM    3  C3  UNL     1      24.773   5.965  -6.697  1.00  0.00     0.065 A 
HETATM    4  C4  UNL     1      26.071   5.470  -6.760  1.00  0.00     0.038 A 
HETATM    5  C5  UNL     1      26.666   4.959  -5.603  1.00  0.00     0.026 A 
HETATM    6  C6  UNL     1      25.988   4.978  -4.379  1.00  0.00     0.005 A 
ENDROOT
BRANCH   6   7
HETATM    7  N1  UNL     1      26.545   4.356  -3.255  1.00  0.00    -0.303 NA
HETATM    8  H5  UNL     1      27.487   4.008  -3.407  1.00  0.00     0.124 HD
HETATM    9  H6  UNL     1      25.941   3.663  -2.828  1.00  0.00     0.124 HD
ENDBRANCH   6   7
BRANCH   3  10
HETATM   10  O1  UNL     1      24.151   6.472  -7.799  1.00  0.00    -0.361 OA
HETATM   11  H7  UNL     1      23.262   6.765  -7.545  1.00  0.00     0.217 HD
ENDBRANCH   3  10
TORSDOF 2
ENDMDL
MODEL 10
REMARK VINA RESULT:      -2.8      8.037      9.006
REMARK  2 active torsions:
REMARK  status: ('A' for Active; 'I' for Inactive)
REMARK    1  A    between atoms: C3_3  and  O1_8 
REMARK    2  A    between atoms: C6_6  and  N1_7 
ROOT
HETATM    1  C1  UNL     1      19.510   9.921  -1.637  1.00  0.00     0.026 A 
HETATM    2  C2  UNL     1      20.025   8.950  -0.776  1.00  0.00     0.038 A 
HETATM    3  C3  UNL     1      20.734   7.876  -1.295  1.00  0.00     0.065 A 
HETATM    4  C4  UNL     1      20.950   7.766  -2.664  1.00  0.00     0.038 A 
HETATM    5  C5  UNL     1      20.431   8.741  -3.520  1.00  0.00     0.026 A 
HETATM    6  C6  UNL     1      19.664   9.799  -3.022  1.00  0.00     0.005 A 
ENDROOT
BRANCH   6   7
HETATM    7  N1  UNL     1      19.250  10.831  -3.871  1.00  0.00    -0.303 NA
HETATM    8  H5  UNL     1      18.569  11.456  -3.452  1.00  0.00     0.124 HD
HETATM    9  H6  UNL     1      18.970  10.516  -4.794  1.00  0.00     0.124 HD
ENDBRANCH   6   7
BRANCH   3  10
HETATM   10  O1  UNL     1      21.223   6.951  -0.421  1.00  0.00    -0.361 OA
HETATM   11  H7  UNL     1      22.038   7.299  -0.026  1.00  0.00     0.217 HD
ENDBRANCH   3  10
TORSDOF 2
ENDMDL
MODEL 11
REMARK VINA RESULT:      -2.6     12.128     13.070
REMARK  2 active torsions:
REMARK  status: ('A' for Active; 'I' for Inactive)
REMARK    1  A    between atoms: C3_3  and  O1_8 
REMARK    2  A    between atoms: C6_6  and  N1_7 
ROOT
HETATM    1  C1  UNL     1      25.141   7.472  -6.904  1.00  0.00     0.026 A 
HETATM    2  C2  UNL     1      24.456   8.305  -6.016  1.00  0.00     0.038 A 
HETATM    3  C3  UNL     1      23.556   7.756  -5.113  1.00  0.00     0.065 A 
HETATM    4  C4  UNL     1      23.342   6.382  -5.074  1.00  0.00     0.038 A 
HETATM    5  C5  UNL     1      24.029   5.555  -5.967  1.00  0.00     0.026 A 
HETATM    6  C6  UNL     1      24.896   6.096  -6.923  1.00  0.00     0.005 A 
ENDROOT
BRANCH   6   7
HETATM    7  N1  UNL     1      25.668   5.253  -7.731  1.00  0.00    -0.303 NA
HETATM    8  H5  UNL     1      25.879   4.357  -7.301  1.00  0.00     0.124 HD
HETATM    9  H6  UNL     1      26.492   5.699  -8.119  1.00  0.00     0.124 HD
ENDBRANCH   6   7
BRANCH   3  10
HETATM   10  O1  UNL     1      22.910   8.601  -4.261  1.00  0.00    -0.361 OA
HETATM   11  H7  UNL     1      22.376   9.219  -4.785  1.00  0.00     0.217 HD
ENDBRANCH   3  10
TORSDOF 2
ENDMDL
MODEL 12
REMARK VINA RESULT:      -2.5     12.090     12.730
REMARK  2 active torsions:
REMARK  status: ('A' for Active; 'I' for Inactive)
REMARK    1  A    between atoms: C3_3  and  O1_8 
REMARK    2  A    between atoms: C6_6  and  N1_7 
ROOT
HETATM    1  C1  UNL     1      26.211   6.346  -4.538  1.00  0.00     0.026 A 
HETATM    2  C2  UNL     1      26.109   7.198  -5.639  1.00  0.00     0.038 A 
HETATM    3  C3  UNL     1      25.022   7.091  -6.494  1.00  0.00     0.065 A 
HETATM    4  C4  UNL     1      24.023   6.153  -6.256  1.00  0.00     0.038 A 
HETATM    5  C5  UNL     1      24.132   5.302  -5.152  1.00  0.00     0.026 A 
HETATM    6  C6  UNL     1      25.250   5.355  -4.312  1.00  0.00     0.005 A 
ENDROOT
BRANCH   6   7
HETATM    7  N1  UNL     1      25.292   4.583  -3.146  1.00  0.00    -0.303 NA
HETATM    8  H5  UNL     1      24.980   3.626  -3.279  1.00  0.00     0.124 HD
HETATM    9  H6  UNL     1      24.853   5.025  -2.345  1.00  0.00     0.124 HD
ENDBRANCH   6   7
BRANCH   3  10
HETATM   10  O1  UNL     1      24.958   7.943  -7.556  1.00  0.00    -0.361 OA
HETATM   11  H7  UNL     1      24.744   8.831  -7.228  1.00  0.00     0.217 HD
ENDBRANCH   3  10
TORSDOF 2
ENDMDL
MODEL 13
REMARK VINA RESULT:      -2.5      1.509      2.059
REMARK  2 active torsions:
REMARK  status: ('A' for Active; 'I' for Inactive)
REMARK    1  A    between atoms: C3_3  and  O1_8 
REMARK    2  A    between atoms: C6_6  and  N1_7 
ROOT
HETATM    1  C1  UNL     1      18.011   6.845   5.248  1.00  0.00     0.026 A 
HETATM    2  C2  UNL     1      18.188   7.370   3.966  1.00  0.00     0.038 A 
HETATM    3  C3  UNL     1      17.927   6.579   2.856  1.00  0.00     0.065 A 
HETATM    4  C4  UNL     1      17.474   5.273   3.008  1.00  0.00     0.038 A 
HETATM    5  C5  UNL     1      17.300   4.754   4.295  1.00  0.00     0.026 A 
HETATM    6  C6  UNL     1      17.614   5.516   5.425  1.00  0.00     0.005 A 
ENDROOT
BRANCH   6   7
HETATM    7  N1  UNL     1      17.324   5.031   6.705  1.00  0.00    -0.303 NA
HETATM    8  H5  UNL     1      16.730   5.648   7.250  1.00  0.00     0.124 HD
HETATM    9  H6  UNL     1      18.140   4.724   7.222  1.00  0.00     0.124 HD
ENDBRANCH   6   7
BRANCH   3  10
HETATM   10  O1  UNL     1      18.110   7.129   1.623  1.00  0.00    -0.361 OA
HETATM   11  H7  UNL     1      18.883   7.715   1.656  1.00  0.00     0.217 HD
ENDBRANCH   3  10
TORSDOF 2
ENDMDL
MODEL 14
REMARK VINA RESULT:      -2.5      7.805      8.733
REMARK  2 active torsions:
REMARK  status: ('A' for Active; 'I' for Inactive)
REMARK    1  A    between atoms: C3_3  and  O1_8 
REMARK    2  A    between atoms: C6_6  and  N1_7 
ROOT
HETATM    1  C1  UNL     1      19.357   9.854  -1.328  1.00  0.00     0.026 A 
HETATM    2  C2  UNL     1      18.848   9.865  -0.027  1.00  0.00     0.038 A 
HETATM    3  C3  UNL     1      17.930  10.837   0.344  1.00  0.00     0.065 A 
HETATM    4  C4  UNL     1      17.501  11.791  -0.572  1.00  0.00     0.038 A 
HETATM    5  C5  UNL     1      18.016  11.775  -1.871  1.00  0.00     0.026 A 
HETATM    6  C6  UNL     1      18.985  10.840  -2.247  1.00  0.00     0.005 A 
ENDROOT
BRANCH   6   7
HETATM    7  N1  UNL     1      19.406  10.757  -3.579  1.00  0.00    -0.303 NA
HETATM    8  H5  UNL     1      19.313  11.628  -4.091  1.00  0.00     0.124 HD
HETATM    9  H6  UNL     1      19.015   9.968  -4.085  1.00  0.00     0.124 HD
ENDBRANCH   6   7
BRANCH   3  10
HETATM   10  O1  UNL     1      17.454  10.812   1.620  1.00  0.00    -0.361 OA
HETATM   11  H7  UNL     1      18.142  11.155   2.214  1.00  0.00     0.217 HD
ENDBRANCH   3  10
TORSDOF 2
ENDMDL
MODEL 15
REMARK VINA RESULT:      -2.4      9.500     10.295
REMARK  2 active torsions:
REMARK  status: ('A' for Active; 'I' for Inactive)
REMARK    1  A    between atoms: C3_3  and  O1_8 
REMARK    2  A    between atoms: C6_6  and  N1_7 
ROOT
HETATM    1  C1  UNL     1      21.583  10.256  -3.952  1.00  0.00     0.026 A 
HETATM    2  C2  UNL     1      22.606   9.307  -3.895  1.00  0.00     0.038 A 
HETATM    3  C3  UNL     1      22.321   8.011  -3.489  1.00  0.00     0.065 A 
HETATM    4  C4  UNL     1      21.022   7.644  -3.155  1.00  0.00     0.038 A 
HETATM    5  C5  UNL     1      20.003   8.600  -3.213  1.00  0.00     0.026 A 
HETATM    6  C6  UNL     1      20.282   9.925  -3.562  1.00  0.00     0.005 A 
ENDROOT
BRANCH   6   7
HETATM    7  N1  UNL     1      19.240  10.843  -3.733  1.00  0.00    -0.303 NA
HETATM    8  H5  UNL     1      19.285  11.634  -3.098  1.00  0.00     0.124 HD
HETATM    9  H6  UNL     1      18.319  10.419  -3.756  1.00  0.00     0.124 HD
ENDBRANCH   6   7
BRANCH   3  10
HETATM   10  O1  UNL     1      23.345   7.113  -3.450  1.00  0.00    -0.361 OA
HETATM   11  H7  UNL     1      23.840   7.171  -4.282  1.00  0.00     0.217 HD
ENDBRANCH   3  10
TORSDOF 2
ENDMDL
MODEL 16
REMARK VINA RESULT:      -2.4      9.390     10.135
REMARK  2 active torsions:
REMARK  status: ('A' for Active; 'I' for Inactive)
REMARK    1  A    between atoms: C3_3  and  O1_8 
REMARK    2  A    between atoms: C6_6  and  N1_7 
ROOT
HETATM    1  C1  UNL     1      21.080   7.668  -3.198  1.00  0.00     0.026 A 
HETATM    2  C2  UNL     1      20.013   8.569  -3.238  1.00  0.00     0.038 A 
HETATM    3  C3  UNL     1      20.242   9.890  -3.593  1.00  0.00     0.065 A 
HETATM    4  C4  UNL     1      21.521  10.323  -3.925  1.00  0.00     0.038 A 
HETATM    5  C5  UNL     1      22.584   9.416  -3.881  1.00  0.00     0.026 A 
HETATM    6  C6  UNL     1      22.383   8.095  -3.469  1.00  0.00     0.005 A 
ENDROOT
BRANCH   6   7
HETATM    7  N1  UNL     1      23.428   7.167  -3.543  1.00  0.00    -0.303 NA
HETATM    8  H5  UNL     1      23.115   6.207  -3.648  1.00  0.00     0.124 HD
HETATM    9  H6  UNL     1      24.121   7.269  -2.808  1.00  0.00     0.124 HD
ENDBRANCH   6   7
BRANCH   3  10
HETATM   10  O1  UNL     1      19.175  10.737  -3.623  1.00  0.00    -0.361 OA
HETATM   11  H7  UNL     1      18.455  10.311  -4.115  1.00  0.00     0.217 HD
ENDBRANCH   3  10
TORSDOF 2
ENDMDL
MODEL 17
REMARK VINA RESULT:      -2.4      1.664      2.000
REMARK  2 active torsions:
REMARK  status: ('A' for Active; 'I' for Inactive)
REMARK    1  A    between atoms: C3_3  and  O1_8 
REMARK    2  A    between atoms: C6_6  and  N1_7 
ROOT
HETATM    1  C1  UNL     1      17.794   4.126   4.180  1.00  0.00     0.026 A 
HETATM    2  C2  UNL     1      17.485   5.017   3.149  1.00  0.00     0.038 A 
HETATM    3  C3  UNL     1      18.274   6.141   2.951  1.00  0.00     0.065 A 
HETATM    4  C4  UNL     1      19.380   6.381   3.760  1.00  0.00     0.038 A 
HETATM    5  C5  UNL     1      19.682   5.486   4.790  1.00  0.00     0.026 A 
HETATM    6  C6  UNL     1      18.865   4.379   5.042  1.00  0.00     0.005 A 
ENDROOT
BRANCH   6   7
HETATM    7  N1  UNL     1      19.243   3.428   5.997  1.00  0.00    -0.303 NA
HETATM    8  H5  UNL     1      18.464   2.895   6.372  1.00  0.00     0.124 HD
HETATM    9  H6  UNL     1      19.846   3.794   6.725  1.00  0.00     0.124 HD
ENDBRANCH   6   7
BRANCH   3  10
HETATM   10  O1  UNL     1      17.941   6.983   1.933  1.00  0.00    -0.361 OA
HETATM   11  H7  UNL     1      17.080   6.713   1.576  1.00  0.00     0.217 HD
ENDBRANCH   3  10
TORSDOF 2
ENDMDL
MODEL 18
REMARK VINA RESULT:      -2.4     12.234     13.124
REMARK  2 active torsions:
REMARK  status: ('A' for Active; 'I' for Inactive)
REMARK    1  A    between atoms: C3_3  and  O1_8 
REMARK    2  A    between atoms: C6_6  and  N1_7 
ROOT
HETATM    1  C1  UNL     1      24.737   8.231  -7.092  1.00  0.00     0.026 A 
HETATM    2  C2  UNL     1      24.470   6.862  -7.011  1.00  0.00     0.038 A 
HETATM    3  C3  UNL     1      23.800   6.356  -5.907  1.00  0.00     0.065 A 
HETATM    4  C4  UNL     1      23.377   7.201  -4.887  1.00  0.00     0.038 A 
HETATM    5  C5  UNL     1      23.649   8.570  -4.973  1.00  0.00     0.026 A 
HETATM    6  C6  UNL     1      24.375   9.090  -6.050  1.00  0.00     0.005 A 
ENDROOT
BRANCH   6   7
HETATM    7  N1  UNL     1      24.538  10.473  -6.187  1.00  0.00    -0.303 NA
HETATM    8  H5  UNL     1      23.997  11.016  -5.521  1.00  0.00     0.124 HD
HETATM    9  H6  UNL     1      24.428  10.807  -7.138  1.00  0.00     0.124 HD
ENDBRANCH   6   7
BRANCH   3  10
HETATM   10  O1  UNL     1      23.555   5.016  -5.867  1.00  0.00    -0.361 OA
HETATM   11  H7  UNL     1      22.833   4.815  -6.483  1.00  0.00     0.217 HD
ENDBRANCH   3  10
TORSDOF 2
ENDMDL
MODEL 19
REMARK VINA RESULT:      -2.3      2.808      3.282
REMARK  2 active torsions:
REMARK  status: ('A' for Active; 'I' for Inactive)
REMARK    1  A    between atoms: C3_3  and  O1_8 
REMARK    2  A    between atoms: C6_6  and  N1_7 
ROOT
HETATM    1  C1  UNL     1      17.911   5.064   3.174  1.00  0.00     0.026 A 
HETATM    2  C2  UNL     1      16.764   5.384   3.903  1.00  0.00     0.038 A 
HETATM    3  C3  UNL     1      16.726   6.555   4.646  1.00  0.00     0.065 A 
HETATM    4  C4  UNL     1      17.814   7.421   4.659  1.00  0.00     0.038 A 
HETATM    5  C5  UNL     1      18.959   7.093   3.928  1.00  0.00     0.026 A 
HETATM    6  C6  UNL     1      19.039   5.890   3.220  1.00  0.00     0.005 A 
ENDROOT
BRANCH   6   7
HETATM    7  N1  UNL     1      20.140   5.627   2.397  1.00  0.00    -0.303 NA
HETATM    8  H5  UNL     1      20.836   5.026   2.827  1.00  0.00     0.124 HD
HETATM    9  H6  UNL     1      20.549   6.458   1.982  1.00  0.00     0.124 HD
ENDBRANCH   6   7
BRANCH   3  10
HETATM   10  O1  UNL     1      15.588   6.833   5.342  1.00  0.00    -0.361 OA
HETATM   11  H7  UNL     1      15.047   6.029   5.385  1.00  0.00     0.217 HD
ENDBRANCH   3  10
TORSDOF 2
ENDMDL
