MODEL 1
REMARK VINA RESULT:      -3.4      0.000      0.000
REMARK  2 active torsions:
REMARK  status: ('A' for Active; 'I' for Inactive)
REMARK    1  A    between atoms: C3_3  and  O1_8 
REMARK    2  A    between atoms: C6_6  and  N1_7 
ROOT
HETATM    1  C1  UNL     1      18.595   2.959   3.358  1.00  0.00     0.026 A 
HETATM    2  C2  UNL     1      19.092   1.697   3.024  1.00  0.00     0.038 A 
HETATM    3  C3  UNL     1      19.231   0.730   4.008  1.00  0.00     0.065 A 
HETATM    4  C4  UNL     1      18.867   1.000   5.323  1.00  0.00     0.038 A 
HETATM    5  C5  UNL     1      18.372   2.266   5.651  1.00  0.00     0.026 A 
HETATM    6  C6  UNL     1      18.279   3.272   4.684  1.00  0.00     0.005 A 
ENDROOT
BRANCH   6   7
HETATM    7  N1  UNL     1      17.673   4.494   4.995  1.00  0.00    -0.303 NA
HETATM    8  H5  UNL     1      18.222   5.075   5.621  1.00  0.00     0.124 HD
HETATM    9  H6  UNL     1      16.707   4.409   5.295  1.00  0.00     0.124 HD
ENDBRANCH   6   7
BRANCH   3  10
HETATM   10  O1  UNL     1      19.716  -0.490   3.642  1.00  0.00    -0.361 OA
HETATM   11  H7  UNL     1      20.578  -0.364   3.213  1.00  0.00     0.217 HD
ENDBRANCH   3  10
TORSDOF 2
ENDMDL
MODEL 2
REMARK VINA RESULT:      -3.4      1.359      1.702
REMARK  2 active torsions:
REMARK  status: ('A' for Active; 'I' for Inactive)
REMARK    1  A    between atoms: C3_3  and  O1_8 
REMARK    2  A    between atoms: C6_6  and  N1_7 
ROOT
HETATM    1  C1  UNL     1      18.832   2.714   3.013  1.00  0.00     0.026 A 
HETATM    2  C2  UNL     1      19.188   1.628   3.816  1.00  0.00     0.038 A 
HETATM    3  C3  UNL     1      18.852   1.629   5.162  1.00  0.00     0.065 A 
HETATM    4  C4  UNL     1      18.151   2.695   5.716  1.00  0.00     0.038 A 
HETATM    5  C5  UNL     1      17.800   3.779   4.906  1.00  0.00     0.026 A 
HETATM    6  C6  UNL     1      18.180   3.822   3.561  1.00  0.00     0.005 A 
ENDROOT
BRANCH   6   7
HETATM    7  N1  UNL     1      17.722   4.853   2.732  1.00  0.00    -0.303 NA
HETATM    8  H5  UNL     1      16.905   4.603   2.185  1.00  0.00     0.124 HD
HETATM    9  H6  UNL     1      18.449   5.279   2.168  1.00  0.00     0.124 HD
ENDBRANCH   6   7
BRANCH   3  10
HETATM   10  O1  UNL     1      19.214   0.550   5.911  1.00  0.00    -0.361 OA
HETATM   11  H7  UNL     1      19.493   0.861   6.788  1.00  0.00     0.217 HD
ENDBRANCH   3  10
TORSDOF 2
ENDMDL
MODEL 3
REMARK VINA RESULT:      -3.3      2.787      3.687
REMARK  2 active torsions:
REMARK  status: ('A' for Active; 'I' for Inactive)
REMARK    1  A    between atoms: C3_3  and  O1_8 
REMARK    2  A    between atoms: C6_6  and  N1_7 
ROOT
HETATM    1  C1  UNL     1      18.812   1.256   5.354  1.00  0.00     0.026 A 
HETATM    2  C2  UNL     1      18.270   2.506   5.662  1.00  0.00     0.038 A 
HETATM    3  C3  UNL     1      18.126   3.458   4.662  1.00  0.00     0.065 A 
HETATM    4  C4  UNL     1      18.501   3.173   3.354  1.00  0.00     0.038 A 
HETATM    5  C5  UNL     1      19.044   1.920   3.054  1.00  0.00     0.026 A 
HETATM    6  C6  UNL     1      19.251   0.969   4.058  1.00  0.00     0.005 A 
ENDROOT
BRANCH   6   7
HETATM    7  N1  UNL     1      19.682  -0.321   3.729  1.00  0.00    -0.303 NA
HETATM    8  H5  UNL     1      20.497  -0.625   4.254  1.00  0.00     0.124 HD
HETATM    9  H6  UNL     1      19.785  -0.477   2.732  1.00  0.00     0.124 HD
ENDBRANCH   6   7
BRANCH   3  10
HETATM   10  O1  UNL     1      17.591   4.664   5.002  1.00  0.00    -0.361 OA
HETATM   11  H7  UNL     1      18.306   5.320   5.044  1.00  0.00     0.217 HD
ENDBRANCH   3  10
TORSDOF 2
ENDMDL
MODEL 4
REMARK VINA RESULT:      -3.3      2.612      3.130
REMARK  2 active torsions:
REMARK  status: ('A' for Active; 'I' for Inactive)
REMARK    1  A    between atoms: C3_3  and  O1_8 
REMARK    2  A    between atoms: C6_6  and  N1_7 
ROOT
HETATM    1  C1  UNL     1      19.260   1.683   3.774  1.00  0.00     0.026 A 
HETATM    2  C2  UNL     1      18.852   2.736   2.952  1.00  0.00     0.038 A 
HETATM    3  C3  UNL     1      18.127   3.788   3.492  1.00  0.00     0.065 A 
HETATM    4  C4  UNL     1      17.817   3.812   4.847  1.00  0.00     0.038 A 
HETATM    5  C5  UNL     1      18.227   2.754   5.663  1.00  0.00     0.026 A 
HETATM    6  C6  UNL     1      18.908   1.657   5.127  1.00  0.00     0.005 A 
ENDROOT
BRANCH   6   7
HETATM    7  N1  UNL     1      19.418   0.662   5.969  1.00  0.00    -0.303 NA
HETATM    8  H5  UNL     1      20.086   1.009   6.651  1.00  0.00     0.124 HD
HETATM    9  H6  UNL     1      19.757  -0.158   5.478  1.00  0.00     0.124 HD
ENDBRANCH   6   7
BRANCH   3  10
HETATM   10  O1  UNL     1      17.749   4.798   2.658  1.00  0.00    -0.361 OA
HETATM   11  H7  UNL     1      16.829   5.035   2.855  1.00  0.00     0.217 HD
ENDBRANCH   3  10
TORSDOF 2
ENDMDL
MODEL 5
REMARK VINA RESULT:      -3.1      1.883      2.714
REMARK  2 active torsions:
REMARK  status: ('A' for Active; 'I' for Inactive)
REMARK    1  A    between atoms: C3_3  and  O1_8 
REMARK    2  A    between atoms: C6_6  and  N1_7 
ROOT
HETATM    1  C1  UNL     1      19.044   1.109   3.755  1.00  0.00     0.026 A 
HETATM    2  C2  UNL     1      19.861  -0.011   3.930  1.00  0.00     0.038 A 
HETATM    3  C3  UNL     1      21.162   0.006   3.449  1.00  0.00     0.065 A 
HETATM    4  C4  UNL     1      21.666   1.132   2.808  1.00  0.00     0.038 A 
HETATM    5  C5  UNL     1      20.842   2.248   2.635  1.00  0.00     0.026 A 
HETATM    6  C6  UNL     1      19.510   2.229   3.061  1.00  0.00     0.005 A 
ENDROOT
BRANCH   6   7
HETATM    7  N1  UNL     1      18.731   3.390   2.991  1.00  0.00    -0.303 NA
HETATM    8  H5  UNL     1      19.046   4.130   3.610  1.00  0.00     0.124 HD
HETATM    9  H6  UNL     1      17.734   3.220   3.068  1.00  0.00     0.124 HD
ENDBRANCH   6   7
BRANCH   3  10
HETATM   10  O1  UNL     1      21.928  -1.104   3.642  1.00  0.00    -0.361 OA
HETATM   11  H7  UNL     1      22.385  -1.021   4.495  1.00  0.00     0.217 HD
ENDBRANCH   3  10
TORSDOF 2
ENDMDL
MODEL 6
REMARK VINA RESULT:      -3.1      1.576      1.960
REMARK  2 active torsions:
REMARK  status: ('A' for Active; 'I' for Inactive)
REMARK    1  A    between atoms: C3_3  and  O1_8 
REMARK    2  A    between atoms: C6_6  and  N1_7 
ROOT
HETATM    1  C1  UNL     1      17.611   3.818   5.026  1.00  0.00     0.026 A 
HETATM    2  C2  UNL     1      18.312   3.535   3.852  1.00  0.00     0.038 A 
HETATM    3  C3  UNL     1      19.048   2.363   3.755  1.00  0.00     0.065 A 
HETATM    4  C4  UNL     1      19.081   1.459   4.812  1.00  0.00     0.038 A 
HETATM    5  C5  UNL     1      18.378   1.749   5.984  1.00  0.00     0.026 A 
HETATM    6  C6  UNL     1      17.678   2.953   6.122  1.00  0.00     0.005 A 
ENDROOT
BRANCH   6   7
HETATM    7  N1  UNL     1      16.882   3.180   7.251  1.00  0.00    -0.303 NA
HETATM    8  H5  UNL     1      16.005   3.647   7.044  1.00  0.00     0.124 HD
HETATM    9  H6  UNL     1      17.378   3.613   8.022  1.00  0.00     0.124 HD
ENDBRANCH   6   7
BRANCH   3  10
HETATM   10  O1  UNL     1      19.715   2.122   2.592  1.00  0.00    -0.361 OA
HETATM   11  H7  UNL     1      19.110   2.276   1.850  1.00  0.00     0.217 HD
ENDBRANCH   3  10
TORSDOF 2
ENDMDL
MODEL 7
REMARK VINA RESULT:      -3.1      3.258      4.125
REMARK  2 active torsions:
REMARK  status: ('A' for Active; 'I' for Inactive)
REMARK    1  A    between atoms: C3_3  and  O1_8 
REMARK    2  A    between atoms: C6_6  and  N1_7 
ROOT
HETATM    1  C1  UNL     1      19.876   0.039   3.870  1.00  0.00     0.026 A 
HETATM    2  C2  UNL     1      19.036   1.140   3.685  1.00  0.00     0.038 A 
HETATM    3  C3  UNL     1      19.522   2.277   3.055  1.00  0.00     0.065 A 
HETATM    4  C4  UNL     1      20.832   2.323   2.590  1.00  0.00     0.038 A 
HETATM    5  C5  UNL     1      21.666   1.218   2.780  1.00  0.00     0.026 A 
HETATM    6  C6  UNL     1      21.213   0.086   3.465  1.00  0.00     0.005 A 
ENDROOT
BRANCH   6   7
HETATM    7  N1  UNL     1      22.015  -1.058   3.544  1.00  0.00    -0.303 NA
HETATM    8  H5  UNL     1      22.964  -0.914   3.214  1.00  0.00     0.124 HD
HETATM    9  H6  UNL     1      21.588  -1.887   3.145  1.00  0.00     0.124 HD
ENDBRANCH   6   7
BRANCH   3  10
HETATM   10  O1  UNL     1      18.672   3.329   2.891  1.00  0.00    -0.361 OA
HETATM   11  H7  UNL     1      17.840   3.129   3.350  1.00  0.00     0.217 HD
ENDBRANCH   3  10
TORSDOF 2
ENDMDL
MODEL 8
REMARK VINA RESULT:      -3.0      2.696      3.286
REMARK  2 active torsions:
REMARK  status: ('A' for Active; 'I' for Inactive)
REMARK    1  A    between atoms: C3_3  and  O1_8 
REMARK    2  A    between atoms: C6_6  and  N1_7 
ROOT
HETATM    1  C1  UNL     1      20.406   2.249   2.898  1.00  0.00     0.026 A 
HETATM    2  C2  UNL     1      19.307   1.443   3.207  1.00  0.00     0.038 A 
HETATM    3  C3  UNL     1      19.510   0.145   3.652  1.00  0.00     0.065 A 
HETATM    4  C4  UNL     1      20.798  -0.356   3.810  1.00  0.00     0.038 A 
HETATM    5  C5  UNL     1      21.892   0.456   3.497  1.00  0.00     0.026 A 
HETATM    6  C6  UNL     1      21.707   1.746   2.992  1.00  0.00     0.005 A 
ENDROOT
BRANCH   6   7
HETATM    7  N1  UNL     1      22.805   2.591   2.796  1.00  0.00    -0.303 NA
HETATM    8  H5  UNL     1      23.306   2.813   3.650  1.00  0.00     0.124 HD
HETATM    9  H6  UNL     1      22.595   3.417   2.245  1.00  0.00     0.124 HD
ENDBRANCH   6   7
BRANCH   3  10
HETATM   10  O1  UNL     1      18.413  -0.608   3.945  1.00  0.00    -0.361 OA
HETATM   11  H7  UNL     1      17.661  -0.274   3.430  1.00  0.00     0.217 HD
ENDBRANCH   3  10
TORSDOF 2
ENDMDL
MODEL 9
REMARK VINA RESULT:      -3.0      2.603      3.327
REMARK  2 active torsions:
REMARK  status: ('A' for Active; 'I' for Inactive)
REMARK    1  A    between atoms: C3_3  and  O1_8 
REMARK    2  A    between atoms: C6_6  and  N1_7 
ROOT
HETATM    1  C1  UNL     1      21.865   0.672   3.826  1.00  0.00     0.026 A 
HETATM    2  C2  UNL     1      20.770  -0.183   3.969  1.00  0.00     0.038 A 
HETATM    3  C3  UNL     1      19.496   0.273   3.662  1.00  0.00     0.065 A 
HETATM    4  C4  UNL     1      19.301   1.570   3.197  1.00  0.00     0.038 A 
HETATM    5  C5  UNL     1      20.402   2.420   3.058  1.00  0.00     0.026 A 
HETATM    6  C6  UNL     1      21.685   1.997   3.418  1.00  0.00     0.005 A 
ENDROOT
BRANCH   6   7
HETATM    7  N1  UNL     1      22.794   2.813   3.163  1.00  0.00    -0.303 NA
HETATM    8  H5  UNL     1      23.028   2.886   2.178  1.00  0.00     0.124 HD
HETATM    9  H6  UNL     1      23.602   2.598   3.738  1.00  0.00     0.124 HD
ENDBRANCH   6   7
BRANCH   3  10
HETATM   10  O1  UNL     1      18.454  -0.592   3.812  1.00  0.00    -0.361 OA
HETATM   11  H7  UNL     1      18.372  -1.122   3.003  1.00  0.00     0.217 HD
ENDBRANCH   3  10
TORSDOF 2
ENDMDL
MODEL 10
REMARK VINA RESULT:      -2.9      9.803     10.645
REMARK  2 active torsions:
REMARK  status: ('A' for Active; 'I' for Inactive)
REMARK    1  A    between atoms: C3_3  and  O1_8 
REMARK    2  A    between atoms: C6_6  and  N1_7 
ROOT
HETATM    1  C1  UNL     1      19.251  -6.951  10.066  1.00  0.00     0.026 A 
HETATM    2  C2  UNL     1      18.539  -8.150   9.991  1.00  0.00     0.038 A 
HETATM    3  C3  UNL     1      17.195  -8.131   9.644  1.00  0.00     0.065 A 
HETATM    4  C4  UNL     1      16.556  -6.930   9.354  1.00  0.00     0.038 A 
HETATM    5  C5  UNL     1      17.276  -5.734   9.432  1.00  0.00     0.026 A 
HETATM    6  C6  UNL     1      18.614  -5.728   9.837  1.00  0.00     0.005 A 
ENDROOT
BRANCH   6   7
HETATM    7  N1  UNL     1      19.357  -4.542   9.797  1.00  0.00    -0.303 NA
HETATM    8  H5  UNL     1      18.785  -3.703   9.787  1.00  0.00     0.124 HD
HETATM    9  H6  UNL     1      20.073  -4.531   9.080  1.00  0.00     0.124 HD
ENDBRANCH   6   7
BRANCH   3  10
HETATM   10  O1  UNL     1      16.535  -9.321   9.579  1.00  0.00    -0.361 OA
HETATM   11  H7  UNL     1      17.186 -10.040   9.636  1.00  0.00     0.217 HD
ENDBRANCH   3  10
TORSDOF 2
ENDMDL
MODEL 11
REMARK VINA RESULT:      -2.9      3.130      3.717
REMARK  2 active torsions:
REMARK  status: ('A' for Active; 'I' for Inactive)
REMARK    1  A    between atoms: C3_3  and  O1_8 
REMARK    2  A    between atoms: C6_6  and  N1_7 
ROOT
HETATM    1  C1  UNL     1      19.428   0.923   3.988  1.00  0.00     0.026 A 
HETATM    2  C2  UNL     1      18.895   1.804   4.932  1.00  0.00     0.038 A 
HETATM    3  C3  UNL     1      19.366   1.781   6.237  1.00  0.00     0.065 A 
HETATM    4  C4  UNL     1      20.374   0.899   6.610  1.00  0.00     0.038 A 
HETATM    5  C5  UNL     1      20.902   0.019   5.660  1.00  0.00     0.026 A 
HETATM    6  C6  UNL     1      20.400  -0.013   4.356  1.00  0.00     0.005 A 
ENDROOT
BRANCH   6   7
HETATM    7  N1  UNL     1      21.013  -0.811   3.384  1.00  0.00    -0.303 NA
HETATM    8  H5  UNL     1      20.416  -1.017   2.589  1.00  0.00     0.124 HD
HETATM    9  H6  UNL     1      21.460  -1.642   3.757  1.00  0.00     0.124 HD
ENDBRANCH   6   7
BRANCH   3  10
HETATM   10  O1  UNL     1      18.823   2.658   7.127  1.00  0.00    -0.361 OA
HETATM   11  H7  UNL     1      19.534   3.017   7.682  1.00  0.00     0.217 HD
ENDBRANCH   3  10
TORSDOF 2
ENDMDL
MODEL 12
REMARK VINA RESULT:      -2.8      2.003      2.646
REMARK  2 active torsions:
REMARK  status: ('A' for Active; 'I' for Inactive)
REMARK    1  A    between atoms: C3_3  and  O1_8 
REMARK    2  A    between atoms: C6_6  and  N1_7 
ROOT
HETATM    1  C1  UNL     1      21.023   1.219   6.172  1.00  0.00     0.026 A 
HETATM    2  C2  UNL     1      21.475   0.356   5.171  1.00  0.00     0.038 A 
HETATM    3  C3  UNL     1      20.577  -0.147   4.240  1.00  0.00     0.065 A 
HETATM    4  C4  UNL     1      19.235   0.213   4.284  1.00  0.00     0.038 A 
HETATM    5  C5  UNL     1      18.790   1.077   5.290  1.00  0.00     0.026 A 
HETATM    6  C6  UNL     1      19.668   1.547   6.272  1.00  0.00     0.005 A 
ENDROOT
BRANCH   6   7
HETATM    7  N1  UNL     1      19.240   2.503   7.200  1.00  0.00    -0.303 NA
HETATM    8  H5  UNL     1      18.303   2.337   7.554  1.00  0.00     0.124 HD
HETATM    9  H6  UNL     1      19.373   3.461   6.894  1.00  0.00     0.124 HD
ENDBRANCH   6   7
BRANCH   3  10
HETATM   10  O1  UNL     1      21.057  -0.984   3.278  1.00  0.00    -0.361 OA
HETATM   11  H7  UNL     1      21.784  -0.539   2.814  1.00  0.00     0.217 HD
ENDBRANCH   3  10
TORSDOF 2
ENDMDL
MODEL 13
REMARK VINA RESULT:      -2.8      9.425      9.504
REMARK  2 active torsions:
REMARK  status: ('A' for Active; 'I' for Inactive)
REMARK    1  A    between atoms: C3_3  and  O1_8 
REMARK    2  A    between atoms: C6_6  and  N1_7 
ROOT
HETATM    1  C1  UNL     1      18.805  -5.216  10.115  1.00  0.00     0.026 A 
HETATM    2  C2  UNL     1      18.007  -5.897   9.194  1.00  0.00     0.038 A 
HETATM    3  C3  UNL     1      16.625  -5.791   9.270  1.00  0.00     0.065 A 
HETATM    4  C4  UNL     1      16.028  -4.998  10.244  1.00  0.00     0.038 A 
HETATM    5  C5  UNL     1      16.834  -4.320  11.164  1.00  0.00     0.026 A 
HETATM    6  C6  UNL     1      18.225  -4.462  11.140  1.00  0.00     0.005 A 
ENDROOT
BRANCH   6   7
HETATM    7  N1  UNL     1      19.027  -3.687  11.986  1.00  0.00    -0.303 NA
HETATM    8  H5  UNL     1      19.435  -2.876  11.532  1.00  0.00     0.124 HD
HETATM    9  H6  UNL     1      19.712  -4.224  12.507  1.00  0.00     0.124 HD
ENDBRANCH   6   7
BRANCH   3  10
HETATM   10  O1  UNL     1      15.881  -6.469   8.351  1.00  0.00    -0.361 OA
HETATM   11  H7  UNL     1      15.530  -5.833   7.707  1.00  0.00     0.217 HD
ENDBRANCH   3  10
TORSDOF 2
ENDMDL
MODEL 14
REMARK VINA RESULT:      -2.8     10.196     11.161
REMARK  2 active torsions:
REMARK  status: ('A' for Active; 'I' for Inactive)
REMARK    1  A    between atoms: C3_3  and  O1_8 
REMARK    2  A    between atoms: C6_6  and  N1_7 
ROOT
HETATM    1  C1  UNL     1      18.105  -8.340  10.295  1.00  0.00     0.026 A 
HETATM    2  C2  UNL     1      18.947  -7.276   9.966  1.00  0.00     0.038 A 
HETATM    3  C3  UNL     1      18.404  -6.096   9.476  1.00  0.00     0.065 A 
HETATM    4  C4  UNL     1      17.028  -5.959   9.324  1.00  0.00     0.038 A 
HETATM    5  C5  UNL     1      16.192  -7.030   9.655  1.00  0.00     0.026 A 
HETATM    6  C6  UNL     1      16.724  -8.246  10.095  1.00  0.00     0.005 A 
ENDROOT
BRANCH   6   7
HETATM    7  N1  UNL     1      15.876  -9.268  10.536  1.00  0.00    -0.303 NA
HETATM    8  H5  UNL     1      15.559  -9.151  11.493  1.00  0.00     0.124 HD
HETATM    9  H6  UNL     1      16.231 -10.202  10.358  1.00  0.00     0.124 HD
ENDBRANCH   6   7
BRANCH   3  10
HETATM   10  O1  UNL     1      19.258  -5.080   9.168  1.00  0.00    -0.361 OA
HETATM   11  H7  UNL     1      18.749  -4.360   8.763  1.00  0.00     0.217 HD
ENDBRANCH   3  10
TORSDOF 2
ENDMDL
MODEL 15
REMARK VINA RESULT:      -2.7      2.511      3.087
REMARK  2 active torsions:
REMARK  status: ('A' for Active; 'I' for Inactive)
REMARK    1  A    between atoms: C3_3  and  O1_8 
REMARK    2  A    between atoms: C6_6  and  N1_7 
ROOT
HETATM    1  C1  UNL     1      19.147   1.824   3.767  1.00  0.00     0.026 A 
HETATM    2  C2  UNL     1      20.056   2.264   2.802  1.00  0.00     0.038 A 
HETATM    3  C3  UNL     1      21.232   1.557   2.593  1.00  0.00     0.065 A 
HETATM    4  C4  UNL     1      21.505   0.406   3.323  1.00  0.00     0.038 A 
HETATM    5  C5  UNL     1      20.591  -0.027   4.288  1.00  0.00     0.026 A 
HETATM    6  C6  UNL     1      19.429   0.704   4.554  1.00  0.00     0.005 A 
ENDROOT
BRANCH   6   7
HETATM    7  N1  UNL     1      18.466   0.199   5.435  1.00  0.00    -0.303 NA
HETATM    8  H5  UNL     1      17.511   0.361   5.131  1.00  0.00     0.124 HD
HETATM    9  H6  UNL     1      18.614   0.466   6.402  1.00  0.00     0.124 HD
ENDBRANCH   6   7
BRANCH   3  10
HETATM   10  O1  UNL     1      22.091   2.017   1.641  1.00  0.00    -0.361 OA
HETATM   11  H7  UNL     1      22.944   1.565   1.749  1.00  0.00     0.217 HD
ENDBRANCH   3  10
TORSDOF 2
ENDMDL
MODEL 16
REMARK VINA RESULT:      -2.7      2.971      3.499
REMARK  2 active torsions:
REMARK  status: ('A' for Active; 'I' for Inactive)
REMARK    1  A    between atoms: C3_3  and  O1_8 
REMARK    2  A    between atoms: C6_6  and  N1_7 
ROOT
HETATM    1  C1  UNL     1      21.235   0.299   4.089  1.00  0.00     0.026 A 
HETATM    2  C2  UNL     1      20.470   1.182   3.324  1.00  0.00     0.038 A 
HETATM    3  C3  UNL     1      19.321   1.742   3.865  1.00  0.00     0.065 A 
HETATM    4  C4  UNL     1      18.934   1.445   5.167  1.00  0.00     0.038 A 
HETATM    5  C5  UNL     1      19.705   0.560   5.926  1.00  0.00     0.026 A 
HETATM    6  C6  UNL     1      20.832  -0.060   5.379  1.00  0.00     0.005 A 
ENDROOT
BRANCH   6   7
HETATM    7  N1  UNL     1      21.662  -0.850   6.183  1.00  0.00    -0.303 NA
HETATM    8  H5  UNL     1      22.071  -0.347   6.965  1.00  0.00     0.124 HD
HETATM    9  H6  UNL     1      22.352  -1.382   5.663  1.00  0.00     0.124 HD
ENDBRANCH   6   7
BRANCH   3  10
HETATM   10  O1  UNL     1      18.603   2.600   3.088  1.00  0.00    -0.361 OA
HETATM   11  H7  UNL     1      19.218   3.206   2.644  1.00  0.00     0.217 HD
ENDBRANCH   3  10
TORSDOF 2
ENDMDL
MODEL 17
REMARK VINA RESULT:      -2.7      9.906     10.933
REMARK  2 active torsions:
REMARK  status: ('A' for Active; 'I' for Inactive)
REMARK    1  A    between atoms: C3_3  and  O1_8 
REMARK    2  A    between atoms: C6_6  and  N1_7 
ROOT
HETATM    1  C1  UNL     1      17.056  -8.007   9.612  1.00  0.00     0.026 A 
HETATM    2  C2  UNL     1      18.174  -8.508  10.281  1.00  0.00     0.038 A 
HETATM    3  C3  UNL     1      19.269  -7.685  10.503  1.00  0.00     0.065 A 
HETATM    4  C4  UNL     1      19.256  -6.360  10.080  1.00  0.00     0.038 A 
HETATM    5  C5  UNL     1      18.133  -5.866   9.410  1.00  0.00     0.026 A 
HETATM    6  C6  UNL     1      17.044  -6.696   9.125  1.00  0.00     0.005 A 
ENDROOT
BRANCH   6   7
HETATM    7  N1  UNL     1      15.880  -6.163   8.561  1.00  0.00    -0.303 NA
HETATM    8  H5  UNL     1      15.078  -6.784   8.618  1.00  0.00     0.124 HD
HETATM    9  H6  UNL     1      16.010  -5.786   7.629  1.00  0.00     0.124 HD
ENDBRANCH   6   7
BRANCH   3  10
HETATM   10  O1  UNL     1      20.340  -8.210  11.162  1.00  0.00    -0.361 OA
HETATM   11  H7  UNL     1      20.391  -7.805  12.042  1.00  0.00     0.217 HD
ENDBRANCH   3  10
TORSDOF 2
ENDMDL
MODEL 18
REMARK VINA RESULT:      -2.4      9.854     10.766
REMARK  2 active torsions:
REMARK  status: ('A' for Active; 'I' for Inactive)
REMARK    1  A    between atoms: C3_3  and  O1_8 
REMARK    2  A    between atoms: C6_6  and  N1_7 
ROOT
HETATM    1  C1  UNL     1      17.788  -5.992   9.489  1.00  0.00     0.026 A 
HETATM    2  C2  UNL     1      19.082  -5.528   9.741  1.00  0.00     0.038 A 
HETATM    3  C3  UNL     1      20.055  -6.413  10.184  1.00  0.00     0.065 A 
HETATM    4  C4  UNL     1      19.758  -7.759  10.364  1.00  0.00     0.038 A 
HETATM    5  C5  UNL     1      18.461  -8.215  10.111  1.00  0.00     0.026 A 
HETATM    6  C6  UNL     1      17.453  -7.329   9.720  1.00  0.00     0.005 A 
ENDROOT
BRANCH   6   7
HETATM    7  N1  UNL     1      16.191  -7.813   9.355  1.00  0.00    -0.303 NA
HETATM    8  H5  UNL     1      15.473  -7.096   9.321  1.00  0.00     0.124 HD
HETATM    9  H6  UNL     1      15.897  -8.629   9.881  1.00  0.00     0.124 HD
ENDBRANCH   6   7
BRANCH   3  10
HETATM   10  O1  UNL     1      21.305  -5.923  10.416  1.00  0.00    -0.361 OA
HETATM   11  H7  UNL     1      21.446  -5.152   9.844  1.00  0.00     0.217 HD
ENDBRANCH   3  10
TORSDOF 2
ENDMDL
MODEL 19
REMARK VINA RESULT:      -2.4      9.310      9.563
REMARK  2 active torsions:
REMARK  status: ('A' for Active; 'I' for Inactive)
REMARK    1  A    between atoms: C3_3  and  O1_8 
REMARK    2  A    between atoms: C6_6  and  N1_7 
ROOT
HETATM    1  C1  UNL     1      17.073  -4.476  10.816  1.00  0.00     0.026 A 
HETATM    2  C2  UNL     1      18.268  -3.873  11.214  1.00  0.00     0.038 A 
HETATM    3  C3  UNL     1      19.472  -4.317  10.685  1.00  0.00     0.065 A 
HETATM    4  C4  UNL     1      19.498  -5.345   9.750  1.00  0.00     0.038 A 
HETATM    5  C5  UNL     1      18.297  -5.945   9.357  1.00  0.00     0.026 A 
HETATM    6  C6  UNL     1      17.080  -5.552   9.923  1.00  0.00     0.005 A 
ENDROOT
BRANCH   6   7
HETATM    7  N1  UNL     1      15.876  -6.074   9.438  1.00  0.00    -0.303 NA
HETATM    8  H5  UNL     1      15.409  -5.469   8.769  1.00  0.00     0.124 HD
HETATM    9  H6  UNL     1      15.249  -6.404  10.164  1.00  0.00     0.124 HD
ENDBRANCH   6   7
BRANCH   3  10
HETATM   10  O1  UNL     1      20.616  -3.701  11.096  1.00  0.00    -0.361 OA
HETATM   11  H7  UNL     1      21.233  -3.661  10.348  1.00  0.00     0.217 HD
ENDBRANCH   3  10
TORSDOF 2
ENDMDL
MODEL 20
REMARK VINA RESULT:      -2.3      9.728     10.415
REMARK  2 active torsions:
REMARK  status: ('A' for Active; 'I' for Inactive)
REMARK    1  A    between atoms: C3_3  and  O1_8 
REMARK    2  A    between atoms: C6_6  and  N1_7 
ROOT
HETATM    1  C1  UNL     1      18.366  -4.999  10.372  1.00  0.00     0.026 A 
HETATM    2  C2  UNL     1      17.145  -5.574  10.015  1.00  0.00     0.038 A 
HETATM    3  C3  UNL     1      17.087  -6.923   9.696  1.00  0.00     0.065 A 
HETATM    4  C4  UNL     1      18.231  -7.712   9.745  1.00  0.00     0.038 A 
HETATM    5  C5  UNL     1      19.451  -7.129  10.102  1.00  0.00     0.026 A 
HETATM    6  C6  UNL     1      19.540  -5.759  10.369  1.00  0.00     0.005 A 
ENDROOT
BRANCH   6   7
HETATM    7  N1  UNL     1      20.737  -5.209  10.840  1.00  0.00    -0.303 NA
HETATM    8  H5  UNL     1      21.307  -4.789  10.112  1.00  0.00     0.124 HD
HETATM    9  H6  UNL     1      21.270  -5.835  11.435  1.00  0.00     0.124 HD
ENDBRANCH   6   7
BRANCH   3  10
HETATM   10  O1  UNL     1      15.876  -7.448   9.356  1.00  0.00    -0.361 OA
HETATM   11  H7  UNL     1      15.259  -6.718   9.188  1.00  0.00     0.217 HD
ENDBRANCH   3  10
TORSDOF 2
ENDMDL
