MODEL 1
REMARK VINA RESULT:      -4.1      0.000      0.000
REMARK  27 active torsions:
REMARK  status: ('A' for Active; 'I' for Inactive)
REMARK    1  A    between atoms: C2_2  and  S1_4 
REMARK    2  A    between atoms: S1_4  and  C3_5 
REMARK    3  A    between atoms: C3_5  and  C4_6 
REMARK    4  A    between atoms: C4_6  and  N1_7 
REMARK       I    between atoms: N1_7  and  C5_8 
REMARK    5  A    between atoms: C5_8  and  C6_10 
REMARK    6  A    between atoms: C6_10  and  C7_11 
REMARK    7  A    between atoms: C7_11  and  N2_12 
REMARK       I    between atoms: N2_12  and  C8_13 
REMARK    8  A    between atoms: C8_13  and  C9_15 
REMARK    9  A    between atoms: C9_15  and  C10_16 
REMARK   10  A    between atoms: C9_15  and  O17_54 
REMARK   11  A    between atoms: C10_16  and  C13_19 
REMARK   12  A    between atoms: C13_19  and  O4_20 
REMARK   13  A    between atoms: O4_20  and  P1_21 
REMARK   14  A    between atoms: P1_21  and  O6_23 
REMARK   15  A    between atoms: P1_21  and  O7_24 
REMARK   16  A    between atoms: O7_24  and  P2_25 
REMARK   17  A    between atoms: P2_25  and  O9_27 
REMARK   18  A    between atoms: P2_25  and  O10_28 
REMARK   19  A    between atoms: O10_28  and  C14_29 
REMARK   20  A    between atoms: C14_29  and  C15_30 
REMARK   21  A    between atoms: C16_31  and  O13_49 
REMARK   22  A    between atoms: C17_32  and  O12_48 
REMARK   23  A    between atoms: C18_33  and  N3_35 
REMARK   24  A    between atoms: C21_40  and  N7_47 
REMARK   25  A    between atoms: O13_49  and  P3_50 
REMARK   26  A    between atoms: P3_50  and  O15_52 
REMARK   27  A    between atoms: P3_50  and  O16_53 
ROOT
HETATM    1  C1  UNL     1      24.593  -1.985   9.627  1.00  0.00     0.104 C 
HETATM    2  C2  UNL     1      23.376  -2.571   8.979  1.00  0.00     0.182 C 
HETATM    3  O1  UNL     1      22.262  -2.058   9.048  1.00  0.00    -0.286 OA
ENDROOT
BRANCH   2   4
HETATM    4  S1  UNL     1      23.663  -4.089   8.138  1.00  0.00    -0.091 SA
BRANCH   4   5
HETATM    5  C3  UNL     1      22.036  -4.337   7.356  1.00  0.00     0.102 C 
BRANCH   5   6
HETATM    6  C4  UNL     1      21.995  -5.618   6.519  1.00  0.00     0.133 C 
BRANCH   6   7
HETATM    7  N1  UNL     1      20.798  -6.399   6.750  1.00  0.00    -0.360 N 
HETATM    8  C5  UNL     1      20.393  -7.379   5.873  1.00  0.00     0.219 C 
HETATM    9  O2  UNL     1      20.969  -7.595   4.814  1.00  0.00    -0.274 OA
HETATM   10  H8  UNL     1      20.252  -6.219   7.582  1.00  0.00     0.162 HD
BRANCH   8  11
HETATM   11  C6  UNL     1      19.149  -8.112   6.328  1.00  0.00     0.122 C 
BRANCH  11  12
HETATM   12  C7  UNL     1      17.872  -7.417   5.856  1.00  0.00     0.132 C 
BRANCH  12  13
HETATM   13  N2  UNL     1      17.762  -7.350   4.414  1.00  0.00    -0.358 N 
HETATM   14  C8  UNL     1      16.988  -8.270   3.731  1.00  0.00     0.247 C 
HETATM   15  O3  UNL     1      16.473  -9.230   4.289  1.00  0.00    -0.271 OA
HETATM   16  H13 UNL     1      17.841  -6.418   4.012  1.00  0.00     0.162 HD
BRANCH  14  17
HETATM   17  C9  UNL     1      16.814  -7.979   2.233  1.00  0.00     0.219 C 
BRANCH  17  18
HETATM   18  C10 UNL     1      17.721  -8.828   1.304  1.00  0.00     0.009 C 
HETATM   19  C11 UNL     1      17.541 -10.335   1.539  1.00  0.00     0.020 C 
HETATM   20  C12 UNL     1      17.433  -8.541  -0.183  1.00  0.00     0.020 C 
BRANCH  18  21
HETATM   21  C13 UNL     1      19.183  -8.418   1.644  1.00  0.00     0.192 C 
BRANCH  21  22
HETATM   22  O4  UNL     1      19.651  -7.365   0.825  1.00  0.00    -0.296 OA
BRANCH  22  23
HETATM   23  P1  UNL     1      20.395  -6.071   1.411  1.00  0.00     0.401 P 
HETATM   24  O5  UNL     1      20.542  -4.953   0.428  1.00  0.00    -0.631 OA
BRANCH  23  25
HETATM   25  O6  UNL     1      21.791  -6.579   2.031  1.00  0.00    -0.307 OA
HETATM   26  H23 UNL     1      22.519  -5.980   1.821  1.00  0.00     0.222 HD
ENDBRANCH  23  25
BRANCH  23  27
HETATM   27  O7  UNL     1      19.589  -5.696   2.730  1.00  0.00    -0.195 OA
BRANCH  27  28
HETATM   28  P2  UNL     1      19.860  -4.287   3.423  1.00  0.00     0.401 P 
HETATM   29  O8  UNL     1      21.288  -3.883   3.599  1.00  0.00    -0.631 OA
BRANCH  28  30
HETATM   30  O9  UNL     1      19.001  -3.272   2.539  1.00  0.00    -0.307 OA
HETATM   31  H24 UNL     1      18.113  -3.618   2.276  1.00  0.00     0.222 HD
ENDBRANCH  28  30
BRANCH  28  32
HETATM   32  O10 UNL     1      18.980  -4.336   4.754  1.00  0.00    -0.294 OA
BRANCH  32  33
HETATM   33  C14 UNL     1      18.982  -3.245   5.638  1.00  0.00     0.215 C 
BRANCH  33  34
HETATM   34  C15 UNL     1      17.844  -3.494   6.626  1.00  0.00     0.180 C 
HETATM   35  C16 UNL     1      16.507  -3.212   5.953  1.00  0.00     0.197 C 
HETATM   36  C17 UNL     1      15.910  -2.067   6.750  1.00  0.00     0.199 C 
HETATM   37  C18 UNL     1      16.587  -2.235   8.113  1.00  0.00     0.262 C 
HETATM   38  O11 UNL     1      17.927  -2.670   7.794  1.00  0.00    -0.353 OA
BRANCH  35  39
HETATM   39  O13 UNL     1      15.714  -4.392   6.034  1.00  0.00    -0.286 OA
BRANCH  39  40
HETATM   40  P3  UNL     1      15.115  -4.915   4.647  1.00  0.00     0.391 P 
HETATM   41  O14 UNL     1      14.513  -6.281   4.728  1.00  0.00    -0.632 OA
BRANCH  40  42
HETATM   42  O15 UNL     1      16.377  -4.718   3.683  1.00  0.00    -0.307 OA
HETATM   43  H36 UNL     1      16.535  -5.530   3.145  1.00  0.00     0.222 HD
ENDBRANCH  40  42
BRANCH  40  44
HETATM   44  O16 UNL     1      14.159  -3.711   4.242  1.00  0.00    -0.307 OA
HETATM   45  H37 UNL     1      14.582  -2.844   4.341  1.00  0.00     0.222 HD
ENDBRANCH  40  44
ENDBRANCH  39  40
ENDBRANCH  35  39
BRANCH  36  46
HETATM   46  O12 UNL     1      14.482  -2.128   6.714  1.00  0.00    -0.388 OA
HETATM   47  H35 UNL     1      14.245  -3.086   6.722  1.00  0.00     0.210 HD
ENDBRANCH  36  46
BRANCH  37  48
HETATM   48  N3  UNL     1      16.664  -0.991   8.853  1.00  0.00    -0.297 N 
HETATM   49  C19 UNL     1      17.745  -0.145   8.946  1.00  0.00     0.188 A 
HETATM   50  N4  UNL     1      17.455   0.965   9.589  1.00  0.00    -0.346 N 
HETATM   51  C20 UNL     1      16.119   0.834   9.925  1.00  0.00     0.116 A 
HETATM   52  H4  UNL     1      18.076   1.747   9.794  1.00  0.00     0.167 HD
HETATM   53  C21 UNL     1      15.213   1.688  10.578  1.00  0.00     0.109 A 
HETATM   54  C23 UNL     1      15.627  -0.390   9.510  1.00  0.00     0.142 A 
HETATM   55  N5  UNL     1      13.942   1.260  10.772  1.00  0.00    -0.341 N 
HETATM   56  C22 UNL     1      13.609   0.029  10.333  1.00  0.00     0.183 A 
HETATM   57  H5  UNL     1      13.256   1.853  11.239  1.00  0.00     0.167 HD
HETATM   58  N6  UNL     1      14.384  -0.869   9.691  1.00  0.00    -0.336 N 
HETATM   59  H6  UNL     1      14.069  -1.789   9.384  1.00  0.00     0.168 HD
BRANCH  53  60
HETATM   60  N7  UNL     1      15.554   2.948  11.044  1.00  0.00    -0.287 NA
HETATM   61  H33 UNL     1      14.887   3.346  11.702  1.00  0.00     0.125 HD
HETATM   62  H34 UNL     1      15.895   3.560  10.315  1.00  0.00     0.125 HD
ENDBRANCH  53  60
ENDBRANCH  37  48
ENDBRANCH  33  34
ENDBRANCH  32  33
ENDBRANCH  28  32
ENDBRANCH  27  28
ENDBRANCH  23  27
ENDBRANCH  22  23
ENDBRANCH  21  22
ENDBRANCH  18  21
ENDBRANCH  17  18
BRANCH  17  63
HETATM   63  O17 UNL     1      15.451  -8.183   1.846  1.00  0.00    -0.385 OA
HETATM   64  H38 UNL     1      15.287  -9.140   1.810  1.00  0.00     0.210 HD
ENDBRANCH  17  63
ENDBRANCH  14  17
ENDBRANCH  12  13
ENDBRANCH  11  12
ENDBRANCH   8  11
ENDBRANCH   6   7
ENDBRANCH   5   6
ENDBRANCH   4   5
ENDBRANCH   2   4
TORSDOF 27
ENDMDL
MODEL 2
REMARK VINA RESULT:      -3.8     15.558     18.494
REMARK  27 active torsions:
REMARK  status: ('A' for Active; 'I' for Inactive)
REMARK    1  A    between atoms: C2_2  and  S1_4 
REMARK    2  A    between atoms: S1_4  and  C3_5 
REMARK    3  A    between atoms: C3_5  and  C4_6 
REMARK    4  A    between atoms: C4_6  and  N1_7 
REMARK       I    between atoms: N1_7  and  C5_8 
REMARK    5  A    between atoms: C5_8  and  C6_10 
REMARK    6  A    between atoms: C6_10  and  C7_11 
REMARK    7  A    between atoms: C7_11  and  N2_12 
REMARK       I    between atoms: N2_12  and  C8_13 
REMARK    8  A    between atoms: C8_13  and  C9_15 
REMARK    9  A    between atoms: C9_15  and  C10_16 
REMARK   10  A    between atoms: C9_15  and  O17_54 
REMARK   11  A    between atoms: C10_16  and  C13_19 
REMARK   12  A    between atoms: C13_19  and  O4_20 
REMARK   13  A    between atoms: O4_20  and  P1_21 
REMARK   14  A    between atoms: P1_21  and  O6_23 
REMARK   15  A    between atoms: P1_21  and  O7_24 
REMARK   16  A    between atoms: O7_24  and  P2_25 
REMARK   17  A    between atoms: P2_25  and  O9_27 
REMARK   18  A    between atoms: P2_25  and  O10_28 
REMARK   19  A    between atoms: O10_28  and  C14_29 
REMARK   20  A    between atoms: C14_29  and  C15_30 
REMARK   21  A    between atoms: C16_31  and  O13_49 
REMARK   22  A    between atoms: C17_32  and  O12_48 
REMARK   23  A    between atoms: C18_33  and  N3_35 
REMARK   24  A    between atoms: C21_40  and  N7_47 
REMARK   25  A    between atoms: O13_49  and  P3_50 
REMARK   26  A    between atoms: P3_50  and  O15_52 
REMARK   27  A    between atoms: P3_50  and  O16_53 
ROOT
HETATM    1  C1  UNL     1      20.828 -10.085 -10.632  1.00  0.00     0.104 C 
HETATM    2  C2  UNL     1      19.918  -9.525  -9.582  1.00  0.00     0.182 C 
HETATM    3  O1  UNL     1      19.079 -10.198  -8.988  1.00  0.00    -0.286 OA
ENDROOT
BRANCH   2   4
HETATM    4  S1  UNL     1      20.119  -7.803  -9.292  1.00  0.00    -0.091 SA
BRANCH   4   5
HETATM    5  C3  UNL     1      18.862  -7.134 -10.428  1.00  0.00     0.102 C 
BRANCH   5   6
HETATM    6  C4  UNL     1      19.440  -6.853 -11.816  1.00  0.00     0.133 C 
BRANCH   6   7
HETATM    7  N1  UNL     1      19.533  -5.438 -12.108  1.00  0.00    -0.360 N 
HETATM    8  C5  UNL     1      20.738  -4.773 -12.093  1.00  0.00     0.219 C 
HETATM    9  O2  UNL     1      21.785  -5.313 -11.756  1.00  0.00    -0.274 OA
HETATM   10  H8  UNL     1      18.688  -4.931 -12.335  1.00  0.00     0.162 HD
BRANCH   8  11
HETATM   11  C6  UNL     1      20.622  -3.315 -12.479  1.00  0.00     0.122 C 
BRANCH  11  12
HETATM   12  C7  UNL     1      21.875  -2.813 -13.197  1.00  0.00     0.132 C 
BRANCH  12  13
HETATM   13  N2  UNL     1      23.006  -2.640 -12.310  1.00  0.00    -0.358 N 
HETATM   14  C8  UNL     1      24.131  -1.961 -12.741  1.00  0.00     0.247 C 
HETATM   15  O3  UNL     1      24.265  -1.590 -13.900  1.00  0.00    -0.271 OA
HETATM   16  H13 UNL     1      22.782  -2.588 -11.319  1.00  0.00     0.162 HD
BRANCH  14  17
HETATM   17  C9  UNL     1      25.179  -1.695 -11.650  1.00  0.00     0.219 C 
BRANCH  17  18
HETATM   18  C10 UNL     1      26.477  -2.534 -11.788  1.00  0.00     0.009 C 
HETATM   19  C11 UNL     1      26.186  -3.992 -12.171  1.00  0.00     0.020 C 
HETATM   20  C12 UNL     1      27.422  -1.942 -12.854  1.00  0.00     0.020 C 
BRANCH  18  21
HETATM   21  C13 UNL     1      27.166  -2.488 -10.394  1.00  0.00     0.192 C 
BRANCH  21  22
HETATM   22  O4  UNL     1      27.598  -1.187 -10.050  1.00  0.00    -0.296 OA
BRANCH  22  23
HETATM   23  P1  UNL     1      28.782  -0.911  -9.004  1.00  0.00     0.401 P 
HETATM   24  O5  UNL     1      29.871  -1.936  -9.028  1.00  0.00    -0.631 OA
BRANCH  23  25
HETATM   25  O6  UNL     1      28.093  -0.730  -7.560  1.00  0.00    -0.307 OA
HETATM   26  H23 UNL     1      27.133  -0.828  -7.602  1.00  0.00     0.222 HD
ENDBRANCH  23  25
BRANCH  23  27
HETATM   27  O7  UNL     1      29.260   0.575  -9.307  1.00  0.00    -0.195 OA
BRANCH  27  28
HETATM   28  P2  UNL     1      28.257   1.573 -10.040  1.00  0.00     0.401 P 
HETATM   29  O8  UNL     1      28.189   1.490 -11.530  1.00  0.00    -0.631 OA
BRANCH  28  30
HETATM   30  O9  UNL     1      26.865   1.297  -9.308  1.00  0.00    -0.307 OA
HETATM   31  H24 UNL     1      26.499   0.393  -9.466  1.00  0.00     0.222 HD
ENDBRANCH  28  30
BRANCH  28  32
HETATM   32  O10 UNL     1      28.627   3.005  -9.437  1.00  0.00    -0.294 OA
BRANCH  32  33
HETATM   33  C14 UNL     1      27.729   3.659  -8.580  1.00  0.00     0.215 C 
BRANCH  33  34
HETATM   34  C15 UNL     1      28.579   4.521  -7.648  1.00  0.00     0.180 C 
HETATM   35  C16 UNL     1      29.102   3.672  -6.497  1.00  0.00     0.197 C 
HETATM   36  C17 UNL     1      28.497   4.295  -5.253  1.00  0.00     0.199 C 
HETATM   37  C18 UNL     1      28.253   5.738  -5.702  1.00  0.00     0.262 C 
HETATM   38  O11 UNL     1      27.853   5.619  -7.085  1.00  0.00    -0.353 OA
BRANCH  35  39
HETATM   39  O13 UNL     1      30.524   3.753  -6.499  1.00  0.00    -0.286 OA
BRANCH  39  40
HETATM   40  P3  UNL     1      31.291   2.380  -6.785  1.00  0.00     0.391 P 
HETATM   41  O14 UNL     1      32.560   2.226  -6.011  1.00  0.00    -0.632 OA
BRANCH  40  42
HETATM   42  O15 UNL     1      31.398   2.423  -8.381  1.00  0.00    -0.307 OA
HETATM   43  H36 UNL     1      30.885   3.184  -8.744  1.00  0.00     0.222 HD
ENDBRANCH  40  42
BRANCH  40  44
HETATM   44  O16 UNL     1      30.138   1.315  -6.529  1.00  0.00    -0.307 OA
HETATM   45  H37 UNL     1      29.301   1.557  -6.955  1.00  0.00     0.222 HD
ENDBRANCH  40  44
ENDBRANCH  39  40
ENDBRANCH  35  39
BRANCH  36  46
HETATM   46  O12 UNL     1      29.356   4.093  -4.128  1.00  0.00    -0.388 OA
HETATM   47  H35 UNL     1      28.768   3.888  -3.363  1.00  0.00     0.210 HD
ENDBRANCH  36  46
BRANCH  37  48
HETATM   48  N3  UNL     1      27.184   6.378  -4.961  1.00  0.00    -0.297 N 
HETATM   49  C19 UNL     1      27.307   7.361  -4.007  1.00  0.00     0.188 A 
HETATM   50  N4  UNL     1      26.140   7.823  -3.613  1.00  0.00    -0.346 N 
HETATM   51  C20 UNL     1      25.215   7.107  -4.352  1.00  0.00     0.116 A 
HETATM   52  H4  UNL     1      25.958   8.547  -2.918  1.00  0.00     0.167 HD
HETATM   53  C21 UNL     1      23.812   7.157  -4.428  1.00  0.00     0.109 A 
HETATM   54  C23 UNL     1      25.847   6.182  -5.163  1.00  0.00     0.142 A 
HETATM   55  N5  UNL     1      23.176   6.298  -5.261  1.00  0.00    -0.341 N 
HETATM   56  C22 UNL     1      23.923   5.431  -5.975  1.00  0.00     0.183 A 
HETATM   57  H5  UNL     1      22.160   6.306  -5.346  1.00  0.00     0.167 HD
HETATM   58  N6  UNL     1      25.265   5.298  -5.992  1.00  0.00    -0.336 N 
HETATM   59  H6  UNL     1      25.771   4.617  -6.559  1.00  0.00     0.168 HD
BRANCH  53  60
HETATM   60  N7  UNL     1      23.040   8.036  -3.685  1.00  0.00    -0.287 NA
HETATM   61  H33 UNL     1      23.558   8.814  -3.285  1.00  0.00     0.125 HD
HETATM   62  H34 UNL     1      22.382   7.566  -3.078  1.00  0.00     0.125 HD
ENDBRANCH  53  60
ENDBRANCH  37  48
ENDBRANCH  33  34
ENDBRANCH  32  33
ENDBRANCH  28  32
ENDBRANCH  27  28
ENDBRANCH  23  27
ENDBRANCH  22  23
ENDBRANCH  21  22
ENDBRANCH  18  21
ENDBRANCH  17  18
BRANCH  17  63
HETATM   63  O17 UNL     1      25.534  -0.308 -11.635  1.00  0.00    -0.385 OA
HETATM   64  H38 UNL     1      26.129  -0.140 -12.384  1.00  0.00     0.210 HD
ENDBRANCH  17  63
ENDBRANCH  14  17
ENDBRANCH  12  13
ENDBRANCH  11  12
ENDBRANCH   8  11
ENDBRANCH   6   7
ENDBRANCH   5   6
ENDBRANCH   4   5
ENDBRANCH   2   4
TORSDOF 27
ENDMDL
MODEL 3
REMARK VINA RESULT:      -3.8      3.435      8.541
REMARK  27 active torsions:
REMARK  status: ('A' for Active; 'I' for Inactive)
REMARK    1  A    between atoms: C2_2  and  S1_4 
REMARK    2  A    between atoms: S1_4  and  C3_5 
REMARK    3  A    between atoms: C3_5  and  C4_6 
REMARK    4  A    between atoms: C4_6  and  N1_7 
REMARK       I    between atoms: N1_7  and  C5_8 
REMARK    5  A    between atoms: C5_8  and  C6_10 
REMARK    6  A    between atoms: C6_10  and  C7_11 
REMARK    7  A    between atoms: C7_11  and  N2_12 
REMARK       I    between atoms: N2_12  and  C8_13 
REMARK    8  A    between atoms: C8_13  and  C9_15 
REMARK    9  A    between atoms: C9_15  and  C10_16 
REMARK   10  A    between atoms: C9_15  and  O17_54 
REMARK   11  A    between atoms: C10_16  and  C13_19 
REMARK   12  A    between atoms: C13_19  and  O4_20 
REMARK   13  A    between atoms: O4_20  and  P1_21 
REMARK   14  A    between atoms: P1_21  and  O6_23 
REMARK   15  A    between atoms: P1_21  and  O7_24 
REMARK   16  A    between atoms: O7_24  and  P2_25 
REMARK   17  A    between atoms: P2_25  and  O9_27 
REMARK   18  A    between atoms: P2_25  and  O10_28 
REMARK   19  A    between atoms: O10_28  and  C14_29 
REMARK   20  A    between atoms: C14_29  and  C15_30 
REMARK   21  A    between atoms: C16_31  and  O13_49 
REMARK   22  A    between atoms: C17_32  and  O12_48 
REMARK   23  A    between atoms: C18_33  and  N3_35 
REMARK   24  A    between atoms: C21_40  and  N7_47 
REMARK   25  A    between atoms: O13_49  and  P3_50 
REMARK   26  A    between atoms: P3_50  and  O15_52 
REMARK   27  A    between atoms: P3_50  and  O16_53 
ROOT
HETATM    1  C1  UNL     1      24.999  -4.035   9.204  1.00  0.00     0.104 C 
HETATM    2  C2  UNL     1      23.615  -3.509   8.973  1.00  0.00     0.182 C 
HETATM    3  O1  UNL     1      23.152  -2.542   9.574  1.00  0.00    -0.286 OA
ENDROOT
BRANCH   2   4
HETATM    4  S1  UNL     1      22.683  -4.416   7.790  1.00  0.00    -0.091 SA
BRANCH   4   5
HETATM    5  C3  UNL     1      21.689  -3.073   7.062  1.00  0.00     0.102 C 
BRANCH   5   6
HETATM    6  C4  UNL     1      22.129  -2.749   5.633  1.00  0.00     0.133 C 
BRANCH   6   7
HETATM    7  N1  UNL     1      21.315  -1.722   5.017  1.00  0.00    -0.360 N 
HETATM    8  C5  UNL     1      21.865  -0.564   4.517  1.00  0.00     0.219 C 
HETATM    9  O2  UNL     1      23.055  -0.295   4.634  1.00  0.00    -0.274 OA
HETATM   10  H8  UNL     1      20.317  -1.868   4.948  1.00  0.00     0.162 HD
BRANCH   8  11
HETATM   11  C6  UNL     1      20.850   0.350   3.866  1.00  0.00     0.122 C 
BRANCH  11  12
HETATM   12  C7  UNL     1      19.445  -0.252   3.886  1.00  0.00     0.132 C 
BRANCH  12  13
HETATM   13  N2  UNL     1      18.602   0.308   4.921  1.00  0.00    -0.358 N 
HETATM   14  C8  UNL     1      18.006  -0.518   5.857  1.00  0.00     0.247 C 
HETATM   15  O3  UNL     1      18.067  -1.739   5.781  1.00  0.00    -0.271 OA
HETATM   16  H13 UNL     1      18.841   1.251   5.218  1.00  0.00     0.162 HD
BRANCH  14  17
HETATM   17  C9  UNL     1      17.287   0.216   6.999  1.00  0.00     0.219 C 
BRANCH  17  18
HETATM   18  C10 UNL     1      17.944   0.036   8.392  1.00  0.00     0.009 C 
HETATM   19  C11 UNL     1      19.287  -0.705   8.308  1.00  0.00     0.020 C 
HETATM   20  C12 UNL     1      18.194   1.394   9.079  1.00  0.00     0.020 C 
BRANCH  18  21
HETATM   21  C13 UNL     1      16.938  -0.800   9.234  1.00  0.00     0.192 C 
BRANCH  21  22
HETATM   22  O4  UNL     1      16.926  -2.163   8.861  1.00  0.00    -0.296 OA
BRANCH  22  23
HETATM   23  P1  UNL     1      15.573  -3.004   8.677  1.00  0.00     0.401 P 
HETATM   24  O5  UNL     1      14.330  -2.171   8.681  1.00  0.00    -0.631 OA
BRANCH  23  25
HETATM   25  O6  UNL     1      15.586  -4.156   9.801  1.00  0.00    -0.307 OA
HETATM   26  H23 UNL     1      15.039  -3.925  10.563  1.00  0.00     0.222 HD
ENDBRANCH  23  25
BRANCH  23  27
HETATM   27  O7  UNL     1      15.797  -3.859   7.355  1.00  0.00    -0.195 OA
BRANCH  27  28
HETATM   28  P2  UNL     1      16.673  -5.187   7.436  1.00  0.00     0.401 P 
HETATM   29  O8  UNL     1      17.905  -5.134   8.280  1.00  0.00    -0.631 OA
BRANCH  28  30
HETATM   30  O9  UNL     1      15.619  -6.295   7.891  1.00  0.00    -0.307 OA
HETATM   31  H24 UNL     1      15.397  -6.954   7.189  1.00  0.00     0.222 HD
ENDBRANCH  28  30
BRANCH  28  32
HETATM   32  O10 UNL     1      16.892  -5.599   5.908  1.00  0.00    -0.294 OA
BRANCH  32  33
HETATM   33  C14 UNL     1      18.072  -5.231   5.243  1.00  0.00     0.215 C 
BRANCH  33  34
HETATM   34  C15 UNL     1      17.719  -5.154   3.759  1.00  0.00     0.180 C 
HETATM   35  C16 UNL     1      17.245  -6.516   3.270  1.00  0.00     0.197 C 
HETATM   36  C17 UNL     1      18.257  -6.918   2.213  1.00  0.00     0.199 C 
HETATM   37  C18 UNL     1      18.787  -5.562   1.742  1.00  0.00     0.262 C 
HETATM   38  O11 UNL     1      18.826  -4.758   2.941  1.00  0.00    -0.353 OA
BRANCH  35  39
HETATM   39  O13 UNL     1      15.937  -6.361   2.730  1.00  0.00    -0.286 OA
BRANCH  39  40
HETATM   40  P3  UNL     1      14.775  -7.140   3.503  1.00  0.00     0.391 P 
HETATM   41  O14 UNL     1      13.902  -7.960   2.610  1.00  0.00    -0.632 OA
BRANCH  40  42
HETATM   42  O15 UNL     1      14.092  -5.938   4.307  1.00  0.00    -0.307 OA
HETATM   43  H36 UNL     1      14.775  -5.310   4.643  1.00  0.00     0.222 HD
ENDBRANCH  40  42
BRANCH  40  44
HETATM   44  O16 UNL     1      15.602  -7.903   4.628  1.00  0.00    -0.307 OA
HETATM   45  H37 UNL     1      16.491  -7.537   4.755  1.00  0.00     0.222 HD
ENDBRANCH  40  44
ENDBRANCH  39  40
ENDBRANCH  35  39
BRANCH  36  46
HETATM   46  O12 UNL     1      17.642  -7.759   1.233  1.00  0.00    -0.388 OA
HETATM   47  H35 UNL     1      18.369  -8.078   0.646  1.00  0.00     0.210 HD
ENDBRANCH  36  46
BRANCH  37  48
HETATM   48  N3  UNL     1      20.126  -5.648   1.194  1.00  0.00    -0.297 N 
HETATM   49  C19 UNL     1      20.655  -6.675   0.449  1.00  0.00     0.188 A 
HETATM   50  N4  UNL     1      21.857  -6.395  -0.006  1.00  0.00    -0.346 N 
HETATM   51  C20 UNL     1      22.118  -5.119   0.464  1.00  0.00     0.116 A 
HETATM   52  H4  UNL     1      22.461  -6.984  -0.577  1.00  0.00     0.167 HD
HETATM   53  C21 UNL     1      23.205  -4.245   0.293  1.00  0.00     0.109 A 
HETATM   54  C23 UNL     1      21.070  -4.660   1.241  1.00  0.00     0.142 A 
HETATM   55  N5  UNL     1      23.169  -3.036   0.904  1.00  0.00    -0.341 N 
HETATM   56  C22 UNL     1      22.090  -2.732   1.653  1.00  0.00     0.183 A 
HETATM   57  H5  UNL     1      23.937  -2.374   0.801  1.00  0.00     0.167 HD
HETATM   58  N6  UNL     1      20.991  -3.480   1.882  1.00  0.00    -0.336 N 
HETATM   59  H6  UNL     1      20.204  -3.190   2.463  1.00  0.00     0.168 HD
BRANCH  53  60
HETATM   60  N7  UNL     1      24.323  -4.558  -0.464  1.00  0.00    -0.287 NA
HETATM   61  H33 UNL     1      24.113  -4.914  -1.394  1.00  0.00     0.125 HD
HETATM   62  H34 UNL     1      25.031  -5.052   0.063  1.00  0.00     0.125 HD
ENDBRANCH  53  60
ENDBRANCH  37  48
ENDBRANCH  33  34
ENDBRANCH  32  33
ENDBRANCH  28  32
ENDBRANCH  27  28
ENDBRANCH  23  27
ENDBRANCH  22  23
ENDBRANCH  21  22
ENDBRANCH  18  21
ENDBRANCH  17  18
BRANCH  17  63
HETATM   63  O17 UNL     1      17.207   1.616   6.711  1.00  0.00    -0.385 OA
HETATM   64  H38 UNL     1      17.038   1.720   5.760  1.00  0.00     0.210 HD
ENDBRANCH  17  63
ENDBRANCH  14  17
ENDBRANCH  12  13
ENDBRANCH  11  12
ENDBRANCH   8  11
ENDBRANCH   6   7
ENDBRANCH   5   6
ENDBRANCH   4   5
ENDBRANCH   2   4
TORSDOF 27
ENDMDL
MODEL 4
REMARK VINA RESULT:      -3.8      4.076      7.561
REMARK  27 active torsions:
REMARK  status: ('A' for Active; 'I' for Inactive)
REMARK    1  A    between atoms: C2_2  and  S1_4 
REMARK    2  A    between atoms: S1_4  and  C3_5 
REMARK    3  A    between atoms: C3_5  and  C4_6 
REMARK    4  A    between atoms: C4_6  and  N1_7 
REMARK       I    between atoms: N1_7  and  C5_8 
REMARK    5  A    between atoms: C5_8  and  C6_10 
REMARK    6  A    between atoms: C6_10  and  C7_11 
REMARK    7  A    between atoms: C7_11  and  N2_12 
REMARK       I    between atoms: N2_12  and  C8_13 
REMARK    8  A    between atoms: C8_13  and  C9_15 
REMARK    9  A    between atoms: C9_15  and  C10_16 
REMARK   10  A    between atoms: C9_15  and  O17_54 
REMARK   11  A    between atoms: C10_16  and  C13_19 
REMARK   12  A    between atoms: C13_19  and  O4_20 
REMARK   13  A    between atoms: O4_20  and  P1_21 
REMARK   14  A    between atoms: P1_21  and  O6_23 
REMARK   15  A    between atoms: P1_21  and  O7_24 
REMARK   16  A    between atoms: O7_24  and  P2_25 
REMARK   17  A    between atoms: P2_25  and  O9_27 
REMARK   18  A    between atoms: P2_25  and  O10_28 
REMARK   19  A    between atoms: O10_28  and  C14_29 
REMARK   20  A    between atoms: C14_29  and  C15_30 
REMARK   21  A    between atoms: C16_31  and  O13_49 
REMARK   22  A    between atoms: C17_32  and  O12_48 
REMARK   23  A    between atoms: C18_33  and  N3_35 
REMARK   24  A    between atoms: C21_40  and  N7_47 
REMARK   25  A    between atoms: O13_49  and  P3_50 
REMARK   26  A    between atoms: P3_50  and  O15_52 
REMARK   27  A    between atoms: P3_50  and  O16_53 
ROOT
HETATM    1  C1  UNL     1      14.763   6.353  11.708  1.00  0.00     0.104 C 
HETATM    2  C2  UNL     1      15.696   5.600  10.809  1.00  0.00     0.182 C 
HETATM    3  O1  UNL     1      16.861   5.937  10.611  1.00  0.00    -0.286 OA
ENDROOT
BRANCH   2   4
HETATM    4  S1  UNL     1      14.975   4.203  10.021  1.00  0.00    -0.091 SA
BRANCH   4   5
HETATM    5  C3  UNL     1      16.284   3.796   8.822  1.00  0.00     0.102 C 
BRANCH   5   6
HETATM    6  C4  UNL     1      17.169   2.649   9.312  1.00  0.00     0.133 C 
BRANCH   6   7
HETATM    7  N1  UNL     1      17.889   1.999   8.236  1.00  0.00    -0.360 N 
HETATM    8  C5  UNL     1      17.362   0.924   7.557  1.00  0.00     0.219 C 
HETATM    9  O2  UNL     1      16.298   0.404   7.870  1.00  0.00    -0.274 OA
HETATM   10  H8  UNL     1      18.800   2.353   7.976  1.00  0.00     0.162 HD
BRANCH   8  11
HETATM   11  C6  UNL     1      18.249   0.430   6.435  1.00  0.00     0.122 C 
BRANCH  11  12
HETATM   12  C7  UNL     1      18.660   1.561   5.492  1.00  0.00     0.132 C 
BRANCH  12  13
HETATM   13  N2  UNL     1      20.069   1.538   5.159  1.00  0.00    -0.358 N 
HETATM   14  C8  UNL     1      20.494   1.932   3.903  1.00  0.00     0.247 C 
HETATM   15  O3  UNL     1      19.708   2.197   3.002  1.00  0.00    -0.271 OA
HETATM   16  H13 UNL     1      20.706   1.695   5.937  1.00  0.00     0.162 HD
BRANCH  14  17
HETATM   17  C9  UNL     1      22.018   2.029   3.740  1.00  0.00     0.219 C 
BRANCH  17  18
HETATM   18  C10 UNL     1      22.628   0.985   2.769  1.00  0.00     0.009 C 
HETATM   19  C11 UNL     1      22.408   1.366   1.297  1.00  0.00     0.020 C 
HETATM   20  C12 UNL     1      24.145   0.821   2.995  1.00  0.00     0.020 C 
BRANCH  18  21
HETATM   21  C13 UNL     1      21.904  -0.357   3.075  1.00  0.00     0.192 C 
BRANCH  21  22
HETATM   22  O4  UNL     1      22.805  -1.440   3.192  1.00  0.00    -0.296 OA
BRANCH  22  23
HETATM   23  P1  UNL     1      22.525  -2.879   2.542  1.00  0.00     0.401 P 
HETATM   24  O5  UNL     1      23.354  -3.983   3.119  1.00  0.00    -0.631 OA
BRANCH  23  25
HETATM   25  O6  UNL     1      22.686  -2.710   0.950  1.00  0.00    -0.307 OA
HETATM   26  H23 UNL     1      22.322  -1.872   0.636  1.00  0.00     0.222 HD
ENDBRANCH  23  25
BRANCH  23  27
HETATM   27  O7  UNL     1      20.953  -3.091   2.673  1.00  0.00    -0.195 OA
BRANCH  27  28
HETATM   28  P2  UNL     1      20.310  -4.441   2.126  1.00  0.00     0.401 P 
HETATM   29  O8  UNL     1      20.447  -4.712   0.663  1.00  0.00    -0.631 OA
BRANCH  28  30
HETATM   30  O9  UNL     1      20.960  -5.562   3.059  1.00  0.00    -0.307 OA
HETATM   31  H24 UNL     1      20.480  -5.705   3.911  1.00  0.00     0.222 HD
ENDBRANCH  28  30
BRANCH  28  32
HETATM   32  O10 UNL     1      18.818  -4.416   2.694  1.00  0.00    -0.294 OA
BRANCH  32  33
HETATM   33  C14 UNL     1      17.912  -5.426   2.333  1.00  0.00     0.215 C 
BRANCH  33  34
HETATM   34  C15 UNL     1      17.512  -6.124   3.632  1.00  0.00     0.180 C 
HETATM   35  C16 UNL     1      16.062  -6.579   3.548  1.00  0.00     0.197 C 
HETATM   36  C17 UNL     1      15.354  -5.814   4.651  1.00  0.00     0.199 C 
HETATM   37  C18 UNL     1      16.496  -5.530   5.630  1.00  0.00     0.262 C 
HETATM   38  O11 UNL     1      17.638  -5.280   4.782  1.00  0.00    -0.353 OA
BRANCH  35  39
HETATM   39  O13 UNL     1      16.027  -7.986   3.763  1.00  0.00    -0.286 OA
BRANCH  39  40
HETATM   40  P3  UNL     1      15.500  -8.859   2.532  1.00  0.00     0.391 P 
HETATM   41  O14 UNL     1      16.403  -8.829   1.341  1.00  0.00    -0.632 OA
BRANCH  40  42
HETATM   42  O15 UNL     1      14.023  -8.268   2.357  1.00  0.00    -0.307 OA
HETATM   43  H36 UNL     1      13.390  -8.728   2.958  1.00  0.00     0.222 HD
ENDBRANCH  40  42
BRANCH  40  44
HETATM   44  O16 UNL     1      15.246 -10.266   3.228  1.00  0.00    -0.307 OA
HETATM   45  H37 UNL     1      14.458 -10.718   2.888  1.00  0.00     0.222 HD
ENDBRANCH  40  44
ENDBRANCH  39  40
ENDBRANCH  35  39
BRANCH  36  46
HETATM   46  O12 UNL     1      14.241  -6.567   5.140  1.00  0.00    -0.388 OA
HETATM   47  H35 UNL     1      14.480  -6.854   6.054  1.00  0.00     0.210 HD
ENDBRANCH  36  46
BRANCH  37  48
HETATM   48  N3  UNL     1      16.252  -4.356   6.443  1.00  0.00    -0.297 N 
HETATM   49  C19 UNL     1      16.150  -3.053   6.012  1.00  0.00     0.188 A 
HETATM   50  N4  UNL     1      15.798  -2.235   6.980  1.00  0.00    -0.346 N 
HETATM   51  C20 UNL     1      15.661  -3.047   8.091  1.00  0.00     0.116 A 
HETATM   52  H4  UNL     1      15.658  -1.226   6.923  1.00  0.00     0.167 HD
HETATM   53  C21 UNL     1      15.267  -2.790   9.416  1.00  0.00     0.109 A 
HETATM   54  C23 UNL     1      15.977  -4.357   7.782  1.00  0.00     0.142 A 
HETATM   55  N5  UNL     1      15.241  -3.820  10.297  1.00  0.00    -0.341 N 
HETATM   56  C22 UNL     1      15.599  -5.043   9.859  1.00  0.00     0.183 A 
HETATM   57  H5  UNL     1      14.958  -3.673  11.266  1.00  0.00     0.167 HD
HETATM   58  N6  UNL     1      15.983  -5.410   8.619  1.00  0.00    -0.336 N 
HETATM   59  H6  UNL     1      16.243  -6.359   8.351  1.00  0.00     0.168 HD
BRANCH  53  60
HETATM   60  N7  UNL     1      14.912  -1.532   9.876  1.00  0.00    -0.287 NA
HETATM   61  H33 UNL     1      15.576  -0.797   9.640  1.00  0.00     0.125 HD
HETATM   62  H34 UNL     1      14.562  -1.542  10.824  1.00  0.00     0.125 HD
ENDBRANCH  53  60
ENDBRANCH  37  48
ENDBRANCH  33  34
ENDBRANCH  32  33
ENDBRANCH  28  32
ENDBRANCH  27  28
ENDBRANCH  23  27
ENDBRANCH  22  23
ENDBRANCH  21  22
ENDBRANCH  18  21
ENDBRANCH  17  18
BRANCH  17  63
HETATM   63  O17 UNL     1      22.383   3.338   3.289  1.00  0.00    -0.385 OA
HETATM   64  H38 UNL     1      22.580   3.285   2.338  1.00  0.00     0.210 HD
ENDBRANCH  17  63
ENDBRANCH  14  17
ENDBRANCH  12  13
ENDBRANCH  11  12
ENDBRANCH   8  11
ENDBRANCH   6   7
ENDBRANCH   5   6
ENDBRANCH   4   5
ENDBRANCH   2   4
TORSDOF 27
ENDMDL
MODEL 5
REMARK VINA RESULT:      -3.7      3.544      7.106
REMARK  27 active torsions:
REMARK  status: ('A' for Active; 'I' for Inactive)
REMARK    1  A    between atoms: C2_2  and  S1_4 
REMARK    2  A    between atoms: S1_4  and  C3_5 
REMARK    3  A    between atoms: C3_5  and  C4_6 
REMARK    4  A    between atoms: C4_6  and  N1_7 
REMARK       I    between atoms: N1_7  and  C5_8 
REMARK    5  A    between atoms: C5_8  and  C6_10 
REMARK    6  A    between atoms: C6_10  and  C7_11 
REMARK    7  A    between atoms: C7_11  and  N2_12 
REMARK       I    between atoms: N2_12  and  C8_13 
REMARK    8  A    between atoms: C8_13  and  C9_15 
REMARK    9  A    between atoms: C9_15  and  C10_16 
REMARK   10  A    between atoms: C9_15  and  O17_54 
REMARK   11  A    between atoms: C10_16  and  C13_19 
REMARK   12  A    between atoms: C13_19  and  O4_20 
REMARK   13  A    between atoms: O4_20  and  P1_21 
REMARK   14  A    between atoms: P1_21  and  O6_23 
REMARK   15  A    between atoms: P1_21  and  O7_24 
REMARK   16  A    between atoms: O7_24  and  P2_25 
REMARK   17  A    between atoms: P2_25  and  O9_27 
REMARK   18  A    between atoms: P2_25  and  O10_28 
REMARK   19  A    between atoms: O10_28  and  C14_29 
REMARK   20  A    between atoms: C14_29  and  C15_30 
REMARK   21  A    between atoms: C16_31  and  O13_49 
REMARK   22  A    between atoms: C17_32  and  O12_48 
REMARK   23  A    between atoms: C18_33  and  N3_35 
REMARK   24  A    between atoms: C21_40  and  N7_47 
REMARK   25  A    between atoms: O13_49  and  P3_50 
REMARK   26  A    between atoms: P3_50  and  O15_52 
REMARK   27  A    between atoms: P3_50  and  O16_53 
ROOT
HETATM    1  C1  UNL     1      20.300   4.029  12.197  1.00  0.00     0.104 C 
HETATM    2  C2  UNL     1      19.063   3.774  11.391  1.00  0.00     0.182 C 
HETATM    3  O1  UNL     1      19.011   2.954  10.477  1.00  0.00    -0.286 OA
ENDROOT
BRANCH   2   4
HETATM    4  S1  UNL     1      17.689   4.777  11.834  1.00  0.00    -0.091 SA
BRANCH   4   5
HETATM    5  C3  UNL     1      16.462   4.201  10.617  1.00  0.00     0.102 C 
BRANCH   5   6
HETATM    6  C4  UNL     1      16.582   4.950   9.288  1.00  0.00     0.133 C 
BRANCH   6   7
HETATM    7  N1  UNL     1      17.021   4.097   8.203  1.00  0.00    -0.360 N 
HETATM    8  C5  UNL     1      16.720   4.382   6.891  1.00  0.00     0.219 C 
HETATM    9  O2  UNL     1      16.001   5.320   6.568  1.00  0.00    -0.274 OA
HETATM   10  H8  UNL     1      17.569   3.276   8.421  1.00  0.00     0.162 HD
BRANCH   8  11
HETATM   11  C6  UNL     1      17.320   3.397   5.911  1.00  0.00     0.122 C 
BRANCH  11  12
HETATM   12  C7  UNL     1      18.005   2.230   6.622  1.00  0.00     0.132 C 
BRANCH  12  13
HETATM   13  N2  UNL     1      18.638   1.303   5.709  1.00  0.00    -0.358 N 
HETATM   14  C8  UNL     1      18.662  -0.050   5.995  1.00  0.00     0.247 C 
HETATM   15  O3  UNL     1      18.264  -0.497   7.063  1.00  0.00    -0.271 OA
HETATM   16  H13 UNL     1      18.616   1.570   4.727  1.00  0.00     0.162 HD
BRANCH  14  17
HETATM   17  C9  UNL     1      19.203  -0.938   4.865  1.00  0.00     0.219 C 
BRANCH  17  18
HETATM   18  C10 UNL     1      20.620  -1.515   5.123  1.00  0.00     0.009 C 
HETATM   19  C11 UNL     1      21.515  -0.529   5.888  1.00  0.00     0.020 C 
HETATM   20  C12 UNL     1      20.558  -2.826   5.932  1.00  0.00     0.020 C 
BRANCH  18  21
HETATM   21  C13 UNL     1      21.230  -1.793   3.719  1.00  0.00     0.192 C 
BRANCH  21  22
HETATM   22  O4  UNL     1      20.526  -2.797   3.016  1.00  0.00    -0.296 OA
BRANCH  22  23
HETATM   23  P1  UNL     1      21.241  -3.817   2.006  1.00  0.00     0.401 P 
HETATM   24  O5  UNL     1      22.090  -3.155   0.967  1.00  0.00    -0.631 OA
BRANCH  23  25
HETATM   25  O6  UNL     1      20.084  -4.756   1.397  1.00  0.00    -0.307 OA
HETATM   26  H23 UNL     1      20.428  -5.370   0.735  1.00  0.00     0.222 HD
ENDBRANCH  23  25
BRANCH  23  27
HETATM   27  O7  UNL     1      22.015  -4.845   2.941  1.00  0.00    -0.195 OA
BRANCH  27  28
HETATM   28  P2  UNL     1      21.518  -6.358   2.998  1.00  0.00     0.401 P 
HETATM   29  O8  UNL     1      21.584  -7.141   1.727  1.00  0.00    -0.631 OA
BRANCH  28  30
HETATM   30  O9  UNL     1      22.376  -6.981   4.192  1.00  0.00    -0.307 OA
HETATM   31  H24 UNL     1      23.249  -6.540   4.334  1.00  0.00     0.222 HD
ENDBRANCH  28  30
BRANCH  28  32
HETATM   32  O10 UNL     1      20.080  -6.266   3.686  1.00  0.00    -0.294 OA
BRANCH  32  33
HETATM   33  C14 UNL     1      19.776  -7.078   4.790  1.00  0.00     0.215 C 
BRANCH  33  34
HETATM   34  C15 UNL     1      18.252  -7.108   4.892  1.00  0.00     0.180 C 
HETATM   35  C16 UNL     1      17.647  -6.195   3.834  1.00  0.00     0.197 C 
HETATM   36  C17 UNL     1      16.904  -5.133   4.622  1.00  0.00     0.199 C 
HETATM   37  C18 UNL     1      16.600  -5.859   5.935  1.00  0.00     0.262 C 
HETATM   38  O11 UNL     1      17.769  -6.676   6.169  1.00  0.00    -0.353 OA
BRANCH  35  39
HETATM   39  O13 UNL     1      16.772  -6.975   3.026  1.00  0.00    -0.286 OA
BRANCH  39  40
HETATM   40  P3  UNL     1      17.062  -6.931   1.455  1.00  0.00     0.391 P 
HETATM   41  O14 UNL     1      16.049  -7.663   0.634  1.00  0.00    -0.632 OA
BRANCH  40  42
HETATM   42  O15 UNL     1      18.571  -7.461   1.414  1.00  0.00    -0.307 OA
HETATM   43  H36 UNL     1      18.594  -8.440   1.291  1.00  0.00     0.222 HD
ENDBRANCH  40  42
BRANCH  40  44
HETATM   44  O16 UNL     1      17.221  -5.369   1.207  1.00  0.00    -0.307 OA
HETATM   45  H37 UNL     1      16.819  -4.834   1.910  1.00  0.00     0.222 HD
ENDBRANCH  40  44
ENDBRANCH  39  40
ENDBRANCH  35  39
BRANCH  36  46
HETATM   46  O12 UNL     1      15.790  -4.645   3.869  1.00  0.00    -0.388 OA
HETATM   47  H35 UNL     1      15.506  -3.807   4.305  1.00  0.00     0.210 HD
ENDBRANCH  36  46
BRANCH  37  48
HETATM   48  N3  UNL     1      16.438  -4.948   7.050  1.00  0.00    -0.297 N 
HETATM   49  C19 UNL     1      16.531  -3.576   7.023  1.00  0.00     0.188 A 
HETATM   50  N4  UNL     1      16.206  -3.031   8.175  1.00  0.00    -0.346 N 
HETATM   51  C20 UNL     1      15.881  -4.103   8.988  1.00  0.00     0.116 A 
HETATM   52  H4  UNL     1      16.195  -2.040   8.415  1.00  0.00     0.167 HD
HETATM   53  C21 UNL     1      15.418  -4.188  10.313  1.00  0.00     0.109 A 
HETATM   54  C23 UNL     1      16.059  -5.298   8.316  1.00  0.00     0.142 A 
HETATM   55  N5  UNL     1      15.196  -5.414  10.845  1.00  0.00    -0.341 N 
HETATM   56  C22 UNL     1      15.435  -6.496  10.078  1.00  0.00     0.183 A 
HETATM   57  H5  UNL     1      14.856  -5.515  11.802  1.00  0.00     0.167 HD
HETATM   58  N6  UNL     1      15.869  -6.538   8.801  1.00  0.00    -0.336 N 
HETATM   59  H6  UNL     1      16.031  -7.396   8.274  1.00  0.00     0.168 HD
BRANCH  53  60
HETATM   60  N7  UNL     1      15.184  -3.079  11.111  1.00  0.00    -0.287 NA
HETATM   61  H33 UNL     1      14.588  -3.260  11.915  1.00  0.00     0.125 HD
HETATM   62  H34 UNL     1      14.988  -2.243  10.577  1.00  0.00     0.125 HD
ENDBRANCH  53  60
ENDBRANCH  37  48
ENDBRANCH  33  34
ENDBRANCH  32  33
ENDBRANCH  28  32
ENDBRANCH  27  28
ENDBRANCH  23  27
ENDBRANCH  22  23
ENDBRANCH  21  22
ENDBRANCH  18  21
ENDBRANCH  17  18
BRANCH  17  63
HETATM   63  O17 UNL     1      18.306  -2.028   4.622  1.00  0.00    -0.385 OA
HETATM   64  H38 UNL     1      17.473  -1.842   5.085  1.00  0.00     0.210 HD
ENDBRANCH  17  63
ENDBRANCH  14  17
ENDBRANCH  12  13
ENDBRANCH  11  12
ENDBRANCH   8  11
ENDBRANCH   6   7
ENDBRANCH   5   6
ENDBRANCH   4   5
ENDBRANCH   2   4
TORSDOF 27
ENDMDL
MODEL 6
REMARK VINA RESULT:      -3.7     13.287     16.393
REMARK  27 active torsions:
REMARK  status: ('A' for Active; 'I' for Inactive)
REMARK    1  A    between atoms: C2_2  and  S1_4 
REMARK    2  A    between atoms: S1_4  and  C3_5 
REMARK    3  A    between atoms: C3_5  and  C4_6 
REMARK    4  A    between atoms: C4_6  and  N1_7 
REMARK       I    between atoms: N1_7  and  C5_8 
REMARK    5  A    between atoms: C5_8  and  C6_10 
REMARK    6  A    between atoms: C6_10  and  C7_11 
REMARK    7  A    between atoms: C7_11  and  N2_12 
REMARK       I    between atoms: N2_12  and  C8_13 
REMARK    8  A    between atoms: C8_13  and  C9_15 
REMARK    9  A    between atoms: C9_15  and  C10_16 
REMARK   10  A    between atoms: C9_15  and  O17_54 
REMARK   11  A    between atoms: C10_16  and  C13_19 
REMARK   12  A    between atoms: C13_19  and  O4_20 
REMARK   13  A    between atoms: O4_20  and  P1_21 
REMARK   14  A    between atoms: P1_21  and  O6_23 
REMARK   15  A    between atoms: P1_21  and  O7_24 
REMARK   16  A    between atoms: O7_24  and  P2_25 
REMARK   17  A    between atoms: P2_25  and  O9_27 
REMARK   18  A    between atoms: P2_25  and  O10_28 
REMARK   19  A    between atoms: O10_28  and  C14_29 
REMARK   20  A    between atoms: C14_29  and  C15_30 
REMARK   21  A    between atoms: C16_31  and  O13_49 
REMARK   22  A    between atoms: C17_32  and  O12_48 
REMARK   23  A    between atoms: C18_33  and  N3_35 
REMARK   24  A    between atoms: C21_40  and  N7_47 
REMARK   25  A    between atoms: O13_49  and  P3_50 
REMARK   26  A    between atoms: P3_50  and  O15_52 
REMARK   27  A    between atoms: P3_50  and  O16_53 
ROOT
HETATM    1  C1  UNL     1      12.331  13.731  10.505  1.00  0.00     0.104 C 
HETATM    2  C2  UNL     1      13.349  13.984   9.435  1.00  0.00     0.182 C 
HETATM    3  O1  UNL     1      13.713  15.110   9.103  1.00  0.00    -0.286 OA
ENDROOT
BRANCH   2   4
HETATM    4  S1  UNL     1      13.959  12.531   8.655  1.00  0.00    -0.091 SA
BRANCH   4   5
HETATM    5  C3  UNL     1      12.480  12.019   7.723  1.00  0.00     0.102 C 
BRANCH   5   6
HETATM    6  C4  UNL     1      12.817  11.654   6.275  1.00  0.00     0.133 C 
BRANCH   6   7
HETATM    7  N1  UNL     1      13.644  10.470   6.175  1.00  0.00    -0.360 N 
HETATM    8  C5  UNL     1      13.107   9.233   5.903  1.00  0.00     0.219 C 
HETATM    9  O2  UNL     1      11.900   9.043   5.811  1.00  0.00    -0.274 OA
HETATM   10  H8  UNL     1      14.643  10.562   6.301  1.00  0.00     0.162 HD
BRANCH   8  11
HETATM   11  C6  UNL     1      14.148   8.141   5.785  1.00  0.00     0.122 C 
BRANCH  11  12
HETATM   12  C7  UNL     1      15.530   8.619   6.230  1.00  0.00     0.132 C 
BRANCH  12  13
HETATM   13  N2  UNL     1      16.602   8.098   5.408  1.00  0.00    -0.358 N 
HETATM   14  C8  UNL     1      17.526   7.220   5.942  1.00  0.00     0.247 C 
HETATM   15  O3  UNL     1      17.549   6.944   7.135  1.00  0.00    -0.271 OA
HETATM   16  H13 UNL     1      16.388   8.003   4.417  1.00  0.00     0.162 HD
BRANCH  14  17
HETATM   17  C9  UNL     1      18.499   6.609   4.923  1.00  0.00     0.219 C 
BRANCH  17  18
HETATM   18  C10 UNL     1      17.989   5.310   4.245  1.00  0.00     0.009 C 
HETATM   19  C11 UNL     1      17.067   4.500   5.169  1.00  0.00     0.020 C 
HETATM   20  C12 UNL     1      17.212   5.616   2.949  1.00  0.00     0.020 C 
BRANCH  18  21
HETATM   21  C13 UNL     1      19.259   4.475   3.912  1.00  0.00     0.192 C 
BRANCH  21  22
HETATM   22  O4  UNL     1      19.821   4.826   2.663  1.00  0.00    -0.296 OA
BRANCH  22  23
HETATM   23  P1  UNL     1      21.360   5.240   2.487  1.00  0.00     0.401 P 
HETATM   24  O5  UNL     1      22.331   4.183   2.911  1.00  0.00    -0.631 OA
BRANCH  23  25
HETATM   25  O6  UNL     1      21.554   6.644   3.250  1.00  0.00    -0.307 OA
HETATM   26  H23 UNL     1      22.386   6.678   3.739  1.00  0.00     0.222 HD
ENDBRANCH  23  25
BRANCH  23  27
HETATM   27  O7  UNL     1      21.492   5.693   0.968  1.00  0.00    -0.195 OA
BRANCH  27  28
HETATM   28  P2  UNL     1      21.407   7.245   0.617  1.00  0.00     0.401 P 
HETATM   29  O8  UNL     1      22.581   8.089   0.993  1.00  0.00    -0.631 OA
BRANCH  28  30
HETATM   30  O9  UNL     1      21.075   7.250  -0.945  1.00  0.00    -0.307 OA
HETATM   31  H24 UNL     1      21.584   7.920  -1.464  1.00  0.00     0.222 HD
ENDBRANCH  28  30
BRANCH  28  32
HETATM   32  O10 UNL     1      19.999   7.700   1.218  1.00  0.00    -0.294 OA
BRANCH  32  33
HETATM   33  C14 UNL     1      19.081   8.390   0.411  1.00  0.00     0.215 C 
BRANCH  33  34
HETATM   34  C15 UNL     1      19.548   9.845   0.382  1.00  0.00     0.180 C 
HETATM   35  C16 UNL     1      18.411  10.759   0.820  1.00  0.00     0.197 C 
HETATM   36  C17 UNL     1      18.136  11.636  -0.387  1.00  0.00     0.199 C 
HETATM   37  C18 UNL     1      19.482  11.615  -1.115  1.00  0.00     0.262 C 
HETATM   38  O11 UNL     1      19.973  10.270  -0.918  1.00  0.00    -0.353 OA
BRANCH  35  39
HETATM   39  O13 UNL     1      18.860  11.515   1.941  1.00  0.00    -0.286 OA
BRANCH  39  40
HETATM   40  P3  UNL     1      17.826  11.626   3.155  1.00  0.00     0.391 P 
HETATM   41  O14 UNL     1      16.516  12.239   2.777  1.00  0.00    -0.632 OA
BRANCH  40  42
HETATM   42  O15 UNL     1      18.718  12.394   4.239  1.00  0.00    -0.307 OA
HETATM   43  H36 UNL     1      19.050  13.249   3.875  1.00  0.00     0.222 HD
ENDBRANCH  40  42
BRANCH  40  44
HETATM   44  O16 UNL     1      17.810  10.130   3.694  1.00  0.00    -0.307 OA
HETATM   45  H37 UNL     1      18.584   9.918   4.239  1.00  0.00     0.222 HD
ENDBRANCH  40  44
ENDBRANCH  39  40
ENDBRANCH  35  39
BRANCH  36  46
HETATM   46  O12 UNL     1      17.634  12.909   0.029  1.00  0.00    -0.388 OA
HETATM   47  H35 UNL     1      17.807  13.532  -0.717  1.00  0.00     0.210 HD
ENDBRANCH  36  46
BRANCH  37  48
HETATM   48  N3  UNL     1      19.349  11.858  -2.537  1.00  0.00    -0.297 N 
HETATM   49  C19 UNL     1      20.332  11.757  -3.494  1.00  0.00     0.188 A 
HETATM   50  N4  UNL     1      19.863  11.919  -4.711  1.00  0.00    -0.346 N 
HETATM   51  C20 UNL     1      18.506  12.131  -4.536  1.00  0.00     0.116 A 
HETATM   52  H4  UNL     1      20.381  11.894  -5.589  1.00  0.00     0.167 HD
HETATM   53  C21 UNL     1      17.448  12.327  -5.441  1.00  0.00     0.109 A 
HETATM   54  C23 UNL     1      18.181  12.135  -3.192  1.00  0.00     0.142 A 
HETATM   55  N5  UNL     1      16.201  12.523  -4.948  1.00  0.00    -0.341 N 
HETATM   56  C22 UNL     1      16.037  12.525  -3.610  1.00  0.00     0.183 A 
HETATM   57  H5  UNL     1      15.408  12.665  -5.573  1.00  0.00     0.167 HD
HETATM   58  N6  UNL     1      16.967  12.340  -2.651  1.00  0.00    -0.336 N 
HETATM   59  H6  UNL     1      16.776  12.354  -1.649  1.00  0.00     0.168 HD
BRANCH  53  60
HETATM   60  N7  UNL     1      17.614  12.340  -6.817  1.00  0.00    -0.287 NA
HETATM   61  H33 UNL     1      18.584  12.386  -7.121  1.00  0.00     0.125 HD
HETATM   62  H34 UNL     1      16.959  12.951  -7.287  1.00  0.00     0.125 HD
ENDBRANCH  53  60
ENDBRANCH  37  48
ENDBRANCH  33  34
ENDBRANCH  32  33
ENDBRANCH  28  32
ENDBRANCH  27  28
ENDBRANCH  23  27
ENDBRANCH  22  23
ENDBRANCH  21  22
ENDBRANCH  18  21
ENDBRANCH  17  18
BRANCH  17  63
HETATM   63  O17 UNL     1      18.806   7.564   3.901  1.00  0.00    -0.385 OA
HETATM   64  H38 UNL     1      19.770   7.580   3.782  1.00  0.00     0.210 HD
ENDBRANCH  17  63
ENDBRANCH  14  17
ENDBRANCH  12  13
ENDBRANCH  11  12
ENDBRANCH   8  11
ENDBRANCH   6   7
ENDBRANCH   5   6
ENDBRANCH   4   5
ENDBRANCH   2   4
TORSDOF 27
ENDMDL
MODEL 7
REMARK VINA RESULT:      -3.7     12.239     17.151
REMARK  27 active torsions:
REMARK  status: ('A' for Active; 'I' for Inactive)
REMARK    1  A    between atoms: C2_2  and  S1_4 
REMARK    2  A    between atoms: S1_4  and  C3_5 
REMARK    3  A    between atoms: C3_5  and  C4_6 
REMARK    4  A    between atoms: C4_6  and  N1_7 
REMARK       I    between atoms: N1_7  and  C5_8 
REMARK    5  A    between atoms: C5_8  and  C6_10 
REMARK    6  A    between atoms: C6_10  and  C7_11 
REMARK    7  A    between atoms: C7_11  and  N2_12 
REMARK       I    between atoms: N2_12  and  C8_13 
REMARK    8  A    between atoms: C8_13  and  C9_15 
REMARK    9  A    between atoms: C9_15  and  C10_16 
REMARK   10  A    between atoms: C9_15  and  O17_54 
REMARK   11  A    between atoms: C10_16  and  C13_19 
REMARK   12  A    between atoms: C13_19  and  O4_20 
REMARK   13  A    between atoms: O4_20  and  P1_21 
REMARK   14  A    between atoms: P1_21  and  O6_23 
REMARK   15  A    between atoms: P1_21  and  O7_24 
REMARK   16  A    between atoms: O7_24  and  P2_25 
REMARK   17  A    between atoms: P2_25  and  O9_27 
REMARK   18  A    between atoms: P2_25  and  O10_28 
REMARK   19  A    between atoms: O10_28  and  C14_29 
REMARK   20  A    between atoms: C14_29  and  C15_30 
REMARK   21  A    between atoms: C16_31  and  O13_49 
REMARK   22  A    between atoms: C17_32  and  O12_48 
REMARK   23  A    between atoms: C18_33  and  N3_35 
REMARK   24  A    between atoms: C21_40  and  N7_47 
REMARK   25  A    between atoms: O13_49  and  P3_50 
REMARK   26  A    between atoms: P3_50  and  O15_52 
REMARK   27  A    between atoms: P3_50  and  O16_53 
ROOT
HETATM    1  C1  UNL     1      20.873  -8.217  -8.852  1.00  0.00     0.104 C 
HETATM    2  C2  UNL     1      19.652  -8.280  -9.718  1.00  0.00     0.182 C 
HETATM    3  O1  UNL     1      19.010  -9.311  -9.904  1.00  0.00    -0.286 OA
ENDROOT
BRANCH   2   4
HETATM    4  S1  UNL     1      19.228  -6.756 -10.485  1.00  0.00    -0.091 SA
BRANCH   4   5
HETATM    5  C3  UNL     1      20.227  -6.870 -12.005  1.00  0.00     0.102 C 
BRANCH   5   6
HETATM    6  C4  UNL     1      21.589  -6.193 -11.844  1.00  0.00     0.133 C 
BRANCH   6   7
HETATM    7  N1  UNL     1      21.783  -5.098 -12.772  1.00  0.00    -0.360 N 
HETATM    8  C5  UNL     1      21.414  -3.811 -12.460  1.00  0.00     0.219 C 
HETATM    9  O2  UNL     1      20.831  -3.524 -11.421  1.00  0.00    -0.274 OA
HETATM   10  H8  UNL     1      22.208  -5.291 -13.669  1.00  0.00     0.162 HD
BRANCH   8  11
HETATM   11  C6  UNL     1      21.754  -2.811 -13.544  1.00  0.00     0.122 C 
BRANCH  11  12
HETATM   12  C7  UNL     1      23.258  -2.555 -13.633  1.00  0.00     0.132 C 
BRANCH  12  13
HETATM   13  N2  UNL     1      23.827  -2.074 -12.392  1.00  0.00    -0.358 N 
HETATM   14  C8  UNL     1      24.936  -1.249 -12.407  1.00  0.00     0.247 C 
HETATM   15  O3  UNL     1      25.544  -0.992 -13.439  1.00  0.00    -0.271 OA
HETATM   16  H13 UNL     1      23.168  -1.953 -11.626  1.00  0.00     0.162 HD
BRANCH  14  17
HETATM   17  C9  UNL     1      25.328  -0.670 -11.039  1.00  0.00     0.219 C 
BRANCH  17  18
HETATM   18  C10 UNL     1      26.706  -1.147 -10.510  1.00  0.00     0.009 C 
HETATM   19  C11 UNL     1      27.859  -0.276 -11.031  1.00  0.00     0.020 C 
HETATM   20  C12 UNL     1      26.756  -1.130  -8.969  1.00  0.00     0.020 C 
BRANCH  18  21
HETATM   21  C13 UNL     1      26.879  -2.605 -11.024  1.00  0.00     0.192 C 
BRANCH  21  22
HETATM   22  O4  UNL     1      27.197  -3.508  -9.985  1.00  0.00    -0.296 OA
BRANCH  22  23
HETATM   23  P1  UNL     1      28.314  -4.648 -10.134  1.00  0.00     0.401 P 
HETATM   24  O5  UNL     1      29.242  -4.448 -11.290  1.00  0.00    -0.631 OA
BRANCH  23  25
HETATM   25  O6  UNL     1      27.540  -6.059 -10.159  1.00  0.00    -0.307 OA
HETATM   26  H23 UNL     1      27.258  -6.301 -11.051  1.00  0.00     0.222 HD
ENDBRANCH  23  25
BRANCH  23  27
HETATM   27  O7  UNL     1      29.027  -4.713  -8.713  1.00  0.00    -0.195 OA
BRANCH  27  28
HETATM   28  P2  UNL     1      29.324  -6.137  -8.064  1.00  0.00     0.401 P 
HETATM   29  O8  UNL     1      29.882  -7.189  -8.966  1.00  0.00    -0.631 OA
BRANCH  28  30
HETATM   30  O9  UNL     1      30.259  -5.785  -6.818  1.00  0.00    -0.307 OA
HETATM   31  H24 UNL     1      30.133  -6.379  -6.039  1.00  0.00     0.222 HD
ENDBRANCH  28  30
BRANCH  28  32
HETATM   32  O10 UNL     1      27.964  -6.511  -7.314  1.00  0.00    -0.294 OA
BRANCH  32  33
HETATM   33  C14 UNL     1      27.979  -6.818  -5.945  1.00  0.00     0.215 C 
BRANCH  33  34
HETATM   34  C15 UNL     1      26.997  -5.854  -5.281  1.00  0.00     0.180 C 
HETATM   35  C16 UNL     1      27.711  -5.053  -4.201  1.00  0.00     0.197 C 
HETATM   36  C17 UNL     1      27.007  -5.433  -2.912  1.00  0.00     0.199 C 
HETATM   37  C18 UNL     1      25.624  -5.857  -3.412  1.00  0.00     0.262 C 
HETATM   38  O11 UNL     1      25.888  -6.521  -4.667  1.00  0.00    -0.353 OA
BRANCH  35  39
HETATM   39  O13 UNL     1      27.562  -3.670  -4.506  1.00  0.00    -0.286 OA
BRANCH  39  40
HETATM   40  P3  UNL     1      28.880  -2.936  -5.034  1.00  0.00     0.391 P 
HETATM   41  O14 UNL     1      30.146  -3.661  -4.708  1.00  0.00    -0.632 OA
BRANCH  40  42
HETATM   42  O15 UNL     1      28.680  -1.477  -4.409  1.00  0.00    -0.307 OA
HETATM   43  H36 UNL     1      27.828  -1.423  -3.915  1.00  0.00     0.222 HD
ENDBRANCH  40  42
BRANCH  40  44
HETATM   44  O16 UNL     1      28.529  -2.722  -6.570  1.00  0.00    -0.307 OA
HETATM   45  H37 UNL     1      27.591  -2.522  -6.717  1.00  0.00     0.222 HD
ENDBRANCH  40  44
ENDBRANCH  39  40
ENDBRANCH  35  39
BRANCH  36  46
HETATM   46  O12 UNL     1      27.065  -4.351  -1.978  1.00  0.00    -0.388 OA
HETATM   47  H35 UNL     1      26.925  -4.747  -1.085  1.00  0.00     0.210 HD
ENDBRANCH  36  46
BRANCH  37  48
HETATM   48  N3  UNL     1      24.972  -6.792  -2.517  1.00  0.00    -0.297 N 
HETATM   49  C19 UNL     1      25.204  -6.955  -1.171  1.00  0.00     0.188 A 
HETATM   50  N4  UNL     1      24.359  -7.797  -0.618  1.00  0.00    -0.346 N 
HETATM   51  C20 UNL     1      23.535  -8.197  -1.655  1.00  0.00     0.116 A 
HETATM   52  H4  UNL     1      24.319  -8.090   0.358  1.00  0.00     0.167 HD
HETATM   53  C21 UNL     1      22.417  -9.047  -1.711  1.00  0.00     0.109 A 
HETATM   54  C23 UNL     1      23.929  -7.612  -2.845  1.00  0.00     0.142 A 
HETATM   55  N5  UNL     1      21.816  -9.252  -2.908  1.00  0.00    -0.341 N 
HETATM   56  C22 UNL     1      22.325  -8.632  -3.992  1.00  0.00     0.183 A 
HETATM   57  H5  UNL     1      21.000  -9.859  -2.987  1.00  0.00     0.167 HD
HETATM   58  N6  UNL     1      23.379  -7.794  -4.059  1.00  0.00    -0.336 N 
HETATM   59  H6  UNL     1      23.716  -7.355  -4.917  1.00  0.00     0.168 HD
BRANCH  53  60
HETATM   60  N7  UNL     1      21.899  -9.698  -0.603  1.00  0.00    -0.287 NA
HETATM   61  H33 UNL     1      22.523 -10.391  -0.194  1.00  0.00     0.125 HD
HETATM   62  H34 UNL     1      20.932  -9.970  -0.721  1.00  0.00     0.125 HD
ENDBRANCH  53  60
ENDBRANCH  37  48
ENDBRANCH  33  34
ENDBRANCH  32  33
ENDBRANCH  28  32
ENDBRANCH  27  28
ENDBRANCH  23  27
ENDBRANCH  22  23
ENDBRANCH  21  22
ENDBRANCH  18  21
ENDBRANCH  17  18
BRANCH  17  63
HETATM   63  O17 UNL     1      25.332   0.761 -11.093  1.00  0.00    -0.385 OA
HETATM   64  H38 UNL     1      25.587   1.095 -10.216  1.00  0.00     0.210 HD
ENDBRANCH  17  63
ENDBRANCH  14  17
ENDBRANCH  12  13
ENDBRANCH  11  12
ENDBRANCH   8  11
ENDBRANCH   6   7
ENDBRANCH   5   6
ENDBRANCH   4   5
ENDBRANCH   2   4
TORSDOF 27
ENDMDL
MODEL 8
REMARK VINA RESULT:      -3.7      7.600     11.389
REMARK  27 active torsions:
REMARK  status: ('A' for Active; 'I' for Inactive)
REMARK    1  A    between atoms: C2_2  and  S1_4 
REMARK    2  A    between atoms: S1_4  and  C3_5 
REMARK    3  A    between atoms: C3_5  and  C4_6 
REMARK    4  A    between atoms: C4_6  and  N1_7 
REMARK       I    between atoms: N1_7  and  C5_8 
REMARK    5  A    between atoms: C5_8  and  C6_10 
REMARK    6  A    between atoms: C6_10  and  C7_11 
REMARK    7  A    between atoms: C7_11  and  N2_12 
REMARK       I    between atoms: N2_12  and  C8_13 
REMARK    8  A    between atoms: C8_13  and  C9_15 
REMARK    9  A    between atoms: C9_15  and  C10_16 
REMARK   10  A    between atoms: C9_15  and  O17_54 
REMARK   11  A    between atoms: C10_16  and  C13_19 
REMARK   12  A    between atoms: C13_19  and  O4_20 
REMARK   13  A    between atoms: O4_20  and  P1_21 
REMARK   14  A    between atoms: P1_21  and  O6_23 
REMARK   15  A    between atoms: P1_21  and  O7_24 
REMARK   16  A    between atoms: O7_24  and  P2_25 
REMARK   17  A    between atoms: P2_25  and  O9_27 
REMARK   18  A    between atoms: P2_25  and  O10_28 
REMARK   19  A    between atoms: O10_28  and  C14_29 
REMARK   20  A    between atoms: C14_29  and  C15_30 
REMARK   21  A    between atoms: C16_31  and  O13_49 
REMARK   22  A    between atoms: C17_32  and  O12_48 
REMARK   23  A    between atoms: C18_33  and  N3_35 
REMARK   24  A    between atoms: C21_40  and  N7_47 
REMARK   25  A    between atoms: O13_49  and  P3_50 
REMARK   26  A    between atoms: P3_50  and  O15_52 
REMARK   27  A    between atoms: P3_50  and  O16_53 
ROOT
HETATM    1  C1  UNL     1      14.407   6.760  12.329  1.00  0.00     0.104 C 
HETATM    2  C2  UNL     1      14.012   5.665  11.386  1.00  0.00     0.182 C 
HETATM    3  O1  UNL     1      13.541   5.873  10.270  1.00  0.00    -0.286 OA
ENDROOT
BRANCH   2   4
HETATM    4  S1  UNL     1      14.242   4.042  12.023  1.00  0.00    -0.091 SA
BRANCH   4   5
HETATM    5  C3  UNL     1      12.977   4.027  13.334  1.00  0.00     0.102 C 
BRANCH   5   6
HETATM    6  C4  UNL     1      11.832   3.065  13.011  1.00  0.00     0.133 C 
BRANCH   6   7
HETATM    7  N1  UNL     1      12.240   1.676  13.051  1.00  0.00    -0.360 N 
HETATM    8  C5  UNL     1      12.071   0.840  11.972  1.00  0.00     0.219 C 
HETATM    9  O2  UNL     1      11.496   1.192  10.948  1.00  0.00    -0.274 OA
HETATM   10  H8  UNL     1      12.668   1.319  13.895  1.00  0.00     0.162 HD
BRANCH   8  11
HETATM   11  C6  UNL     1      12.615  -0.553  12.202  1.00  0.00     0.122 C 
BRANCH  11  12
HETATM   12  C7  UNL     1      12.508  -1.422  10.949  1.00  0.00     0.132 C 
BRANCH  12  13
HETATM   13  N2  UNL     1      13.283  -0.913   9.838  1.00  0.00    -0.358 N 
HETATM   14  C8  UNL     1      14.256  -1.700   9.248  1.00  0.00     0.247 C 
HETATM   15  O3  UNL     1      14.578  -2.789   9.705  1.00  0.00    -0.271 OA
HETATM   16  H13 UNL     1      12.806  -0.239   9.243  1.00  0.00     0.162 HD
BRANCH  14  17
HETATM   17  C9  UNL     1      14.877  -1.109   7.974  1.00  0.00     0.219 C 
BRANCH  17  18
HETATM   18  C10 UNL     1      16.337  -0.612   8.141  1.00  0.00     0.009 C 
HETATM   19  C11 UNL     1      16.633  -0.163   9.580  1.00  0.00     0.020 C 
HETATM   20  C12 UNL     1      17.354  -1.708   7.766  1.00  0.00     0.020 C 
BRANCH  18  21
HETATM   21  C13 UNL     1      16.489   0.598   7.175  1.00  0.00     0.192 C 
BRANCH  21  22
HETATM   22  O4  UNL     1      17.821   1.063   7.099  1.00  0.00    -0.296 OA
BRANCH  22  23
HETATM   23  P1  UNL     1      18.211   2.613   7.225  1.00  0.00     0.401 P 
HETATM   24  O5  UNL     1      19.557   2.952   6.665  1.00  0.00    -0.631 OA
BRANCH  23  25
HETATM   25  O6  UNL     1      18.032   3.014   8.773  1.00  0.00    -0.307 OA
HETATM   26  H23 UNL     1      17.523   3.828   8.879  1.00  0.00     0.222 HD
ENDBRANCH  23  25
BRANCH  23  27
HETATM   27  O7  UNL     1      16.998   3.397   6.560  1.00  0.00    -0.195 OA
BRANCH  27  28
HETATM   28  P2  UNL     1      16.996   4.990   6.599  1.00  0.00     0.401 P 
HETATM   29  O8  UNL     1      15.800   5.650   7.204  1.00  0.00    -0.631 OA
BRANCH  28  30
HETATM   30  O9  UNL     1      18.372   5.340   7.328  1.00  0.00    -0.307 OA
HETATM   31  H24 UNL     1      18.297   6.049   8.013  1.00  0.00     0.222 HD
ENDBRANCH  28  30
BRANCH  28  32
HETATM   32  O10 UNL     1      17.342   5.413   5.099  1.00  0.00    -0.294 OA
BRANCH  32  33
HETATM   33  C14 UNL     1      17.356   6.769   4.737  1.00  0.00     0.215 C 
BRANCH  33  34
HETATM   34  C15 UNL     1      18.812   7.115   4.431  1.00  0.00     0.180 C 
HETATM   35  C16 UNL     1      18.934   7.609   2.996  1.00  0.00     0.197 C 
HETATM   36  C17 UNL     1      19.842   6.601   2.318  1.00  0.00     0.199 C 
HETATM   37  C18 UNL     1      20.645   6.046   3.497  1.00  0.00     0.262 C 
HETATM   38  O11 UNL     1      19.696   5.998   4.584  1.00  0.00    -0.353 OA
BRANCH  35  39
HETATM   39  O13 UNL     1      19.507   8.912   3.026  1.00  0.00    -0.286 OA
BRANCH  39  40
HETATM   40  P3  UNL     1      18.636  10.064   2.340  1.00  0.00     0.391 P 
HETATM   41  O14 UNL     1      17.530  10.579   3.204  1.00  0.00    -0.632 OA
BRANCH  40  42
HETATM   42  O15 UNL     1      18.232   9.354   0.964  1.00  0.00    -0.307 OA
HETATM   43  H36 UNL     1      19.022   8.942   0.540  1.00  0.00     0.222 HD
ENDBRANCH  40  42
BRANCH  40  44
HETATM   44  O16 UNL     1      19.765  11.093   1.898  1.00  0.00    -0.307 OA
HETATM   45  H37 UNL     1      20.617  10.926   2.332  1.00  0.00     0.222 HD
ENDBRANCH  40  44
ENDBRANCH  39  40
ENDBRANCH  35  39
BRANCH  36  46
HETATM   46  O12 UNL     1      20.574   7.225   1.260  1.00  0.00    -0.388 OA
HETATM   47  H35 UNL     1      21.380   7.617   1.674  1.00  0.00     0.210 HD
ENDBRANCH  36  46
BRANCH  37  48
HETATM   48  N3  UNL     1      21.140   4.706   3.251  1.00  0.00    -0.297 N 
HETATM   49  C19 UNL     1      22.446   4.327   3.043  1.00  0.00     0.188 A 
HETATM   50  N4  UNL     1      22.582   3.021   2.976  1.00  0.00    -0.346 N 
HETATM   51  C20 UNL     1      21.301   2.528   3.154  1.00  0.00     0.116 A 
HETATM   52  H4  UNL     1      23.439   2.490   2.827  1.00  0.00     0.167 HD
HETATM   53  C21 UNL     1      20.785   1.222   3.228  1.00  0.00     0.109 A 
HETATM   54  C23 UNL     1      20.393   3.562   3.286  1.00  0.00     0.142 A 
HETATM   55  N5  UNL     1      19.450   1.062   3.402  1.00  0.00    -0.341 N 
HETATM   56  C22 UNL     1      18.681   2.165   3.491  1.00  0.00     0.183 A 
HETATM   57  H5  UNL     1      19.039   0.130   3.464  1.00  0.00     0.167 HD
HETATM   58  N6  UNL     1      19.061   3.458   3.444  1.00  0.00    -0.336 N 
HETATM   59  H6  UNL     1      18.424   4.251   3.517  1.00  0.00     0.168 HD
BRANCH  53  60
HETATM   60  N7  UNL     1      21.569   0.085   3.122  1.00  0.00    -0.287 NA
HETATM   61  H33 UNL     1      21.115  -0.768   3.439  1.00  0.00     0.125 HD
HETATM   62  H34 UNL     1      22.522   0.234   3.425  1.00  0.00     0.125 HD
ENDBRANCH  53  60
ENDBRANCH  37  48
ENDBRANCH  33  34
ENDBRANCH  32  33
ENDBRANCH  28  32
ENDBRANCH  27  28
ENDBRANCH  23  27
ENDBRANCH  22  23
ENDBRANCH  21  22
ENDBRANCH  18  21
ENDBRANCH  17  18
BRANCH  17  63
HETATM   63  O17 UNL     1      14.844  -2.074   6.916  1.00  0.00    -0.385 OA
HETATM   64  H38 UNL     1      13.969  -2.497   6.921  1.00  0.00     0.210 HD
ENDBRANCH  17  63
ENDBRANCH  14  17
ENDBRANCH  12  13
ENDBRANCH  11  12
ENDBRANCH   8  11
ENDBRANCH   6   7
ENDBRANCH   5   6
ENDBRANCH   4   5
ENDBRANCH   2   4
TORSDOF 27
ENDMDL
MODEL 9
REMARK VINA RESULT:      -3.6      6.490     12.441
REMARK  27 active torsions:
REMARK  status: ('A' for Active; 'I' for Inactive)
REMARK    1  A    between atoms: C2_2  and  S1_4 
REMARK    2  A    between atoms: S1_4  and  C3_5 
REMARK    3  A    between atoms: C3_5  and  C4_6 
REMARK    4  A    between atoms: C4_6  and  N1_7 
REMARK       I    between atoms: N1_7  and  C5_8 
REMARK    5  A    between atoms: C5_8  and  C6_10 
REMARK    6  A    between atoms: C6_10  and  C7_11 
REMARK    7  A    between atoms: C7_11  and  N2_12 
REMARK       I    between atoms: N2_12  and  C8_13 
REMARK    8  A    between atoms: C8_13  and  C9_15 
REMARK    9  A    between atoms: C9_15  and  C10_16 
REMARK   10  A    between atoms: C9_15  and  O17_54 
REMARK   11  A    between atoms: C10_16  and  C13_19 
REMARK   12  A    between atoms: C13_19  and  O4_20 
REMARK   13  A    between atoms: O4_20  and  P1_21 
REMARK   14  A    between atoms: P1_21  and  O6_23 
REMARK   15  A    between atoms: P1_21  and  O7_24 
REMARK   16  A    between atoms: O7_24  and  P2_25 
REMARK   17  A    between atoms: P2_25  and  O9_27 
REMARK   18  A    between atoms: P2_25  and  O10_28 
REMARK   19  A    between atoms: O10_28  and  C14_29 
REMARK   20  A    between atoms: C14_29  and  C15_30 
REMARK   21  A    between atoms: C16_31  and  O13_49 
REMARK   22  A    between atoms: C17_32  and  O12_48 
REMARK   23  A    between atoms: C18_33  and  N3_35 
REMARK   24  A    between atoms: C21_40  and  N7_47 
REMARK   25  A    between atoms: O13_49  and  P3_50 
REMARK   26  A    between atoms: P3_50  and  O15_52 
REMARK   27  A    between atoms: P3_50  and  O16_53 
ROOT
HETATM    1  C1  UNL     1      13.816  12.510  13.388  1.00  0.00     0.104 C 
HETATM    2  C2  UNL     1      12.938  11.517  12.690  1.00  0.00     0.182 C 
HETATM    3  O1  UNL     1      12.408  11.733  11.602  1.00  0.00    -0.286 OA
ENDROOT
BRANCH   2   4
HETATM    4  S1  UNL     1      12.691  10.019  13.576  1.00  0.00    -0.091 SA
BRANCH   4   5
HETATM    5  C3  UNL     1      10.879   9.868  13.458  1.00  0.00     0.102 C 
BRANCH   5   6
HETATM    6  C4  UNL     1      10.459   8.851  12.395  1.00  0.00     0.133 C 
BRANCH   6   7
HETATM    7  N1  UNL     1      10.807   9.269  11.052  1.00  0.00    -0.360 N 
HETATM    8  C5  UNL     1      11.002   8.360  10.038  1.00  0.00     0.219 C 
HETATM    9  O2  UNL     1      10.975   7.149  10.224  1.00  0.00    -0.274 OA
HETATM   10  H8  UNL     1      10.900  10.257  10.859  1.00  0.00     0.162 HD
BRANCH   8  11
HETATM   11  C6  UNL     1      11.303   9.007   8.703  1.00  0.00     0.122 C 
BRANCH  11  12
HETATM   12  C7  UNL     1      12.705   8.662   8.205  1.00  0.00     0.132 C 
BRANCH  12  13
HETATM   13  N2  UNL     1      13.554   8.105   9.237  1.00  0.00    -0.358 N 
HETATM   14  C8  UNL     1      14.678   7.375   8.897  1.00  0.00     0.247 C 
HETATM   15  O3  UNL     1      14.933   7.073   7.738  1.00  0.00    -0.271 OA
HETATM   16  H13 UNL     1      13.586   8.631  10.108  1.00  0.00     0.162 HD
BRANCH  14  17
HETATM   17  C9  UNL     1      15.582   6.996  10.079  1.00  0.00     0.219 C 
BRANCH  17  18
HETATM   18  C10 UNL     1      15.009   5.884  10.996  1.00  0.00     0.009 C 
HETATM   19  C11 UNL     1      14.529   6.437  12.346  1.00  0.00     0.020 C 
HETATM   20  C12 UNL     1      13.821   5.159  10.330  1.00  0.00     0.020 C 
BRANCH  18  21
HETATM   21  C13 UNL     1      16.173   4.879  11.227  1.00  0.00     0.192 C 
BRANCH  21  22
HETATM   22  O4  UNL     1      15.867   3.582  10.757  1.00  0.00    -0.296 OA
BRANCH  22  23
HETATM   23  P1  UNL     1      16.702   2.856   9.597  1.00  0.00     0.401 P 
HETATM   24  O5  UNL     1      17.173   3.776   8.515  1.00  0.00    -0.631 OA
BRANCH  23  25
HETATM   25  O6  UNL     1      15.797   1.637   9.064  1.00  0.00    -0.307 OA
HETATM   26  H23 UNL     1      16.142   1.260   8.245  1.00  0.00     0.222 HD
ENDBRANCH  23  25
BRANCH  23  27
HETATM   27  O7  UNL     1      17.861   2.072  10.354  1.00  0.00    -0.195 OA
BRANCH  27  28
HETATM   28  P2  UNL     1      18.251   0.609   9.860  1.00  0.00     0.401 P 
HETATM   29  O8  UNL     1      18.208   0.357   8.388  1.00  0.00    -0.631 OA
BRANCH  28  30
HETATM   30  O9  UNL     1      19.686   0.370  10.520  1.00  0.00    -0.307 OA
HETATM   31  H24 UNL     1      20.395   0.962  10.170  1.00  0.00     0.222 HD
ENDBRANCH  28  30
BRANCH  28  32
HETATM   32  O10 UNL     1      17.350  -0.355  10.759  1.00  0.00    -0.294 OA
BRANCH  32  33
HETATM   33  C14 UNL     1      17.562  -1.742  10.732  1.00  0.00     0.215 C 
BRANCH  33  34
HETATM   34  C15 UNL     1      16.187  -2.380  10.539  1.00  0.00     0.180 C 
HETATM   35  C16 UNL     1      15.829  -2.397   9.059  1.00  0.00     0.197 C 
HETATM   36  C17 UNL     1      14.585  -1.535   8.954  1.00  0.00     0.199 C 
HETATM   37  C18 UNL     1      13.993  -1.651  10.361  1.00  0.00     0.262 C 
HETATM   38  O11 UNL     1      15.145  -1.682  11.232  1.00  0.00    -0.353 OA
BRANCH  35  39
HETATM   39  O13 UNL     1      15.580  -3.747   8.681  1.00  0.00    -0.286 OA
BRANCH  39  40
HETATM   40  P3  UNL     1      16.425  -4.280   7.433  1.00  0.00     0.391 P 
HETATM   41  O14 UNL     1      17.896  -4.043   7.555  1.00  0.00    -0.632 OA
BRANCH  40  42
HETATM   42  O15 UNL     1      15.658  -3.565   6.225  1.00  0.00    -0.307 OA
HETATM   43  H36 UNL     1      14.792  -4.006   6.051  1.00  0.00     0.222 HD
ENDBRANCH  40  42
BRANCH  40  44
HETATM   44  O16 UNL     1      15.927  -5.787   7.335  1.00  0.00    -0.307 OA
HETATM   45  H37 UNL     1      15.519  -5.994   6.480  1.00  0.00     0.222 HD
ENDBRANCH  40  44
ENDBRANCH  39  40
ENDBRANCH  35  39
BRANCH  36  46
HETATM   46  O12 UNL     1      13.771  -1.970   7.862  1.00  0.00    -0.388 OA
HETATM   47  H35 UNL     1      13.500  -2.896   8.068  1.00  0.00     0.210 HD
ENDBRANCH  36  46
BRANCH  37  48
HETATM   48  N3  UNL     1      13.172  -0.510  10.715  1.00  0.00    -0.297 N 
HETATM   49  C19 UNL     1      11.845  -0.314  10.409  1.00  0.00     0.188 A 
HETATM   50  N4  UNL     1      11.355   0.763  10.983  1.00  0.00    -0.346 N 
HETATM   51  C20 UNL     1      12.416   1.289  11.700  1.00  0.00     0.116 A 
HETATM   52  H4  UNL     1      10.406   1.129  10.916  1.00  0.00     0.167 HD
HETATM   53  C21 UNL     1      12.531   2.401  12.553  1.00  0.00     0.109 A 
HETATM   54  C23 UNL     1      13.557   0.532  11.511  1.00  0.00     0.142 A 
HETATM   55  N5  UNL     1      13.737   2.667  13.112  1.00  0.00    -0.341 N 
HETATM   56  C22 UNL     1      14.771   1.854  12.818  1.00  0.00     0.183 A 
HETATM   57  H5  UNL     1      13.859   3.463  13.738  1.00  0.00     0.167 HD
HETATM   58  N6  UNL     1      14.778   0.761  12.027  1.00  0.00    -0.336 N 
HETATM   59  H6  UNL     1      15.600   0.185  11.844  1.00  0.00     0.168 HD
BRANCH  53  60
HETATM   60  N7  UNL     1      11.475   3.249  12.847  1.00  0.00    -0.287 NA
HETATM   61  H33 UNL     1      11.518   3.665  13.775  1.00  0.00     0.125 HD
HETATM   62  H34 UNL     1      10.580   2.881  12.554  1.00  0.00     0.125 HD
ENDBRANCH  53  60
ENDBRANCH  37  48
ENDBRANCH  33  34
ENDBRANCH  32  33
ENDBRANCH  28  32
ENDBRANCH  27  28
ENDBRANCH  23  27
ENDBRANCH  22  23
ENDBRANCH  21  22
ENDBRANCH  18  21
ENDBRANCH  17  18
BRANCH  17  63
HETATM   63  O17 UNL     1      16.866   6.576   9.603  1.00  0.00    -0.385 OA
HETATM   64  H38 UNL     1      17.274   7.324   9.136  1.00  0.00     0.210 HD
ENDBRANCH  17  63
ENDBRANCH  14  17
ENDBRANCH  12  13
ENDBRANCH  11  12
ENDBRANCH   8  11
ENDBRANCH   6   7
ENDBRANCH   5   6
ENDBRANCH   4   5
ENDBRANCH   2   4
TORSDOF 27
ENDMDL
MODEL 10
REMARK VINA RESULT:      -3.6      3.393      5.258
REMARK  27 active torsions:
REMARK  status: ('A' for Active; 'I' for Inactive)
REMARK    1  A    between atoms: C2_2  and  S1_4 
REMARK    2  A    between atoms: S1_4  and  C3_5 
REMARK    3  A    between atoms: C3_5  and  C4_6 
REMARK    4  A    between atoms: C4_6  and  N1_7 
REMARK       I    between atoms: N1_7  and  C5_8 
REMARK    5  A    between atoms: C5_8  and  C6_10 
REMARK    6  A    between atoms: C6_10  and  C7_11 
REMARK    7  A    between atoms: C7_11  and  N2_12 
REMARK       I    between atoms: N2_12  and  C8_13 
REMARK    8  A    between atoms: C8_13  and  C9_15 
REMARK    9  A    between atoms: C9_15  and  C10_16 
REMARK   10  A    between atoms: C9_15  and  O17_54 
REMARK   11  A    between atoms: C10_16  and  C13_19 
REMARK   12  A    between atoms: C13_19  and  O4_20 
REMARK   13  A    between atoms: O4_20  and  P1_21 
REMARK   14  A    between atoms: P1_21  and  O6_23 
REMARK   15  A    between atoms: P1_21  and  O7_24 
REMARK   16  A    between atoms: O7_24  and  P2_25 
REMARK   17  A    between atoms: P2_25  and  O9_27 
REMARK   18  A    between atoms: P2_25  and  O10_28 
REMARK   19  A    between atoms: O10_28  and  C14_29 
REMARK   20  A    between atoms: C14_29  and  C15_30 
REMARK   21  A    between atoms: C16_31  and  O13_49 
REMARK   22  A    between atoms: C17_32  and  O12_48 
REMARK   23  A    between atoms: C18_33  and  N3_35 
REMARK   24  A    between atoms: C21_40  and  N7_47 
REMARK   25  A    between atoms: O13_49  and  P3_50 
REMARK   26  A    between atoms: P3_50  and  O15_52 
REMARK   27  A    between atoms: P3_50  and  O16_53 
ROOT
HETATM    1  C1  UNL     1      27.079  -1.552  10.658  1.00  0.00     0.104 C 
HETATM    2  C2  UNL     1      27.041  -1.326   9.177  1.00  0.00     0.182 C 
HETATM    3  O1  UNL     1      27.608  -0.387   8.624  1.00  0.00    -0.286 OA
ENDROOT
BRANCH   2   4
HETATM    4  S1  UNL     1      26.079  -2.499   8.289  1.00  0.00    -0.091 SA
BRANCH   4   5
HETATM    5  C3  UNL     1      24.682  -1.449   7.774  1.00  0.00     0.102 C 
BRANCH   5   6
HETATM    6  C4  UNL     1      23.622  -2.245   7.010  1.00  0.00     0.133 C 
BRANCH   6   7
HETATM    7  N1  UNL     1      23.563  -1.895   5.606  1.00  0.00    -0.360 N 
HETATM    8  C5  UNL     1      22.568  -2.368   4.783  1.00  0.00     0.219 C 
HETATM    9  O2  UNL     1      21.723  -3.171   5.162  1.00  0.00    -0.274 OA
HETATM   10  H8  UNL     1      24.272  -1.281   5.228  1.00  0.00     0.162 HD
BRANCH   8  11
HETATM   11  C6  UNL     1      22.658  -1.839   3.368  1.00  0.00     0.122 C 
BRANCH  11  12
HETATM   12  C7  UNL     1      21.493  -2.319   2.503  1.00  0.00     0.132 C 
BRANCH  12  13
HETATM   13  N2  UNL     1      21.573  -3.726   2.174  1.00  0.00    -0.358 N 
HETATM   14  C8  UNL     1      20.458  -4.396   1.703  1.00  0.00     0.247 C 
HETATM   15  O3  UNL     1      19.353  -3.871   1.660  1.00  0.00    -0.271 OA
HETATM   16  H13 UNL     1      22.482  -4.049   1.848  1.00  0.00     0.162 HD
BRANCH  14  17
HETATM   17  C9  UNL     1      20.724  -5.832   1.226  1.00  0.00     0.219 C 
BRANCH  17  18
HETATM   18  C10 UNL     1      20.581  -6.913   2.329  1.00  0.00     0.009 C 
HETATM   19  C11 UNL     1      20.430  -8.323   1.740  1.00  0.00     0.020 C 
HETATM   20  C12 UNL     1      21.799  -6.921   3.274  1.00  0.00     0.020 C 
BRANCH  18  21
HETATM   21  C13 UNL     1      19.299  -6.541   3.128  1.00  0.00     0.192 C 
BRANCH  21  22
HETATM   22  O4  UNL     1      18.146  -7.189   2.629  1.00  0.00    -0.296 OA
BRANCH  22  23
HETATM   23  P1  UNL     1      16.792  -6.408   2.276  1.00  0.00     0.401 P 
HETATM   24  O5  UNL     1      15.611  -7.299   2.054  1.00  0.00    -0.631 OA
BRANCH  23  25
HETATM   25  O6  UNL     1      17.122  -5.445   1.028  1.00  0.00    -0.307 OA
HETATM   26  H23 UNL     1      17.795  -5.823   0.448  1.00  0.00     0.222 HD
ENDBRANCH  23  25
BRANCH  23  27
HETATM   27  O7  UNL     1      16.612  -5.346   3.447  1.00  0.00    -0.195 OA
BRANCH  27  28
HETATM   28  P2  UNL     1      15.573  -5.655   4.614  1.00  0.00     0.401 P 
HETATM   29  O8  UNL     1      14.129  -5.421   4.314  1.00  0.00    -0.631 OA
BRANCH  28  30
HETATM   30  O9  UNL     1      15.918  -7.160   5.022  1.00  0.00    -0.307 OA
HETATM   31  H24 UNL     1      16.839  -7.286   5.358  1.00  0.00     0.222 HD
ENDBRANCH  28  30
BRANCH  28  32
HETATM   32  O10 UNL     1      16.161  -4.868   5.873  1.00  0.00    -0.294 OA
BRANCH  32  33
HETATM   33  C14 UNL     1      16.619  -3.549   5.725  1.00  0.00     0.215 C 
BRANCH  33  34
HETATM   34  C15 UNL     1      17.513  -3.270   6.932  1.00  0.00     0.180 C 
HETATM   35  C16 UNL     1      16.783  -2.365   7.916  1.00  0.00     0.197 C 
HETATM   36  C17 UNL     1      17.627  -1.106   7.978  1.00  0.00     0.199 C 
HETATM   37  C18 UNL     1      19.012  -1.626   7.585  1.00  0.00     0.262 C 
HETATM   38  O11 UNL     1      18.744  -2.628   6.580  1.00  0.00    -0.353 OA
BRANCH  35  39
HETATM   39  O13 UNL     1      16.724  -3.035   9.171  1.00  0.00    -0.286 OA
BRANCH  39  40
HETATM   40  P3  UNL     1      15.279  -3.096   9.852  1.00  0.00     0.391 P 
HETATM   41  O14 UNL     1      14.890  -4.462  10.318  1.00  0.00    -0.632 OA
BRANCH  40  42
HETATM   42  O15 UNL     1      14.383  -2.418   8.714  1.00  0.00    -0.307 OA
HETATM   43  H36 UNL     1      14.930  -1.822   8.148  1.00  0.00     0.222 HD
ENDBRANCH  40  42
BRANCH  40  44
HETATM   44  O16 UNL     1      15.399  -1.951  10.949  1.00  0.00    -0.307 OA
HETATM   45  H37 UNL     1      14.562  -1.781  11.408  1.00  0.00     0.222 HD
ENDBRANCH  40  44
ENDBRANCH  39  40
ENDBRANCH  35  39
BRANCH  36  46
HETATM   46  O12 UNL     1      17.498  -0.486   9.261  1.00  0.00    -0.388 OA
HETATM   47  H35 UNL     1      18.196  -0.886   9.834  1.00  0.00     0.210 HD
ENDBRANCH  36  46
BRANCH  37  48
HETATM   48  N3  UNL     1      19.848  -0.595   7.003  1.00  0.00    -0.297 N 
HETATM   49  C19 UNL     1      20.944   0.007   7.575  1.00  0.00     0.188 A 
HETATM   50  N4  UNL     1      21.563   0.813   6.740  1.00  0.00    -0.346 N 
HETATM   51  C20 UNL     1      20.835   0.726   5.567  1.00  0.00     0.116 A 
HETATM   52  H4  UNL     1      22.394   1.377   6.918  1.00  0.00     0.167 HD
HETATM   53  C21 UNL     1      21.001   1.306   4.297  1.00  0.00     0.109 A 
HETATM   54  C23 UNL     1      19.747  -0.113   5.728  1.00  0.00     0.142 A 
HETATM   55  N5  UNL     1      20.091   1.026   3.332  1.00  0.00    -0.341 N 
HETATM   56  C22 UNL     1      19.065   0.208   3.640  1.00  0.00     0.183 A 
HETATM   57  H5  UNL     1      20.180   1.425   2.398  1.00  0.00     0.167 HD
HETATM   58  N6  UNL     1      18.808  -0.409   4.812  1.00  0.00    -0.336 N 
HETATM   59  H6  UNL     1      18.009  -1.020   4.981  1.00  0.00     0.168 HD
BRANCH  53  60
HETATM   60  N7  UNL     1      22.045   2.159   3.980  1.00  0.00    -0.287 NA
HETATM   61  H33 UNL     1      22.831   1.706   3.518  1.00  0.00     0.125 HD
HETATM   62  H34 UNL     1      22.266   2.807   4.724  1.00  0.00     0.125 HD
ENDBRANCH  53  60
ENDBRANCH  37  48
ENDBRANCH  33  34
ENDBRANCH  32  33
ENDBRANCH  28  32
ENDBRANCH  27  28
ENDBRANCH  23  27
ENDBRANCH  22  23
ENDBRANCH  21  22
ENDBRANCH  18  21
ENDBRANCH  17  18
BRANCH  17  63
HETATM   63  O17 UNL     1      19.842  -6.163   0.147  1.00  0.00    -0.385 OA
HETATM   64  H38 UNL     1      20.047  -5.578  -0.601  1.00  0.00     0.210 HD
ENDBRANCH  17  63
ENDBRANCH  14  17
ENDBRANCH  12  13
ENDBRANCH  11  12
ENDBRANCH   8  11
ENDBRANCH   6   7
ENDBRANCH   5   6
ENDBRANCH   4   5
ENDBRANCH   2   4
TORSDOF 27
ENDMDL
MODEL 11
REMARK VINA RESULT:      -3.6      8.277     13.417
REMARK  27 active torsions:
REMARK  status: ('A' for Active; 'I' for Inactive)
REMARK    1  A    between atoms: C2_2  and  S1_4 
REMARK    2  A    between atoms: S1_4  and  C3_5 
REMARK    3  A    between atoms: C3_5  and  C4_6 
REMARK    4  A    between atoms: C4_6  and  N1_7 
REMARK       I    between atoms: N1_7  and  C5_8 
REMARK    5  A    between atoms: C5_8  and  C6_10 
REMARK    6  A    between atoms: C6_10  and  C7_11 
REMARK    7  A    between atoms: C7_11  and  N2_12 
REMARK       I    between atoms: N2_12  and  C8_13 
REMARK    8  A    between atoms: C8_13  and  C9_15 
REMARK    9  A    between atoms: C9_15  and  C10_16 
REMARK   10  A    between atoms: C9_15  and  O17_54 
REMARK   11  A    between atoms: C10_16  and  C13_19 
REMARK   12  A    between atoms: C13_19  and  O4_20 
REMARK   13  A    between atoms: O4_20  and  P1_21 
REMARK   14  A    between atoms: P1_21  and  O6_23 
REMARK   15  A    between atoms: P1_21  and  O7_24 
REMARK   16  A    between atoms: O7_24  and  P2_25 
REMARK   17  A    between atoms: P2_25  and  O9_27 
REMARK   18  A    between atoms: P2_25  and  O10_28 
REMARK   19  A    between atoms: O10_28  and  C14_29 
REMARK   20  A    between atoms: C14_29  and  C15_30 
REMARK   21  A    between atoms: C16_31  and  O13_49 
REMARK   22  A    between atoms: C17_32  and  O12_48 
REMARK   23  A    between atoms: C18_33  and  N3_35 
REMARK   24  A    between atoms: C21_40  and  N7_47 
REMARK   25  A    between atoms: O13_49  and  P3_50 
REMARK   26  A    between atoms: P3_50  and  O15_52 
REMARK   27  A    between atoms: P3_50  and  O16_53 
ROOT
HETATM    1  C1  UNL     1      14.609  11.631   9.925  1.00  0.00     0.104 C 
HETATM    2  C2  UNL     1      13.167  11.956   9.681  1.00  0.00     0.182 C 
HETATM    3  O1  UNL     1      12.766  12.522   8.667  1.00  0.00    -0.286 OA
ENDROOT
BRANCH   2   4
HETATM    4  S1  UNL     1      12.088  11.494  10.990  1.00  0.00    -0.091 SA
BRANCH   4   5
HETATM    5  C3  UNL     1      12.223   9.679  10.896  1.00  0.00     0.102 C 
BRANCH   5   6
HETATM    6  C4  UNL     1      11.282   9.091   9.843  1.00  0.00     0.133 C 
BRANCH   6   7
HETATM    7  N1  UNL     1      11.929   8.895   8.562  1.00  0.00    -0.360 N 
HETATM    8  C5  UNL     1      11.512   9.558   7.431  1.00  0.00     0.219 C 
HETATM    9  O2  UNL     1      10.527  10.287   7.419  1.00  0.00    -0.274 OA
HETATM   10  H8  UNL     1      12.712   8.257   8.505  1.00  0.00     0.162 HD
BRANCH   8  11
HETATM   11  C6  UNL     1      12.356   9.254   6.213  1.00  0.00     0.122 C 
BRANCH  11  12
HETATM   12  C7  UNL     1      13.849   9.408   6.499  1.00  0.00     0.132 C 
BRANCH  12  13
HETATM   13  N2  UNL     1      14.663   8.426   5.815  1.00  0.00    -0.358 N 
HETATM   14  C8  UNL     1      15.986   8.244   6.175  1.00  0.00     0.247 C 
HETATM   15  O3  UNL     1      16.547   8.971   6.986  1.00  0.00    -0.271 OA
HETATM   16  H13 UNL     1      14.163   7.615   5.457  1.00  0.00     0.162 HD
BRANCH  14  17
HETATM   17  C9  UNL     1      16.681   7.055   5.495  1.00  0.00     0.219 C 
BRANCH  17  18
HETATM   18  C10 UNL     1      17.105   5.919   6.464  1.00  0.00     0.009 C 
HETATM   19  C11 UNL     1      18.459   6.202   7.129  1.00  0.00     0.020 C 
HETATM   20  C12 UNL     1      16.061   5.709   7.580  1.00  0.00     0.020 C 
BRANCH  18  21
HETATM   21  C13 UNL     1      17.208   4.633   5.594  1.00  0.00     0.192 C 
BRANCH  21  22
HETATM   22  O4  UNL     1      18.424   4.565   4.877  1.00  0.00    -0.296 OA
BRANCH  22  23
HETATM   23  P1  UNL     1      18.487   4.387   3.284  1.00  0.00     0.401 P 
HETATM   24  O5  UNL     1      17.323   4.981   2.556  1.00  0.00    -0.631 OA
BRANCH  23  25
HETATM   25  O6  UNL     1      18.698   2.817   3.000  1.00  0.00    -0.307 OA
HETATM   26  H23 UNL     1      19.093   2.362   3.755  1.00  0.00     0.222 HD
ENDBRANCH  23  25
BRANCH  23  27
HETATM   27  O7  UNL     1      19.905   4.972   2.862  1.00  0.00    -0.195 OA
BRANCH  27  28
HETATM   28  P2  UNL     1      21.127   4.835   3.874  1.00  0.00     0.401 P 
HETATM   29  O8  UNL     1      21.345   5.964   4.828  1.00  0.00    -0.631 OA
BRANCH  28  30
HETATM   30  O9  UNL     1      20.863   3.427   4.580  1.00  0.00    -0.307 OA
HETATM   31  H24 UNL     1      20.888   2.656   3.963  1.00  0.00     0.222 HD
ENDBRANCH  28  30
BRANCH  28  32
HETATM   32  O10 UNL     1      22.366   4.465   2.936  1.00  0.00    -0.294 OA
BRANCH  32  33
HETATM   33  C14 UNL     1      22.212   3.520   1.910  1.00  0.00     0.215 C 
BRANCH  33  34
HETATM   34  C15 UNL     1      23.128   2.350   2.268  1.00  0.00     0.180 C 
HETATM   35  C16 UNL     1      23.616   1.670   0.995  1.00  0.00     0.197 C 
HETATM   36  C17 UNL     1      23.068   0.258   1.080  1.00  0.00     0.199 C 
HETATM   37  C18 UNL     1      22.907   0.064   2.590  1.00  0.00     0.262 C 
HETATM   38  O11 UNL     1      22.479   1.358   3.071  1.00  0.00    -0.353 OA
BRANCH  35  39
HETATM   39  O13 UNL     1      25.039   1.695   1.000  1.00  0.00    -0.286 OA
BRANCH  39  40
HETATM   40  P3  UNL     1      25.719   2.452  -0.233  1.00  0.00     0.391 P 
HETATM   41  O14 UNL     1      25.115   3.788  -0.527  1.00  0.00    -0.632 OA
BRANCH  40  42
HETATM   42  O15 UNL     1      25.619   1.328  -1.367  1.00  0.00    -0.307 OA
HETATM   43  H36 UNL     1      26.243   1.522  -2.106  1.00  0.00     0.222 HD
ENDBRANCH  40  42
BRANCH  40  44
HETATM   44  O16 UNL     1      27.254   2.413   0.180  1.00  0.00    -0.307 OA
HETATM   45  H37 UNL     1      27.571   3.260   0.532  1.00  0.00     0.222 HD
ENDBRANCH  40  44
ENDBRANCH  39  40
ENDBRANCH  35  39
BRANCH  36  46
HETATM   46  O12 UNL     1      23.931  -0.650   0.390  1.00  0.00    -0.388 OA
HETATM   47  H35 UNL     1      24.312  -1.247   1.077  1.00  0.00     0.210 HD
ENDBRANCH  36  46
BRANCH  37  48
HETATM   48  N3  UNL     1      21.890  -0.915   2.919  1.00  0.00    -0.297 N 
HETATM   49  C19 UNL     1      21.869  -2.243   2.562  1.00  0.00     0.188 A 
HETATM   50  N4  UNL     1      20.875  -2.895   3.125  1.00  0.00    -0.346 N 
HETATM   51  C20 UNL     1      20.222  -1.943   3.888  1.00  0.00     0.116 A 
HETATM   52  H4  UNL     1      20.638  -3.881   3.022  1.00  0.00     0.167 HD
HETATM   53  C21 UNL     1      19.117  -2.011   4.754  1.00  0.00     0.109 A 
HETATM   54  C23 UNL     1      20.817  -0.704   3.739  1.00  0.00     0.142 A 
HETATM   55  N5  UNL     1      18.699  -0.874   5.363  1.00  0.00    -0.341 N 
HETATM   56  C22 UNL     1      19.363   0.270   5.105  1.00  0.00     0.183 A 
HETATM   57  H5  UNL     1      17.903  -0.885   6.001  1.00  0.00     0.167 HD
HETATM   58  N6  UNL     1      20.434   0.454   4.306  1.00  0.00    -0.336 N 
HETATM   59  H6  UNL     1      20.893   1.352   4.152  1.00  0.00     0.168 HD
BRANCH  53  60
HETATM   60  N7  UNL     1      18.421  -3.181   5.012  1.00  0.00    -0.287 NA
HETATM   61  H33 UNL     1      19.002  -3.950   5.338  1.00  0.00     0.125 HD
HETATM   62  H34 UNL     1      17.735  -3.398   4.301  1.00  0.00     0.125 HD
ENDBRANCH  53  60
ENDBRANCH  37  48
ENDBRANCH  33  34
ENDBRANCH  32  33
ENDBRANCH  28  32
ENDBRANCH  27  28
ENDBRANCH  23  27
ENDBRANCH  22  23
ENDBRANCH  21  22
ENDBRANCH  18  21
ENDBRANCH  17  18
BRANCH  17  63
HETATM   63  O17 UNL     1      15.832   6.499   4.486  1.00  0.00    -0.385 OA
HETATM   64  H38 UNL     1      16.294   6.563   3.634  1.00  0.00     0.210 HD
ENDBRANCH  17  63
ENDBRANCH  14  17
ENDBRANCH  12  13
ENDBRANCH  11  12
ENDBRANCH   8  11
ENDBRANCH   6   7
ENDBRANCH   5   6
ENDBRANCH   4   5
ENDBRANCH   2   4
TORSDOF 27
ENDMDL
MODEL 12
REMARK VINA RESULT:      -3.5     12.955     16.992
REMARK  27 active torsions:
REMARK  status: ('A' for Active; 'I' for Inactive)
REMARK    1  A    between atoms: C2_2  and  S1_4 
REMARK    2  A    between atoms: S1_4  and  C3_5 
REMARK    3  A    between atoms: C3_5  and  C4_6 
REMARK    4  A    between atoms: C4_6  and  N1_7 
REMARK       I    between atoms: N1_7  and  C5_8 
REMARK    5  A    between atoms: C5_8  and  C6_10 
REMARK    6  A    between atoms: C6_10  and  C7_11 
REMARK    7  A    between atoms: C7_11  and  N2_12 
REMARK       I    between atoms: N2_12  and  C8_13 
REMARK    8  A    between atoms: C8_13  and  C9_15 
REMARK    9  A    between atoms: C9_15  and  C10_16 
REMARK   10  A    between atoms: C9_15  and  O17_54 
REMARK   11  A    between atoms: C10_16  and  C13_19 
REMARK   12  A    between atoms: C13_19  and  O4_20 
REMARK   13  A    between atoms: O4_20  and  P1_21 
REMARK   14  A    between atoms: P1_21  and  O6_23 
REMARK   15  A    between atoms: P1_21  and  O7_24 
REMARK   16  A    between atoms: O7_24  and  P2_25 
REMARK   17  A    between atoms: P2_25  and  O9_27 
REMARK   18  A    between atoms: P2_25  and  O10_28 
REMARK   19  A    between atoms: O10_28  and  C14_29 
REMARK   20  A    between atoms: C14_29  and  C15_30 
REMARK   21  A    between atoms: C16_31  and  O13_49 
REMARK   22  A    between atoms: C17_32  and  O12_48 
REMARK   23  A    between atoms: C18_33  and  N3_35 
REMARK   24  A    between atoms: C21_40  and  N7_47 
REMARK   25  A    between atoms: O13_49  and  P3_50 
REMARK   26  A    between atoms: P3_50  and  O15_52 
REMARK   27  A    between atoms: P3_50  and  O16_53 
ROOT
HETATM    1  C1  UNL     1      14.838   8.180  12.687  1.00  0.00     0.104 C 
HETATM    2  C2  UNL     1      13.401   7.887  12.995  1.00  0.00     0.182 C 
HETATM    3  O1  UNL     1      12.835   6.852  12.651  1.00  0.00    -0.286 OA
ENDROOT
BRANCH   2   4
HETATM    4  S1  UNL     1      12.569   9.171  13.861  1.00  0.00    -0.091 SA
BRANCH   4   5
HETATM    5  C3  UNL     1      10.841   8.625  13.667  1.00  0.00     0.102 C 
BRANCH   5   6
HETATM    6  C4  UNL     1      10.190   9.226  12.419  1.00  0.00     0.133 C 
BRANCH   6   7
HETATM    7  N1  UNL     1      10.631   8.588  11.196  1.00  0.00    -0.360 N 
HETATM    8  C5  UNL     1      11.308   9.282  10.220  1.00  0.00     0.219 C 
HETATM    9  O2  UNL     1      11.509  10.489  10.287  1.00  0.00    -0.274 OA
HETATM   10  H8  UNL     1      10.439   7.604  11.064  1.00  0.00     0.162 HD
BRANCH   8  11
HETATM   11  C6  UNL     1      11.726   8.417   9.050  1.00  0.00     0.122 C 
BRANCH  11  12
HETATM   12  C7  UNL     1      13.148   7.882   9.215  1.00  0.00     0.132 C 
BRANCH  12  13
HETATM   13  N2  UNL     1      13.957   8.046   8.026  1.00  0.00    -0.358 N 
HETATM   14  C8  UNL     1      15.306   8.332   8.135  1.00  0.00     0.247 C 
HETATM   15  O3  UNL     1      15.836   8.572   9.212  1.00  0.00    -0.271 OA
HETATM   16  H13 UNL     1      13.659   7.506   7.215  1.00  0.00     0.162 HD
BRANCH  14  17
HETATM   17  C9  UNL     1      16.079   8.304   6.808  1.00  0.00     0.219 C 
BRANCH  17  18
HETATM   18  C10 UNL     1      16.570   6.896   6.380  1.00  0.00     0.009 C 
HETATM   19  C11 UNL     1      16.789   5.969   7.584  1.00  0.00     0.020 C 
HETATM   20  C12 UNL     1      15.566   6.212   5.430  1.00  0.00     0.020 C 
BRANCH  18  21
HETATM   21  C13 UNL     1      17.921   7.121   5.641  1.00  0.00     0.192 C 
BRANCH  21  22
HETATM   22  O4  UNL     1      17.746   7.344   4.256  1.00  0.00    -0.296 OA
BRANCH  22  23
HETATM   23  P1  UNL     1      18.387   8.598   3.489  1.00  0.00     0.401 P 
HETATM   24  O5  UNL     1      18.403   8.460   1.999  1.00  0.00    -0.631 OA
BRANCH  23  25
HETATM   25  O6  UNL     1      19.841   8.844   4.134  1.00  0.00    -0.307 OA
HETATM   26  H23 UNL     1      20.539   8.405   3.631  1.00  0.00     0.222 HD
ENDBRANCH  23  25
BRANCH  23  27
HETATM   27  O7  UNL     1      17.590   9.863   4.031  1.00  0.00    -0.195 OA
BRANCH  27  28
HETATM   28  P2  UNL     1      17.905  11.296   3.411  1.00  0.00     0.401 P 
HETATM   29  O8  UNL     1      19.307  11.797   3.543  1.00  0.00    -0.631 OA
BRANCH  28  30
HETATM   30  O9  UNL     1      17.401  11.161   1.902  1.00  0.00    -0.307 OA
HETATM   31  H24 UNL     1      18.031  11.524   1.232  1.00  0.00     0.222 HD
ENDBRANCH  28  30
BRANCH  28  32
HETATM   32  O10 UNL     1      16.768  12.239   4.018  1.00  0.00    -0.294 OA
BRANCH  32  33
HETATM   33  C14 UNL     1      16.330  12.051   5.338  1.00  0.00     0.215 C 
BRANCH  33  34
HETATM   34  C15 UNL     1      15.311  13.155   5.611  1.00  0.00     0.180 C 
HETATM   35  C16 UNL     1      13.930  12.708   5.148  1.00  0.00     0.197 C 
HETATM   36  C17 UNL     1      13.551  13.696   4.061  1.00  0.00     0.199 C 
HETATM   37  C18 UNL     1      14.379  14.926   4.439  1.00  0.00     0.262 C 
HETATM   38  O11 UNL     1      15.621  14.381   4.938  1.00  0.00    -0.353 OA
BRANCH  35  39
HETATM   39  O13 UNL     1      13.048  12.773   6.264  1.00  0.00    -0.286 OA
BRANCH  39  40
HETATM   40  P3  UNL     1      12.671  11.368   6.927  1.00  0.00     0.391 P 
HETATM   41  O14 UNL     1      12.775  10.211   5.986  1.00  0.00    -0.632 OA
BRANCH  40  42
HETATM   42  O15 UNL     1      11.230  11.701   7.535  1.00  0.00    -0.307 OA
HETATM   43  H36 UNL     1      10.653  12.121   6.854  1.00  0.00     0.222 HD
ENDBRANCH  40  42
BRANCH  40  44
HETATM   44  O16 UNL     1      13.613  11.361   8.208  1.00  0.00    -0.307 OA
HETATM   45  H37 UNL     1      13.914  12.249   8.458  1.00  0.00     0.222 HD
ENDBRANCH  40  44
ENDBRANCH  39  40
ENDBRANCH  35  39
BRANCH  36  46
HETATM   46  O12 UNL     1      12.131  13.852   4.006  1.00  0.00    -0.388 OA
HETATM   47  H35 UNL     1      11.768  12.988   3.696  1.00  0.00     0.210 HD
ENDBRANCH  36  46
BRANCH  37  48
HETATM   48  N3  UNL     1      14.667  15.775   3.301  1.00  0.00    -0.297 N 
HETATM   49  C19 UNL     1      14.197  17.047   3.072  1.00  0.00     0.188 A 
HETATM   50  N4  UNL     1      14.744  17.598   2.011  1.00  0.00    -0.346 N 
HETATM   51  C20 UNL     1      15.616  16.637   1.530  1.00  0.00     0.116 A 
HETATM   52  H4  UNL     1      14.566  18.526   1.627  1.00  0.00     0.167 HD
HETATM   53  C21 UNL     1      16.521  16.625   0.454  1.00  0.00     0.109 A 
HETATM   54  C23 UNL     1      15.549  15.488   2.297  1.00  0.00     0.142 A 
HETATM   55  N5  UNL     1      17.245  15.502   0.228  1.00  0.00    -0.341 N 
HETATM   56  C22 UNL     1      17.058  14.447   1.046  1.00  0.00     0.183 A 
HETATM   57  H5  UNL     1      17.915  15.457  -0.540  1.00  0.00     0.167 HD
HETATM   58  N6  UNL     1      16.232  14.345   2.107  1.00  0.00    -0.336 N 
HETATM   59  H6  UNL     1      16.136  13.512   2.688  1.00  0.00     0.168 HD
BRANCH  53  60
HETATM   60  N7  UNL     1      16.707  17.702  -0.398  1.00  0.00    -0.287 NA
HETATM   61  H33 UNL     1      17.266  18.456  -0.005  1.00  0.00     0.125 HD
HETATM   62  H34 UNL     1      15.862  17.968  -0.887  1.00  0.00     0.125 HD
ENDBRANCH  53  60
ENDBRANCH  37  48
ENDBRANCH  33  34
ENDBRANCH  32  33
ENDBRANCH  28  32
ENDBRANCH  27  28
ENDBRANCH  23  27
ENDBRANCH  22  23
ENDBRANCH  21  22
ENDBRANCH  18  21
ENDBRANCH  17  18
BRANCH  17  63
HETATM   63  O17 UNL     1      15.272   8.843   5.755  1.00  0.00    -0.385 OA
HETATM   64  H38 UNL     1      14.857   8.102   5.283  1.00  0.00     0.210 HD
ENDBRANCH  17  63
ENDBRANCH  14  17
ENDBRANCH  12  13
ENDBRANCH  11  12
ENDBRANCH   8  11
ENDBRANCH   6   7
ENDBRANCH   5   6
ENDBRANCH   4   5
ENDBRANCH   2   4
TORSDOF 27
ENDMDL
MODEL 13
REMARK VINA RESULT:      -3.5      3.567      5.446
REMARK  27 active torsions:
REMARK  status: ('A' for Active; 'I' for Inactive)
REMARK    1  A    between atoms: C2_2  and  S1_4 
REMARK    2  A    between atoms: S1_4  and  C3_5 
REMARK    3  A    between atoms: C3_5  and  C4_6 
REMARK    4  A    between atoms: C4_6  and  N1_7 
REMARK       I    between atoms: N1_7  and  C5_8 
REMARK    5  A    between atoms: C5_8  and  C6_10 
REMARK    6  A    between atoms: C6_10  and  C7_11 
REMARK    7  A    between atoms: C7_11  and  N2_12 
REMARK       I    between atoms: N2_12  and  C8_13 
REMARK    8  A    between atoms: C8_13  and  C9_15 
REMARK    9  A    between atoms: C9_15  and  C10_16 
REMARK   10  A    between atoms: C9_15  and  O17_54 
REMARK   11  A    between atoms: C10_16  and  C13_19 
REMARK   12  A    between atoms: C13_19  and  O4_20 
REMARK   13  A    between atoms: O4_20  and  P1_21 
REMARK   14  A    between atoms: P1_21  and  O6_23 
REMARK   15  A    between atoms: P1_21  and  O7_24 
REMARK   16  A    between atoms: O7_24  and  P2_25 
REMARK   17  A    between atoms: P2_25  and  O9_27 
REMARK   18  A    between atoms: P2_25  and  O10_28 
REMARK   19  A    between atoms: O10_28  and  C14_29 
REMARK   20  A    between atoms: C14_29  and  C15_30 
REMARK   21  A    between atoms: C16_31  and  O13_49 
REMARK   22  A    between atoms: C17_32  and  O12_48 
REMARK   23  A    between atoms: C18_33  and  N3_35 
REMARK   24  A    between atoms: C21_40  and  N7_47 
REMARK   25  A    between atoms: O13_49  and  P3_50 
REMARK   26  A    between atoms: P3_50  and  O15_52 
REMARK   27  A    between atoms: P3_50  and  O16_53 
ROOT
HETATM    1  C1  UNL     1      27.527  -0.500  10.515  1.00  0.00     0.104 C 
HETATM    2  C2  UNL     1      27.785  -0.035   9.115  1.00  0.00     0.182 C 
HETATM    3  O1  UNL     1      28.892  -0.076   8.584  1.00  0.00    -0.286 OA
ENDROOT
BRANCH   2   4
HETATM    4  S1  UNL     1      26.373   0.617   8.295  1.00  0.00    -0.091 SA
BRANCH   4   5
HETATM    5  C3  UNL     1      26.055  -0.711   7.090  1.00  0.00     0.102 C 
BRANCH   5   6
HETATM    6  C4  UNL     1      25.311  -0.196   5.857  1.00  0.00     0.133 C 
BRANCH   6   7
HETATM    7  N1  UNL     1      24.960  -1.255   4.932  1.00  0.00    -0.360 N 
HETATM    8  C5  UNL     1      24.776  -1.013   3.591  1.00  0.00     0.219 C 
HETATM    9  O2  UNL     1      24.817   0.115   3.112  1.00  0.00    -0.274 OA
HETATM   10  H8  UNL     1      24.856  -2.196   5.287  1.00  0.00     0.162 HD
BRANCH   8  11
HETATM   11  C6  UNL     1      24.470  -2.262   2.793  1.00  0.00     0.122 C 
BRANCH  11  12
HETATM   12  C7  UNL     1      23.419  -2.007   1.713  1.00  0.00     0.132 C 
BRANCH  12  13
HETATM   13  N2  UNL     1      22.158  -2.666   1.982  1.00  0.00    -0.358 N 
HETATM   14  C8  UNL     1      21.717  -3.687   1.161  1.00  0.00     0.247 C 
HETATM   15  O3  UNL     1      22.300  -3.990   0.127  1.00  0.00    -0.271 OA
HETATM   16  H13 UNL     1      21.884  -2.705   2.961  1.00  0.00     0.162 HD
BRANCH  14  17
HETATM   17  C9  UNL     1      20.459  -4.415   1.657  1.00  0.00     0.219 C 
BRANCH  17  18
HETATM   18  C10 UNL     1      20.696  -5.887   2.088  1.00  0.00     0.009 C 
HETATM   19  C11 UNL     1      20.543  -6.865   0.914  1.00  0.00     0.020 C 
HETATM   20  C12 UNL     1      22.104  -6.080   2.687  1.00  0.00     0.020 C 
BRANCH  18  21
HETATM   21  C13 UNL     1      19.620  -6.194   3.168  1.00  0.00     0.192 C 
BRANCH  21  22
HETATM   22  O4  UNL     1      18.528  -6.925   2.647  1.00  0.00    -0.296 OA
BRANCH  22  23
HETATM   23  P1  UNL     1      17.026  -6.363   2.644  1.00  0.00     0.401 P 
HETATM   24  O5  UNL     1      16.171  -6.907   1.543  1.00  0.00    -0.631 OA
BRANCH  23  25
HETATM   25  O6  UNL     1      17.130  -4.757   2.652  1.00  0.00    -0.307 OA
HETATM   26  H23 UNL     1      17.388  -4.407   1.789  1.00  0.00     0.222 HD
ENDBRANCH  23  25
BRANCH  23  27
HETATM   27  O7  UNL     1      16.479  -6.644   4.111  1.00  0.00    -0.195 OA
BRANCH  27  28
HETATM   28  P2  UNL     1      15.677  -5.494   4.868  1.00  0.00     0.401 P 
HETATM   29  O8  UNL     1      14.525  -4.882   4.141  1.00  0.00    -0.631 OA
BRANCH  28  30
HETATM   30  O9  UNL     1      15.283  -6.176   6.257  1.00  0.00    -0.307 OA
HETATM   31  H24 UNL     1      14.628  -5.660   6.788  1.00  0.00     0.222 HD
ENDBRANCH  28  30
BRANCH  28  32
HETATM   32  O10 UNL     1      16.816  -4.483   5.349  1.00  0.00    -0.294 OA
BRANCH  32  33
HETATM   33  C14 UNL     1      16.864  -4.066   6.688  1.00  0.00     0.215 C 
BRANCH  33  34
HETATM   34  C15 UNL     1      16.186  -2.698   6.734  1.00  0.00     0.180 C 
HETATM   35  C16 UNL     1      17.170  -1.652   7.241  1.00  0.00     0.197 C 
HETATM   36  C17 UNL     1      16.554  -1.137   8.528  1.00  0.00     0.199 C 
HETATM   37  C18 UNL     1      15.066  -1.415   8.308  1.00  0.00     0.262 C 
HETATM   38  O11 UNL     1      15.040  -2.670   7.592  1.00  0.00    -0.353 OA
BRANCH  35  39
HETATM   39  O13 UNL     1      17.279  -0.633   6.253  1.00  0.00    -0.286 OA
BRANCH  39  40
HETATM   40  P3  UNL     1      18.729  -0.455   5.603  1.00  0.00     0.391 P 
HETATM   41  O14 UNL     1      19.134   0.971   5.415  1.00  0.00    -0.632 OA
BRANCH  40  42
HETATM   42  O15 UNL     1      18.583  -1.363   4.293  1.00  0.00    -0.307 OA
HETATM   43  H36 UNL     1      19.139  -2.174   4.367  1.00  0.00     0.222 HD
ENDBRANCH  40  42
BRANCH  40  44
HETATM   44  O16 UNL     1      19.619  -1.353   6.567  1.00  0.00    -0.307 OA
HETATM   45  H37 UNL     1      20.537  -1.435   6.264  1.00  0.00     0.222 HD
ENDBRANCH  40  44
ENDBRANCH  39  40
ENDBRANCH  35  39
BRANCH  36  46
HETATM   46  O12 UNL     1      16.942   0.221   8.755  1.00  0.00    -0.388 OA
HETATM   47  H35 UNL     1      17.637   0.427   8.085  1.00  0.00     0.210 HD
ENDBRANCH  36  46
BRANCH  37  48
HETATM   48  N3  UNL     1      14.339  -1.573   9.552  1.00  0.00    -0.297 N 
HETATM   49  C19 UNL     1      13.465  -0.678  10.123  1.00  0.00     0.188 A 
HETATM   50  N4  UNL     1      12.872  -1.171  11.189  1.00  0.00    -0.346 N 
HETATM   51  C20 UNL     1      13.384  -2.451  11.312  1.00  0.00     0.116 A 
HETATM   52  H4  UNL     1      12.188  -0.713  11.790  1.00  0.00     0.167 HD
HETATM   53  C21 UNL     1      13.125  -3.498  12.213  1.00  0.00     0.109 A 
HETATM   54  C23 UNL     1      14.323  -2.699  10.327  1.00  0.00     0.142 A 
HETATM   55  N5  UNL     1      13.813  -4.658  12.076  1.00  0.00    -0.341 N 
HETATM   56  C22 UNL     1      14.718  -4.749  11.081  1.00  0.00     0.183 A 
HETATM   57  H5  UNL     1      13.650  -5.441  12.709  1.00  0.00     0.167 HD
HETATM   58  N6  UNL     1      15.043  -3.822  10.157  1.00  0.00    -0.336 N 
HETATM   59  H6  UNL     1      15.742  -3.955   9.425  1.00  0.00     0.168 HD
BRANCH  53  60
HETATM   60  N7  UNL     1      12.206  -3.405  13.247  1.00  0.00    -0.287 NA
HETATM   61  H33 UNL     1      11.728  -4.277  13.462  1.00  0.00     0.125 HD
HETATM   62  H34 UNL     1      11.634  -2.573  13.192  1.00  0.00     0.125 HD
ENDBRANCH  53  60
ENDBRANCH  37  48
ENDBRANCH  33  34
ENDBRANCH  32  33
ENDBRANCH  28  32
ENDBRANCH  27  28
ENDBRANCH  23  27
ENDBRANCH  22  23
ENDBRANCH  21  22
ENDBRANCH  18  21
ENDBRANCH  17  18
BRANCH  17  63
HETATM   63  O17 UNL     1      19.882  -3.707   2.760  1.00  0.00    -0.385 OA
HETATM   64  H38 UNL     1      19.038  -4.134   2.984  1.00  0.00     0.210 HD
ENDBRANCH  17  63
ENDBRANCH  14  17
ENDBRANCH  12  13
ENDBRANCH  11  12
ENDBRANCH   8  11
ENDBRANCH   6   7
ENDBRANCH   5   6
ENDBRANCH   4   5
ENDBRANCH   2   4
TORSDOF 27
ENDMDL
MODEL 14
REMARK VINA RESULT:      -3.5      5.242      7.538
REMARK  27 active torsions:
REMARK  status: ('A' for Active; 'I' for Inactive)
REMARK    1  A    between atoms: C2_2  and  S1_4 
REMARK    2  A    between atoms: S1_4  and  C3_5 
REMARK    3  A    between atoms: C3_5  and  C4_6 
REMARK    4  A    between atoms: C4_6  and  N1_7 
REMARK       I    between atoms: N1_7  and  C5_8 
REMARK    5  A    between atoms: C5_8  and  C6_10 
REMARK    6  A    between atoms: C6_10  and  C7_11 
REMARK    7  A    between atoms: C7_11  and  N2_12 
REMARK       I    between atoms: N2_12  and  C8_13 
REMARK    8  A    between atoms: C8_13  and  C9_15 
REMARK    9  A    between atoms: C9_15  and  C10_16 
REMARK   10  A    between atoms: C9_15  and  O17_54 
REMARK   11  A    between atoms: C10_16  and  C13_19 
REMARK   12  A    between atoms: C13_19  and  O4_20 
REMARK   13  A    between atoms: O4_20  and  P1_21 
REMARK   14  A    between atoms: P1_21  and  O6_23 
REMARK   15  A    between atoms: P1_21  and  O7_24 
REMARK   16  A    between atoms: O7_24  and  P2_25 
REMARK   17  A    between atoms: P2_25  and  O9_27 
REMARK   18  A    between atoms: P2_25  and  O10_28 
REMARK   19  A    between atoms: O10_28  and  C14_29 
REMARK   20  A    between atoms: C14_29  and  C15_30 
REMARK   21  A    between atoms: C16_31  and  O13_49 
REMARK   22  A    between atoms: C17_32  and  O12_48 
REMARK   23  A    between atoms: C18_33  and  N3_35 
REMARK   24  A    between atoms: C21_40  and  N7_47 
REMARK   25  A    between atoms: O13_49  and  P3_50 
REMARK   26  A    between atoms: P3_50  and  O15_52 
REMARK   27  A    between atoms: P3_50  and  O16_53 
ROOT
HETATM    1  C1  UNL     1      28.838   3.578   0.610  1.00  0.00     0.104 C 
HETATM    2  C2  UNL     1      27.556   3.988   1.269  1.00  0.00     0.182 C 
HETATM    3  O1  UNL     1      27.436   4.125   2.484  1.00  0.00    -0.286 OA
ENDROOT
BRANCH   2   4
HETATM    4  S1  UNL     1      26.212   4.220   0.159  1.00  0.00    -0.091 SA
BRANCH   4   5
HETATM    5  C3  UNL     1      25.099   2.889   0.714  1.00  0.00     0.102 C 
BRANCH   5   6
HETATM    6  C4  UNL     1      24.869   1.845  -0.380  1.00  0.00     0.133 C 
BRANCH   6   7
HETATM    7  N1  UNL     1      24.723   0.504   0.149  1.00  0.00    -0.360 N 
HETATM    8  C5  UNL     1      23.541   0.069   0.703  1.00  0.00     0.219 C 
HETATM    9  O2  UNL     1      22.574   0.806   0.857  1.00  0.00    -0.274 OA
HETATM   10  H8  UNL     1      25.512  -0.127   0.100  1.00  0.00     0.162 HD
BRANCH   8  11
HETATM   11  C6  UNL     1      23.583  -1.378   1.143  1.00  0.00     0.122 C 
BRANCH  11  12
HETATM   12  C7  UNL     1      23.260  -1.533   2.629  1.00  0.00     0.132 C 
BRANCH  12  13
HETATM   13  N2  UNL     1      21.910  -1.129   2.961  1.00  0.00    -0.358 N 
HETATM   14  C8  UNL     1      21.576  -0.820   4.267  1.00  0.00     0.247 C 
HETATM   15  O3  UNL     1      22.357  -0.985   5.196  1.00  0.00    -0.271 OA
HETATM   16  H13 UNL     1      21.404  -0.643   2.224  1.00  0.00     0.162 HD
BRANCH  14  17
HETATM   17  C9  UNL     1      20.167  -0.239   4.452  1.00  0.00     0.219 C 
BRANCH  17  18
HETATM   18  C10 UNL     1      20.082   1.303   4.297  1.00  0.00     0.009 C 
HETATM   19  C11 UNL     1      21.426   1.917   3.879  1.00  0.00     0.020 C 
HETATM   20  C12 UNL     1      19.027   1.708   3.247  1.00  0.00     0.020 C 
BRANCH  18  21
HETATM   21  C13 UNL     1      19.669   1.850   5.693  1.00  0.00     0.192 C 
BRANCH  21  22
HETATM   22  O4  UNL     1      19.927   0.926   6.731  1.00  0.00    -0.296 OA
BRANCH  22  23
HETATM   23  P1  UNL     1      21.030   1.178   7.867  1.00  0.00     0.401 P 
HETATM   24  O5  UNL     1      20.739   2.349   8.753  1.00  0.00    -0.631 OA
BRANCH  23  25
HETATM   25  O6  UNL     1      22.454   1.266   7.122  1.00  0.00    -0.307 OA
HETATM   26  H23 UNL     1      22.364   1.214   6.162  1.00  0.00     0.222 HD
ENDBRANCH  23  25
BRANCH  23  27
HETATM   27  O7  UNL     1      21.164  -0.213   8.627  1.00  0.00    -0.195 OA
BRANCH  27  28
HETATM   28  P2  UNL     1      20.137  -0.554   9.796  1.00  0.00     0.401 P 
HETATM   29  O8  UNL     1      20.628  -0.387  11.197  1.00  0.00    -0.631 OA
BRANCH  28  30
HETATM   30  O9  UNL     1      18.865   0.343   9.441  1.00  0.00    -0.307 OA
HETATM   31  H24 UNL     1      18.886   0.731   8.532  1.00  0.00     0.222 HD
ENDBRANCH  28  30
BRANCH  28  32
HETATM   32  O10 UNL     1      19.588  -2.005   9.418  1.00  0.00    -0.294 OA
BRANCH  32  33
HETATM   33  C14 UNL     1      18.818  -2.184   8.258  1.00  0.00     0.215 C 
BRANCH  33  34
HETATM   34  C15 UNL     1      17.462  -2.712   8.723  1.00  0.00     0.180 C 
HETATM   35  C16 UNL     1      16.459  -2.634   7.580  1.00  0.00     0.197 C 
HETATM   36  C17 UNL     1      15.386  -1.681   8.074  1.00  0.00     0.199 C 
HETATM   37  C18 UNL     1      15.506  -1.821   9.593  1.00  0.00     0.262 C 
HETATM   38  O11 UNL     1      16.924  -1.975   9.826  1.00  0.00    -0.353 OA
BRANCH  35  39
HETATM   39  O13 UNL     1      15.949  -3.943   7.349  1.00  0.00    -0.286 OA
BRANCH  39  40
HETATM   40  P3  UNL     1      16.208  -4.536   5.888  1.00  0.00     0.391 P 
HETATM   41  O14 UNL     1      17.654  -4.606   5.513  1.00  0.00    -0.632 OA
BRANCH  40  42
HETATM   42  O15 UNL     1      15.260  -3.593   5.010  1.00  0.00    -0.307 OA
HETATM   43  H36 UNL     1      14.314  -3.720   5.260  1.00  0.00     0.222 HD
ENDBRANCH  40  42
BRANCH  40  44
HETATM   44  O16 UNL     1      15.398  -5.903   5.954  1.00  0.00    -0.307 OA
HETATM   45  H37 UNL     1      14.438  -5.769   6.001  1.00  0.00     0.222 HD
ENDBRANCH  40  44
ENDBRANCH  39  40
ENDBRANCH  35  39
BRANCH  36  46
HETATM   46  O12 UNL     1      14.125  -2.004   7.482  1.00  0.00    -0.388 OA
HETATM   47  H35 UNL     1      13.815  -1.187   7.025  1.00  0.00     0.210 HD
ENDBRANCH  36  46
BRANCH  37  48
HETATM   48  N3  UNL     1      15.043  -0.642  10.298  1.00  0.00    -0.297 N 
HETATM   49  C19 UNL     1      15.808   0.405  10.759  1.00  0.00     0.188 A 
HETATM   50  N4  UNL     1      15.074   1.382  11.245  1.00  0.00    -0.346 N 
HETATM   51  C20 UNL     1      13.769   0.949  11.087  1.00  0.00     0.116 A 
HETATM   52  H4  UNL     1      15.394   2.262  11.647  1.00  0.00     0.167 HD
HETATM   53  C21 UNL     1      12.527   1.546  11.367  1.00  0.00     0.109 A 
HETATM   54  C23 UNL     1      13.737  -0.320  10.539  1.00  0.00     0.142 A 
HETATM   55  N5  UNL     1      11.396   0.846  11.103  1.00  0.00    -0.341 N 
HETATM   56  C22 UNL     1      11.519  -0.394  10.589  1.00  0.00     0.183 A 
HETATM   57  H5  UNL     1      10.477   1.247  11.289  1.00  0.00     0.167 HD
HETATM   58  N6  UNL     1      12.648  -1.062  10.273  1.00  0.00    -0.336 N 
HETATM   59  H6  UNL     1      12.672  -2.005   9.885  1.00  0.00     0.168 HD
BRANCH  53  60
HETATM   60  N7  UNL     1      12.395   2.814  11.909  1.00  0.00    -0.287 NA
HETATM   61  H33 UNL     1      13.258   3.199  12.289  1.00  0.00     0.125 HD
HETATM   62  H34 UNL     1      11.563   2.918  12.474  1.00  0.00     0.125 HD
ENDBRANCH  53  60
ENDBRANCH  37  48
ENDBRANCH  33  34
ENDBRANCH  32  33
ENDBRANCH  28  32
ENDBRANCH  27  28
ENDBRANCH  23  27
ENDBRANCH  22  23
ENDBRANCH  21  22
ENDBRANCH  18  21
ENDBRANCH  17  18
BRANCH  17  63
HETATM   63  O17 UNL     1      19.260  -0.840   3.521  1.00  0.00    -0.385 OA
HETATM   64  H38 UNL     1      19.766  -1.101   2.733  1.00  0.00     0.210 HD
ENDBRANCH  17  63
ENDBRANCH  14  17
ENDBRANCH  12  13
ENDBRANCH  11  12
ENDBRANCH   8  11
ENDBRANCH   6   7
ENDBRANCH   5   6
ENDBRANCH   4   5
ENDBRANCH   2   4
TORSDOF 27
ENDMDL
MODEL 15
REMARK VINA RESULT:      -3.5     15.723     18.978
REMARK  27 active torsions:
REMARK  status: ('A' for Active; 'I' for Inactive)
REMARK    1  A    between atoms: C2_2  and  S1_4 
REMARK    2  A    between atoms: S1_4  and  C3_5 
REMARK    3  A    between atoms: C3_5  and  C4_6 
REMARK    4  A    between atoms: C4_6  and  N1_7 
REMARK       I    between atoms: N1_7  and  C5_8 
REMARK    5  A    between atoms: C5_8  and  C6_10 
REMARK    6  A    between atoms: C6_10  and  C7_11 
REMARK    7  A    between atoms: C7_11  and  N2_12 
REMARK       I    between atoms: N2_12  and  C8_13 
REMARK    8  A    between atoms: C8_13  and  C9_15 
REMARK    9  A    between atoms: C9_15  and  C10_16 
REMARK   10  A    between atoms: C9_15  and  O17_54 
REMARK   11  A    between atoms: C10_16  and  C13_19 
REMARK   12  A    between atoms: C13_19  and  O4_20 
REMARK   13  A    between atoms: O4_20  and  P1_21 
REMARK   14  A    between atoms: P1_21  and  O6_23 
REMARK   15  A    between atoms: P1_21  and  O7_24 
REMARK   16  A    between atoms: O7_24  and  P2_25 
REMARK   17  A    between atoms: P2_25  and  O9_27 
REMARK   18  A    between atoms: P2_25  and  O10_28 
REMARK   19  A    between atoms: O10_28  and  C14_29 
REMARK   20  A    between atoms: C14_29  and  C15_30 
REMARK   21  A    between atoms: C16_31  and  O13_49 
REMARK   22  A    between atoms: C17_32  and  O12_48 
REMARK   23  A    between atoms: C18_33  and  N3_35 
REMARK   24  A    between atoms: C21_40  and  N7_47 
REMARK   25  A    between atoms: O13_49  and  P3_50 
REMARK   26  A    between atoms: P3_50  and  O15_52 
REMARK   27  A    between atoms: P3_50  and  O16_53 
ROOT
HETATM    1  C1  UNL     1      17.863  -6.617 -12.897  1.00  0.00     0.104 C 
HETATM    2  C2  UNL     1      18.403  -7.833 -12.207  1.00  0.00     0.182 C 
HETATM    3  O1  UNL     1      17.880  -8.332 -11.213  1.00  0.00    -0.286 OA
ENDROOT
BRANCH   2   4
HETATM    4  S1  UNL     1      19.880  -8.472 -12.914  1.00  0.00    -0.091 SA
BRANCH   4   5
HETATM    5  C3  UNL     1      20.889  -8.692 -11.412  1.00  0.00     0.102 C 
BRANCH   5   6
HETATM    6  C4  UNL     1      21.260  -7.353 -10.774  1.00  0.00     0.133 C 
BRANCH   6   7
HETATM    7  N1  UNL     1      21.719  -6.379 -11.743  1.00  0.00    -0.360 N 
HETATM    8  C5  UNL     1      21.184  -5.113 -11.806  1.00  0.00     0.219 C 
HETATM    9  O2  UNL     1      20.242  -4.759 -11.107  1.00  0.00    -0.274 OA
HETATM   10  H8  UNL     1      22.456  -6.640 -12.384  1.00  0.00     0.162 HD
BRANCH   8  11
HETATM   11  C6  UNL     1      21.841  -4.236 -12.850  1.00  0.00     0.122 C 
BRANCH  11  12
HETATM   12  C7  UNL     1      23.338  -4.064 -12.591  1.00  0.00     0.132 C 
BRANCH  12  13
HETATM   13  N2  UNL     1      23.727  -2.680 -12.417  1.00  0.00    -0.358 N 
HETATM   14  C8  UNL     1      24.747  -2.142 -13.179  1.00  0.00     0.247 C 
HETATM   15  O3  UNL     1      25.429  -2.826 -13.932  1.00  0.00    -0.271 OA
HETATM   16  H13 UNL     1      22.985  -2.050 -12.121  1.00  0.00     0.162 HD
BRANCH  14  17
HETATM   17  C9  UNL     1      24.939  -0.626 -13.021  1.00  0.00     0.219 C 
BRANCH  17  18
HETATM   18  C10 UNL     1      26.077  -0.220 -12.048  1.00  0.00     0.009 C 
HETATM   19  C11 UNL     1      27.424  -0.061 -12.768  1.00  0.00     0.020 C 
HETATM   20  C12 UNL     1      25.761   1.108 -11.332  1.00  0.00     0.020 C 
BRANCH  18  21
HETATM   21  C13 UNL     1      26.175  -1.369 -11.004  1.00  0.00     0.192 C 
BRANCH  21  22
HETATM   22  O4  UNL     1      26.173  -0.890  -9.674  1.00  0.00    -0.296 OA
BRANCH  22  23
HETATM   23  P1  UNL     1      26.869  -1.677  -8.463  1.00  0.00     0.401 P 
HETATM   24  O5  UNL     1      27.486  -2.983  -8.856  1.00  0.00    -0.631 OA
BRANCH  23  25
HETATM   25  O6  UNL     1      25.767  -1.804  -7.296  1.00  0.00    -0.307 OA
HETATM   26  H23 UNL     1      25.634  -2.721  -7.024  1.00  0.00     0.222 HD
ENDBRANCH  23  25
BRANCH  23  27
HETATM   27  O7  UNL     1      27.881  -0.631  -7.820  1.00  0.00    -0.195 OA
BRANCH  27  28
HETATM   28  P2  UNL     1      29.365  -0.544  -8.393  1.00  0.00     0.401 P 
HETATM   29  O8  UNL     1      30.445  -1.168  -7.570  1.00  0.00    -0.631 OA
BRANCH  28  30
HETATM   30  O9  UNL     1      29.229  -1.156  -9.861  1.00  0.00    -0.307 OA
HETATM   31  H24 UNL     1      28.394  -0.905 -10.327  1.00  0.00     0.222 HD
ENDBRANCH  28  30
BRANCH  28  32
HETATM   32  O10 UNL     1      29.556   1.004  -8.737  1.00  0.00    -0.294 OA
BRANCH  32  33
HETATM   33  C14 UNL     1      28.440   1.852  -8.799  1.00  0.00     0.215 C 
BRANCH  33  34
HETATM   34  C15 UNL     1      28.908   3.213  -8.287  1.00  0.00     0.180 C 
HETATM   35  C16 UNL     1      29.968   3.021  -7.210  1.00  0.00     0.197 C 
HETATM   36  C17 UNL     1      29.360   3.628  -5.960  1.00  0.00     0.199 C 
HETATM   37  C18 UNL     1      28.371   4.641  -6.541  1.00  0.00     0.262 C 
HETATM   38  O11 UNL     1      27.848   3.993  -7.722  1.00  0.00    -0.353 OA
BRANCH  35  39
HETATM   39  O13 UNL     1      31.145   3.708  -7.622  1.00  0.00    -0.286 OA
BRANCH  39  40
HETATM   40  P3  UNL     1      32.439   2.793  -7.834  1.00  0.00     0.391 P 
HETATM   41  O14 UNL     1      33.720   3.466  -7.462  1.00  0.00    -0.632 OA
BRANCH  40  42
HETATM   42  O15 UNL     1      32.248   2.354  -9.361  1.00  0.00    -0.307 OA
HETATM   43  H36 UNL     1      31.300   2.162  -9.552  1.00  0.00     0.222 HD
ENDBRANCH  40  42
BRANCH  40  44
HETATM   44  O16 UNL     1      32.034   1.483  -7.028  1.00  0.00    -0.307 OA
HETATM   45  H37 UNL     1      31.655   1.680  -6.157  1.00  0.00     0.222 HD
ENDBRANCH  40  44
ENDBRANCH  39  40
ENDBRANCH  35  39
BRANCH  36  46
HETATM   46  O12 UNL     1      30.388   4.131  -5.102  1.00  0.00    -0.388 OA
HETATM   47  H35 UNL     1      30.082   5.017  -4.792  1.00  0.00     0.210 HD
ENDBRANCH  36  46
BRANCH  37  48
HETATM   48  N3  UNL     1      27.272   4.926  -5.640  1.00  0.00    -0.297 N 
HETATM   49  C19 UNL     1      27.171   4.574  -4.314  1.00  0.00     0.188 A 
HETATM   50  N4  UNL     1      26.107   5.090  -3.741  1.00  0.00    -0.346 N 
HETATM   51  C20 UNL     1      25.488   5.817  -4.743  1.00  0.00     0.116 A 
HETATM   52  H4  UNL     1      25.804   4.980  -2.773  1.00  0.00     0.167 HD
HETATM   53  C21 UNL     1      24.341   6.629  -4.762  1.00  0.00     0.109 A 
HETATM   54  C23 UNL     1      26.179   5.692  -5.935  1.00  0.00     0.142 A 
HETATM   55  N5  UNL     1      23.978   7.212  -5.931  1.00  0.00    -0.341 N 
HETATM   56  C22 UNL     1      24.735   6.981  -7.022  1.00  0.00     0.183 A 
HETATM   57  H5  UNL     1      23.153   7.810  -5.983  1.00  0.00     0.167 HD
HETATM   58  N6  UNL     1      25.854   6.234  -7.122  1.00  0.00    -0.336 N 
HETATM   59  H6  UNL     1      26.383   6.098  -7.983  1.00  0.00     0.168 HD
BRANCH  53  60
HETATM   60  N7  UNL     1      23.551   6.858  -3.647  1.00  0.00    -0.287 NA
HETATM   61  H33 UNL     1      23.141   6.018  -3.244  1.00  0.00     0.125 HD
HETATM   62  H34 UNL     1      22.940   7.656  -3.754  1.00  0.00     0.125 HD
ENDBRANCH  53  60
ENDBRANCH  37  48
ENDBRANCH  33  34
ENDBRANCH  32  33
ENDBRANCH  28  32
ENDBRANCH  27  28
ENDBRANCH  23  27
ENDBRANCH  22  23
ENDBRANCH  21  22
ENDBRANCH  18  21
ENDBRANCH  17  18
BRANCH  17  63
HETATM   63  O17 UNL     1      25.195  -0.026 -14.296  1.00  0.00    -0.385 OA
HETATM   64  H38 UNL     1      25.979  -0.455 -14.679  1.00  0.00     0.210 HD
ENDBRANCH  17  63
ENDBRANCH  14  17
ENDBRANCH  12  13
ENDBRANCH  11  12
ENDBRANCH   8  11
ENDBRANCH   6   7
ENDBRANCH   5   6
ENDBRANCH   4   5
ENDBRANCH   2   4
TORSDOF 27
ENDMDL
MODEL 16
REMARK VINA RESULT:      -3.4     13.017     15.632
REMARK  27 active torsions:
REMARK  status: ('A' for Active; 'I' for Inactive)
REMARK    1  A    between atoms: C2_2  and  S1_4 
REMARK    2  A    between atoms: S1_4  and  C3_5 
REMARK    3  A    between atoms: C3_5  and  C4_6 
REMARK    4  A    between atoms: C4_6  and  N1_7 
REMARK       I    between atoms: N1_7  and  C5_8 
REMARK    5  A    between atoms: C5_8  and  C6_10 
REMARK    6  A    between atoms: C6_10  and  C7_11 
REMARK    7  A    between atoms: C7_11  and  N2_12 
REMARK       I    between atoms: N2_12  and  C8_13 
REMARK    8  A    between atoms: C8_13  and  C9_15 
REMARK    9  A    between atoms: C9_15  and  C10_16 
REMARK   10  A    between atoms: C9_15  and  O17_54 
REMARK   11  A    between atoms: C10_16  and  C13_19 
REMARK   12  A    between atoms: C13_19  and  O4_20 
REMARK   13  A    between atoms: O4_20  and  P1_21 
REMARK   14  A    between atoms: P1_21  and  O6_23 
REMARK   15  A    between atoms: P1_21  and  O7_24 
REMARK   16  A    between atoms: O7_24  and  P2_25 
REMARK   17  A    between atoms: P2_25  and  O9_27 
REMARK   18  A    between atoms: P2_25  and  O10_28 
REMARK   19  A    between atoms: O10_28  and  C14_29 
REMARK   20  A    between atoms: C14_29  and  C15_30 
REMARK   21  A    between atoms: C16_31  and  O13_49 
REMARK   22  A    between atoms: C17_32  and  O12_48 
REMARK   23  A    between atoms: C18_33  and  N3_35 
REMARK   24  A    between atoms: C21_40  and  N7_47 
REMARK   25  A    between atoms: O13_49  and  P3_50 
REMARK   26  A    between atoms: P3_50  and  O15_52 
REMARK   27  A    between atoms: P3_50  and  O16_53 
ROOT
HETATM    1  C1  UNL     1      20.944  18.692   1.116  1.00  0.00     0.104 C 
HETATM    2  C2  UNL     1      19.730  17.837   0.919  1.00  0.00     0.182 C 
HETATM    3  O1  UNL     1      18.633  18.287   0.596  1.00  0.00    -0.286 OA
ENDROOT
BRANCH   2   4
HETATM    4  S1  UNL     1      19.990  16.126   1.229  1.00  0.00    -0.091 SA
BRANCH   4   5
HETATM    5  C3  UNL     1      19.067  15.401  -0.164  1.00  0.00     0.102 C 
BRANCH   5   6
HETATM    6  C4  UNL     1      17.999  14.414   0.312  1.00  0.00     0.133 C 
BRANCH   6   7
HETATM    7  N1  UNL     1      18.271  13.053  -0.103  1.00  0.00    -0.360 N 
HETATM    8  C5  UNL     1      17.742  11.973   0.566  1.00  0.00     0.219 C 
HETATM    9  O2  UNL     1      17.080  12.091   1.591  1.00  0.00    -0.274 OA
HETATM   10  H8  UNL     1      18.860  12.899  -0.910  1.00  0.00     0.162 HD
BRANCH   8  11
HETATM   11  C6  UNL     1      18.103  10.644  -0.062  1.00  0.00     0.122 C 
BRANCH  11  12
HETATM   12  C7  UNL     1      18.999  10.817  -1.288  1.00  0.00     0.132 C 
BRANCH  12  13
HETATM   13  N2  UNL     1      19.740   9.619  -1.622  1.00  0.00    -0.358 N 
HETATM   14  C8  UNL     1      20.008   9.311  -2.944  1.00  0.00     0.247 C 
HETATM   15  O3  UNL     1      19.537   9.957  -3.871  1.00  0.00    -0.271 OA
HETATM   16  H13 UNL     1      20.419   9.316  -0.927  1.00  0.00     0.162 HD
BRANCH  14  17
HETATM   17  C9  UNL     1      20.950   8.115  -3.148  1.00  0.00     0.219 C 
BRANCH  17  18
HETATM   18  C10 UNL     1      22.413   8.501  -3.490  1.00  0.00     0.009 C 
HETATM   19  C11 UNL     1      23.066   7.499  -4.453  1.00  0.00     0.020 C 
HETATM   20  C12 UNL     1      22.493   9.900  -4.133  1.00  0.00     0.020 C 
BRANCH  18  21
HETATM   21  C13 UNL     1      23.181   8.501  -2.137  1.00  0.00     0.192 C 
BRANCH  21  22
HETATM   22  O4  UNL     1      22.869   9.626  -1.340  1.00  0.00    -0.296 OA
BRANCH  22  23
HETATM   23  P1  UNL     1      22.830   9.575   0.262  1.00  0.00     0.401 P 
HETATM   24  O5  UNL     1      22.817  10.920   0.917  1.00  0.00    -0.631 OA
BRANCH  23  25
HETATM   25  O6  UNL     1      24.054   8.638   0.727  1.00  0.00    -0.307 OA
HETATM   26  H23 UNL     1      24.885   9.127   0.775  1.00  0.00     0.222 HD
ENDBRANCH  23  25
BRANCH  23  27
HETATM   27  O7  UNL     1      21.583   8.653   0.613  1.00  0.00    -0.195 OA
BRANCH  27  28
HETATM   28  P2  UNL     1      21.842   7.231   1.285  1.00  0.00     0.401 P 
HETATM   29  O8  UNL     1      22.732   6.286   0.547  1.00  0.00    -0.631 OA
BRANCH  28  30
HETATM   30  O9  UNL     1      22.360   7.606   2.748  1.00  0.00    -0.307 OA
HETATM   31  H24 UNL     1      23.326   7.450   2.886  1.00  0.00     0.222 HD
ENDBRANCH  28  30
BRANCH  28  32
HETATM   32  O10 UNL     1      20.377   6.691   1.622  1.00  0.00    -0.294 OA
BRANCH  32  33
HETATM   33  C14 UNL     1      19.294   7.582   1.674  1.00  0.00     0.215 C 
BRANCH  33  34
HETATM   34  C15 UNL     1      18.299   6.988   2.669  1.00  0.00     0.180 C 
HETATM   35  C16 UNL     1      18.616   7.485   4.074  1.00  0.00     0.197 C 
HETATM   36  C17 UNL     1      18.961   6.232   4.856  1.00  0.00     0.199 C 
HETATM   37  C18 UNL     1      18.209   5.149   4.079  1.00  0.00     0.262 C 
HETATM   38  O11 UNL     1      18.325   5.556   2.697  1.00  0.00    -0.353 OA
BRANCH  35  39
HETATM   39  O13 UNL     1      17.456   8.134   4.584  1.00  0.00    -0.286 OA
BRANCH  39  40
HETATM   40  P3  UNL     1      17.661   9.653   5.039  1.00  0.00     0.391 P 
HETATM   41  O14 UNL     1      16.431  10.282   5.610  1.00  0.00    -0.632 OA
BRANCH  40  42
HETATM   42  O15 UNL     1      18.264  10.288   3.700  1.00  0.00    -0.307 OA
HETATM   43  H36 UNL     1      19.040  10.862   3.905  1.00  0.00     0.222 HD
ENDBRANCH  40  42
BRANCH  40  44
HETATM   44  O16 UNL     1      18.933   9.530   5.985  1.00  0.00    -0.307 OA
HETATM   45  H37 UNL     1      18.971   8.682   6.456  1.00  0.00     0.222 HD
ENDBRANCH  40  44
ENDBRANCH  39  40
ENDBRANCH  35  39
BRANCH  36  46
HETATM   46  O12 UNL     1      18.626   6.402   6.236  1.00  0.00    -0.388 OA
HETATM   47  H35 UNL     1      17.641   6.428   6.282  1.00  0.00     0.210 HD
ENDBRANCH  36  46
BRANCH  37  48
HETATM   48  N3  UNL     1      18.809   3.838   4.230  1.00  0.00    -0.297 N 
HETATM   49  C19 UNL     1      18.342   2.794   4.993  1.00  0.00     0.188 A 
HETATM   50  N4  UNL     1      19.044   1.695   4.818  1.00  0.00    -0.346 N 
HETATM   51  C20 UNL     1      20.012   2.044   3.892  1.00  0.00     0.116 A 
HETATM   52  H4  UNL     1      18.907   0.789   5.265  1.00  0.00     0.167 HD
HETATM   53  C21 UNL     1      21.034   1.314   3.262  1.00  0.00     0.109 A 
HETATM   54  C23 UNL     1      19.902   3.379   3.549  1.00  0.00     0.142 A 
HETATM   55  N5  UNL     1      21.846   1.957   2.387  1.00  0.00    -0.341 N 
HETATM   56  C22 UNL     1      21.635   3.269   2.167  1.00  0.00     0.183 A 
HETATM   57  H5  UNL     1      22.597   1.459   1.908  1.00  0.00     0.167 HD
HETATM   58  N6  UNL     1      20.688   4.067   2.702  1.00  0.00    -0.336 N 
HETATM   59  H6  UNL     1      20.582   5.060   2.492  1.00  0.00     0.168 HD
BRANCH  53  60
HETATM   60  N7  UNL     1      21.265  -0.033   3.495  1.00  0.00    -0.287 NA
HETATM   61  H33 UNL     1      20.421  -0.598   3.552  1.00  0.00     0.125 HD
HETATM   62  H34 UNL     1      21.970  -0.196   4.201  1.00  0.00     0.125 HD
ENDBRANCH  53  60
ENDBRANCH  37  48
ENDBRANCH  33  34
ENDBRANCH  32  33
ENDBRANCH  28  32
ENDBRANCH  27  28
ENDBRANCH  23  27
ENDBRANCH  22  23
ENDBRANCH  21  22
ENDBRANCH  18  21
ENDBRANCH  17  18
BRANCH  17  63
HETATM   63  O17 UNL     1      20.959   7.289  -1.979  1.00  0.00    -0.385 OA
HETATM   64  H38 UNL     1      21.883   7.076  -1.767  1.00  0.00     0.210 HD
ENDBRANCH  17  63
ENDBRANCH  14  17
ENDBRANCH  12  13
ENDBRANCH  11  12
ENDBRANCH   8  11
ENDBRANCH   6   7
ENDBRANCH   5   6
ENDBRANCH   4   5
ENDBRANCH   2   4
TORSDOF 27
ENDMDL
MODEL 17
REMARK VINA RESULT:      -3.4      4.320      8.566
REMARK  27 active torsions:
REMARK  status: ('A' for Active; 'I' for Inactive)
REMARK    1  A    between atoms: C2_2  and  S1_4 
REMARK    2  A    between atoms: S1_4  and  C3_5 
REMARK    3  A    between atoms: C3_5  and  C4_6 
REMARK    4  A    between atoms: C4_6  and  N1_7 
REMARK       I    between atoms: N1_7  and  C5_8 
REMARK    5  A    between atoms: C5_8  and  C6_10 
REMARK    6  A    between atoms: C6_10  and  C7_11 
REMARK    7  A    between atoms: C7_11  and  N2_12 
REMARK       I    between atoms: N2_12  and  C8_13 
REMARK    8  A    between atoms: C8_13  and  C9_15 
REMARK    9  A    between atoms: C9_15  and  C10_16 
REMARK   10  A    between atoms: C9_15  and  O17_54 
REMARK   11  A    between atoms: C10_16  and  C13_19 
REMARK   12  A    between atoms: C13_19  and  O4_20 
REMARK   13  A    between atoms: O4_20  and  P1_21 
REMARK   14  A    between atoms: P1_21  and  O6_23 
REMARK   15  A    between atoms: P1_21  and  O7_24 
REMARK   16  A    between atoms: O7_24  and  P2_25 
REMARK   17  A    between atoms: P2_25  and  O9_27 
REMARK   18  A    between atoms: P2_25  and  O10_28 
REMARK   19  A    between atoms: O10_28  and  C14_29 
REMARK   20  A    between atoms: C14_29  and  C15_30 
REMARK   21  A    between atoms: C16_31  and  O13_49 
REMARK   22  A    between atoms: C17_32  and  O12_48 
REMARK   23  A    between atoms: C18_33  and  N3_35 
REMARK   24  A    between atoms: C21_40  and  N7_47 
REMARK   25  A    between atoms: O13_49  and  P3_50 
REMARK   26  A    between atoms: P3_50  and  O15_52 
REMARK   27  A    between atoms: P3_50  and  O16_53 
ROOT
HETATM    1  C1  UNL     1      29.801  -0.507   3.871  1.00  0.00     0.104 C 
HETATM    2  C2  UNL     1      28.416  -0.751   3.355  1.00  0.00     0.182 C 
HETATM    3  O1  UNL     1      27.406  -0.308   3.896  1.00  0.00    -0.286 OA
ENDROOT
BRANCH   2   4
HETATM    4  S1  UNL     1      28.346  -1.765   1.920  1.00  0.00    -0.091 SA
BRANCH   4   5
HETATM    5  C3  UNL     1      27.250  -0.760   0.867  1.00  0.00     0.102 C 
BRANCH   5   6
HETATM    6  C4  UNL     1      25.854  -1.374   0.747  1.00  0.00     0.133 C 
BRANCH   6   7
HETATM    7  N1  UNL     1      25.266  -1.683   2.034  1.00  0.00    -0.360 N 
HETATM    8  C5  UNL     1      24.125  -1.056   2.478  1.00  0.00     0.219 C 
HETATM    9  O2  UNL     1      23.586  -0.149   1.855  1.00  0.00    -0.274 OA
HETATM   10  H8  UNL     1      25.707  -2.384   2.614  1.00  0.00     0.162 HD
BRANCH   8  11
HETATM   11  C6  UNL     1      23.647  -1.563   3.821  1.00  0.00     0.122 C 
BRANCH  11  12
HETATM   12  C7  UNL     1      22.122  -1.618   3.900  1.00  0.00     0.132 C 
BRANCH  12  13
HETATM   13  N2  UNL     1      21.593  -0.998   5.097  1.00  0.00    -0.358 N 
HETATM   14  C8  UNL     1      21.083   0.286   5.050  1.00  0.00     0.247 C 
HETATM   15  O3  UNL     1      21.163   0.983   4.046  1.00  0.00    -0.271 OA
HETATM   16  H13 UNL     1      21.185  -1.636   5.777  1.00  0.00     0.162 HD
BRANCH  14  17
HETATM   17  C9  UNL     1      20.395   0.754   6.341  1.00  0.00     0.219 C 
BRANCH  17  18
HETATM   18  C10 UNL     1      18.932   0.265   6.504  1.00  0.00     0.009 C 
HETATM   19  C11 UNL     1      18.029   1.340   7.129  1.00  0.00     0.020 C 
HETATM   20  C12 UNL     1      18.318  -0.141   5.149  1.00  0.00     0.020 C 
BRANCH  18  21
HETATM   21  C13 UNL     1      18.997  -0.973   7.443  1.00  0.00     0.192 C 
BRANCH  21  22
HETATM   22  O4  UNL     1      18.409  -2.120   6.864  1.00  0.00    -0.296 OA
BRANCH  22  23
HETATM   23  P1  UNL     1      19.220  -3.478   6.605  1.00  0.00     0.401 P 
HETATM   24  O5  UNL     1      20.415  -3.655   7.488  1.00  0.00    -0.631 OA
BRANCH  23  25
HETATM   25  O6  UNL     1      19.561  -3.524   5.033  1.00  0.00    -0.307 OA
HETATM   26  H23 UNL     1      19.887  -4.391   4.759  1.00  0.00     0.222 HD
ENDBRANCH  23  25
BRANCH  23  27
HETATM   27  O7  UNL     1      18.133  -4.634   6.719  1.00  0.00    -0.195 OA
BRANCH  27  28
HETATM   28  P2  UNL     1      16.641  -4.338   6.244  1.00  0.00     0.401 P 
HETATM   29  O8  UNL     1      15.677  -3.878   7.287  1.00  0.00    -0.631 OA
BRANCH  28  30
HETATM   30  O9  UNL     1      16.838  -3.308   5.040  1.00  0.00    -0.307 OA
HETATM   31  H24 UNL     1      16.899  -2.363   5.323  1.00  0.00     0.222 HD
ENDBRANCH  28  30
BRANCH  28  32
HETATM   32  O10 UNL     1      16.225  -5.653   5.439  1.00  0.00    -0.294 OA
BRANCH  32  33
HETATM   33  C14 UNL     1      17.201  -6.404   4.766  1.00  0.00     0.215 C 
BRANCH  33  34
HETATM   34  C15 UNL     1      17.263  -5.846   3.345  1.00  0.00     0.180 C 
HETATM   35  C16 UNL     1      17.172  -6.986   2.339  1.00  0.00     0.197 C 
HETATM   36  C17 UNL     1      18.487  -6.938   1.584  1.00  0.00     0.199 C 
HETATM   37  C18 UNL     1      18.898  -5.472   1.743  1.00  0.00     0.262 C 
HETATM   38  O11 UNL     1      18.472  -5.126   3.079  1.00  0.00    -0.353 OA
BRANCH  35  39
HETATM   39  O13 UNL     1      16.057  -6.738   1.490  1.00  0.00    -0.286 OA
BRANCH  39  40
HETATM   40  P3  UNL     1      14.915  -7.857   1.507  1.00  0.00     0.391 P 
HETATM   41  O14 UNL     1      14.059  -7.826   2.731  1.00  0.00    -0.632 OA
BRANCH  40  42
HETATM   42  O15 UNL     1      15.784  -9.174   1.243  1.00  0.00    -0.307 OA
HETATM   43  H36 UNL     1      15.332  -9.767   0.597  1.00  0.00     0.222 HD
ENDBRANCH  40  42
BRANCH  40  44
HETATM   44  O16 UNL     1      14.207  -7.605   0.106  1.00  0.00    -0.307 OA
HETATM   45  H37 UNL     1      13.240  -7.559   0.176  1.00  0.00     0.222 HD
ENDBRANCH  40  44
ENDBRANCH  39  40
ENDBRANCH  35  39
BRANCH  36  46
HETATM   46  O12 UNL     1      18.313  -7.431   0.253  1.00  0.00    -0.388 OA
HETATM   47  H35 UNL     1      17.994  -6.669  -0.286  1.00  0.00     0.210 HD
ENDBRANCH  36  46
BRANCH  37  48
HETATM   48  N3  UNL     1      20.331  -5.282   1.646  1.00  0.00    -0.297 N 
HETATM   49  C19 UNL     1      21.029  -4.753   0.585  1.00  0.00     0.188 A 
HETATM   50  N4  UNL     1      22.306  -4.597   0.858  1.00  0.00    -0.346 N 
HETATM   51  C20 UNL     1      22.442  -5.042   2.161  1.00  0.00     0.116 A 
HETATM   52  H4  UNL     1      23.035  -4.230   0.245  1.00  0.00     0.167 HD
HETATM   53  C21 UNL     1      23.538  -5.097   3.040  1.00  0.00     0.109 A 
HETATM   54  C23 UNL     1      21.234  -5.506   2.648  1.00  0.00     0.142 A 
HETATM   55  N5  UNL     1      23.350  -5.609   4.280  1.00  0.00    -0.341 N 
HETATM   56  C22 UNL     1      22.118  -6.047   4.610  1.00  0.00     0.183 A 
HETATM   57  H5  UNL     1      24.120  -5.662   4.947  1.00  0.00     0.167 HD
HETATM   58  N6  UNL     1      20.997  -6.037   3.860  1.00  0.00    -0.336 N 
HETATM   59  H6  UNL     1      20.090  -6.386   4.171  1.00  0.00     0.168 HD
BRANCH  53  60
HETATM   60  N7  UNL     1      24.809  -4.663   2.701  1.00  0.00    -0.287 NA
HETATM   61  H33 UNL     1      25.018  -3.710   2.992  1.00  0.00     0.125 HD
HETATM   62  H34 UNL     1      25.077  -4.920   1.760  1.00  0.00     0.125 HD
ENDBRANCH  53  60
ENDBRANCH  37  48
ENDBRANCH  33  34
ENDBRANCH  32  33
ENDBRANCH  28  32
ENDBRANCH  27  28
ENDBRANCH  23  27
ENDBRANCH  22  23
ENDBRANCH  21  22
ENDBRANCH  18  21
ENDBRANCH  17  18
BRANCH  17  63
HETATM   63  O17 UNL     1      21.147   0.327   7.482  1.00  0.00    -0.385 OA
HETATM   64  H38 UNL     1      21.214  -0.642   7.453  1.00  0.00     0.210 HD
ENDBRANCH  17  63
ENDBRANCH  14  17
ENDBRANCH  12  13
ENDBRANCH  11  12
ENDBRANCH   8  11
ENDBRANCH   6   7
ENDBRANCH   5   6
ENDBRANCH   4   5
ENDBRANCH   2   4
TORSDOF 27
ENDMDL
MODEL 18
REMARK VINA RESULT:      -3.4      4.740      9.163
REMARK  27 active torsions:
REMARK  status: ('A' for Active; 'I' for Inactive)
REMARK    1  A    between atoms: C2_2  and  S1_4 
REMARK    2  A    between atoms: S1_4  and  C3_5 
REMARK    3  A    between atoms: C3_5  and  C4_6 
REMARK    4  A    between atoms: C4_6  and  N1_7 
REMARK       I    between atoms: N1_7  and  C5_8 
REMARK    5  A    between atoms: C5_8  and  C6_10 
REMARK    6  A    between atoms: C6_10  and  C7_11 
REMARK    7  A    between atoms: C7_11  and  N2_12 
REMARK       I    between atoms: N2_12  and  C8_13 
REMARK    8  A    between atoms: C8_13  and  C9_15 
REMARK    9  A    between atoms: C9_15  and  C10_16 
REMARK   10  A    between atoms: C9_15  and  O17_54 
REMARK   11  A    between atoms: C10_16  and  C13_19 
REMARK   12  A    between atoms: C13_19  and  O4_20 
REMARK   13  A    between atoms: O4_20  and  P1_21 
REMARK   14  A    between atoms: P1_21  and  O6_23 
REMARK   15  A    between atoms: P1_21  and  O7_24 
REMARK   16  A    between atoms: O7_24  and  P2_25 
REMARK   17  A    between atoms: P2_25  and  O9_27 
REMARK   18  A    between atoms: P2_25  and  O10_28 
REMARK   19  A    between atoms: O10_28  and  C14_29 
REMARK   20  A    between atoms: C14_29  and  C15_30 
REMARK   21  A    between atoms: C16_31  and  O13_49 
REMARK   22  A    between atoms: C17_32  and  O12_48 
REMARK   23  A    between atoms: C18_33  and  N3_35 
REMARK   24  A    between atoms: C21_40  and  N7_47 
REMARK   25  A    between atoms: O13_49  and  P3_50 
REMARK   26  A    between atoms: P3_50  and  O15_52 
REMARK   27  A    between atoms: P3_50  and  O16_53 
ROOT
HETATM    1  C1  UNL     1      22.537   6.304   8.747  1.00  0.00     0.104 C 
HETATM    2  C2  UNL     1      22.386   7.050   7.456  1.00  0.00     0.182 C 
HETATM    3  O1  UNL     1      22.368   8.276   7.384  1.00  0.00    -0.286 OA
ENDROOT
BRANCH   2   4
HETATM    4  S1  UNL     1      22.194   6.021   6.043  1.00  0.00    -0.091 SA
BRANCH   4   5
HETATM    5  C3  UNL     1      20.702   6.761   5.304  1.00  0.00     0.102 C 
BRANCH   5   6
HETATM    6  C4  UNL     1      20.546   6.379   3.831  1.00  0.00     0.133 C 
BRANCH   6   7
HETATM    7  N1  UNL     1      20.075   5.021   3.652  1.00  0.00    -0.360 N 
HETATM    8  C5  UNL     1      18.739   4.733   3.495  1.00  0.00     0.219 C 
HETATM    9  O2  UNL     1      17.865   5.588   3.578  1.00  0.00    -0.274 OA
HETATM   10  H8  UNL     1      20.752   4.270   3.635  1.00  0.00     0.162 HD
BRANCH   8  11
HETATM   11  C6  UNL     1      18.467   3.262   3.267  1.00  0.00     0.122 C 
BRANCH  11  12
HETATM   12  C7  UNL     1      18.783   2.424   4.505  1.00  0.00     0.132 C 
BRANCH  12  13
HETATM   13  N2  UNL     1      19.384   1.145   4.188  1.00  0.00    -0.358 N 
HETATM   14  C8  UNL     1      19.144   0.044   4.989  1.00  0.00     0.247 C 
HETATM   15  O3  UNL     1      18.527   0.128   6.044  1.00  0.00    -0.271 OA
HETATM   16  H13 UNL     1      19.550   0.974   3.198  1.00  0.00     0.162 HD
BRANCH  14  17
HETATM   17  C9  UNL     1      19.695  -1.282   4.444  1.00  0.00     0.219 C 
BRANCH  17  18
HETATM   18  C10 UNL     1      20.894  -1.857   5.242  1.00  0.00     0.009 C 
HETATM   19  C11 UNL     1      21.892  -2.593   4.336  1.00  0.00     0.020 C 
HETATM   20  C12 UNL     1      21.660  -0.748   5.989  1.00  0.00     0.020 C 
BRANCH  18  21
HETATM   21  C13 UNL     1      20.284  -2.856   6.267  1.00  0.00     0.192 C 
BRANCH  21  22
HETATM   22  O4  UNL     1      21.275  -3.570   6.977  1.00  0.00    -0.296 OA
BRANCH  22  23
HETATM   23  P1  UNL     1      21.141  -3.931   8.534  1.00  0.00     0.401 P 
HETATM   24  O5  UNL     1      21.949  -3.054   9.437  1.00  0.00    -0.631 OA
BRANCH  23  25
HETATM   25  O6  UNL     1      21.478  -5.499   8.679  1.00  0.00    -0.307 OA
HETATM   26  H23 UNL     1      20.703  -6.052   8.517  1.00  0.00     0.222 HD
ENDBRANCH  23  25
BRANCH  23  27
HETATM   27  O7  UNL     1      19.577  -3.923   8.824  1.00  0.00    -0.195 OA
BRANCH  27  28
HETATM   28  P2  UNL     1      18.892  -5.246   9.388  1.00  0.00     0.401 P 
HETATM   29  O8  UNL     1      19.505  -5.860  10.605  1.00  0.00    -0.631 OA
BRANCH  28  30
HETATM   30  O9  UNL     1      17.365  -4.818   9.574  1.00  0.00    -0.307 OA
HETATM   31  H24 UNL     1      16.722  -5.397   9.096  1.00  0.00     0.222 HD
ENDBRANCH  28  30
BRANCH  28  32
HETATM   32  O10 UNL     1      18.777  -6.197   8.110  1.00  0.00    -0.294 OA
BRANCH  32  33
HETATM   33  C14 UNL     1      17.530  -6.403   7.498  1.00  0.00     0.215 C 
BRANCH  33  34
HETATM   34  C15 UNL     1      17.526  -5.539   6.238  1.00  0.00     0.180 C 
HETATM   35  C16 UNL     1      16.258  -4.696   6.196  1.00  0.00     0.197 C 
HETATM   36  C17 UNL     1      15.532  -5.156   4.946  1.00  0.00     0.199 C 
HETATM   37  C18 UNL     1      16.679  -5.691   4.085  1.00  0.00     0.262 C 
HETATM   38  O11 UNL     1      17.578  -6.310   5.032  1.00  0.00    -0.353 OA
BRANCH  35  39
HETATM   39  O13 UNL     1      16.642  -3.327   6.121  1.00  0.00    -0.286 OA
BRANCH  39  40
HETATM   40  P3  UNL     1      16.193  -2.417   7.356  1.00  0.00     0.391 P 
HETATM   41  O14 UNL     1      15.156  -3.051   8.226  1.00  0.00    -0.632 OA
BRANCH  40  42
HETATM   42  O15 UNL     1      15.800  -1.062   6.603  1.00  0.00    -0.307 OA
HETATM   43  H36 UNL     1      14.902  -0.758   6.877  1.00  0.00     0.222 HD
ENDBRANCH  40  42
BRANCH  40  44
HETATM   44  O16 UNL     1      17.597  -2.069   8.018  1.00  0.00    -0.307 OA
HETATM   45  H37 UNL     1      18.165  -1.539   7.437  1.00  0.00     0.222 HD
ENDBRANCH  40  44
ENDBRANCH  39  40
ENDBRANCH  35  39
BRANCH  36  46
HETATM   46  O12 UNL     1      14.749  -4.088   4.406  1.00  0.00    -0.388 OA
HETATM   47  H35 UNL     1      14.103  -4.504   3.786  1.00  0.00     0.210 HD
ENDBRANCH  36  46
BRANCH  37  48
HETATM   48  N3  UNL     1      16.241  -6.694   3.135  1.00  0.00    -0.297 N 
HETATM   49  C19 UNL     1      14.999  -7.280   3.059  1.00  0.00     0.188 A 
HETATM   50  N4  UNL     1      14.879  -8.059   2.006  1.00  0.00    -0.346 N 
HETATM   51  C20 UNL     1      16.102  -7.969   1.364  1.00  0.00     0.116 A 
HETATM   52  H4  UNL     1      14.066  -8.607   1.724  1.00  0.00     0.167 HD
HETATM   53  C21 UNL     1      16.595  -8.524   0.171  1.00  0.00     0.109 A 
HETATM   54  C23 UNL     1      16.968  -7.157   2.074  1.00  0.00     0.142 A 
HETATM   55  N5  UNL     1      17.871  -8.250  -0.194  1.00  0.00    -0.341 N 
HETATM   56  C22 UNL     1      18.609  -7.460   0.610  1.00  0.00     0.183 A 
HETATM   57  H5  UNL     1      18.262  -8.632  -1.055  1.00  0.00     0.167 HD
HETATM   58  N6  UNL     1      18.244  -6.867   1.766  1.00  0.00    -0.336 N 
HETATM   59  H6  UNL     1      18.855  -6.277   2.331  1.00  0.00     0.168 HD
BRANCH  53  60
HETATM   60  N7  UNL     1      15.845  -9.349  -0.653  1.00  0.00    -0.287 NA
HETATM   61  H33 UNL     1      16.147 -10.321  -0.659  1.00  0.00     0.125 HD
HETATM   62  H34 UNL     1      15.640  -8.931  -1.550  1.00  0.00     0.125 HD
ENDBRANCH  53  60
ENDBRANCH  37  48
ENDBRANCH  33  34
ENDBRANCH  32  33
ENDBRANCH  28  32
ENDBRANCH  27  28
ENDBRANCH  23  27
ENDBRANCH  22  23
ENDBRANCH  21  22
ENDBRANCH  18  21
ENDBRANCH  17  18
BRANCH  17  63
HETATM   63  O17 UNL     1      18.657  -2.268   4.407  1.00  0.00    -0.385 OA
HETATM   64  H38 UNL     1      17.872  -1.896   4.843  1.00  0.00     0.210 HD
ENDBRANCH  17  63
ENDBRANCH  14  17
ENDBRANCH  12  13
ENDBRANCH  11  12
ENDBRANCH   8  11
ENDBRANCH   6   7
ENDBRANCH   5   6
ENDBRANCH   4   5
ENDBRANCH   2   4
TORSDOF 27
ENDMDL
MODEL 19
REMARK VINA RESULT:      -3.4      8.042     13.569
REMARK  27 active torsions:
REMARK  status: ('A' for Active; 'I' for Inactive)
REMARK    1  A    between atoms: C2_2  and  S1_4 
REMARK    2  A    between atoms: S1_4  and  C3_5 
REMARK    3  A    between atoms: C3_5  and  C4_6 
REMARK    4  A    between atoms: C4_6  and  N1_7 
REMARK       I    between atoms: N1_7  and  C5_8 
REMARK    5  A    between atoms: C5_8  and  C6_10 
REMARK    6  A    between atoms: C6_10  and  C7_11 
REMARK    7  A    between atoms: C7_11  and  N2_12 
REMARK       I    between atoms: N2_12  and  C8_13 
REMARK    8  A    between atoms: C8_13  and  C9_15 
REMARK    9  A    between atoms: C9_15  and  C10_16 
REMARK   10  A    between atoms: C9_15  and  O17_54 
REMARK   11  A    between atoms: C10_16  and  C13_19 
REMARK   12  A    between atoms: C13_19  and  O4_20 
REMARK   13  A    between atoms: O4_20  and  P1_21 
REMARK   14  A    between atoms: P1_21  and  O6_23 
REMARK   15  A    between atoms: P1_21  and  O7_24 
REMARK   16  A    between atoms: O7_24  and  P2_25 
REMARK   17  A    between atoms: P2_25  and  O9_27 
REMARK   18  A    between atoms: P2_25  and  O10_28 
REMARK   19  A    between atoms: O10_28  and  C14_29 
REMARK   20  A    between atoms: C14_29  and  C15_30 
REMARK   21  A    between atoms: C16_31  and  O13_49 
REMARK   22  A    between atoms: C17_32  and  O12_48 
REMARK   23  A    between atoms: C18_33  and  N3_35 
REMARK   24  A    between atoms: C21_40  and  N7_47 
REMARK   25  A    between atoms: O13_49  and  P3_50 
REMARK   26  A    between atoms: P3_50  and  O15_52 
REMARK   27  A    between atoms: P3_50  and  O16_53 
ROOT
HETATM    1  C1  UNL     1      14.021  12.604  13.402  1.00  0.00     0.104 C 
HETATM    2  C2  UNL     1      13.250  11.899  12.328  1.00  0.00     0.182 C 
HETATM    3  O1  UNL     1      12.679  12.486  11.412  1.00  0.00    -0.286 OA
ENDROOT
BRANCH   2   4
HETATM    4  S1  UNL     1      13.191  10.151  12.507  1.00  0.00    -0.091 SA
BRANCH   4   5
HETATM    5  C3  UNL     1      11.426   9.924  12.898  1.00  0.00     0.102 C 
BRANCH   5   6
HETATM    6  C4  UNL     1      10.630   9.446  11.683  1.00  0.00     0.133 C 
BRANCH   6   7
HETATM    7  N1  UNL     1      10.302  10.522  10.770  1.00  0.00    -0.360 N 
HETATM    8  C5  UNL     1       9.899  10.277   9.478  1.00  0.00     0.219 C 
HETATM    9  O2  UNL     1       9.869   9.150   8.998  1.00  0.00    -0.274 OA
HETATM   10  H8  UNL     1      10.367  11.476  11.099  1.00  0.00     0.162 HD
BRANCH   8  11
HETATM   11  C6  UNL     1       9.552  11.534   8.710  1.00  0.00     0.122 C 
BRANCH  11  12
HETATM   12  C7  UNL     1      10.636  11.902   7.697  1.00  0.00     0.132 C 
BRANCH  12  13
HETATM   13  N2  UNL     1      11.834  11.100   7.832  1.00  0.00    -0.358 N 
HETATM   14  C8  UNL     1      12.825  11.160   6.869  1.00  0.00     0.247 C 
HETATM   15  O3  UNL     1      12.683  11.787   5.827  1.00  0.00    -0.271 OA
HETATM   16  H13 UNL     1      12.125  10.904   8.787  1.00  0.00     0.162 HD
BRANCH  14  17
HETATM   17  C9  UNL     1      14.112  10.400   7.221  1.00  0.00     0.219 C 
BRANCH  17  18
HETATM   18  C10 UNL     1      14.021   8.862   7.038  1.00  0.00     0.009 C 
HETATM   19  C11 UNL     1      13.442   8.165   8.278  1.00  0.00     0.020 C 
HETATM   20  C12 UNL     1      13.140   8.488   5.829  1.00  0.00     0.020 C 
BRANCH  18  21
HETATM   21  C13 UNL     1      15.478   8.374   6.797  1.00  0.00     0.192 C 
BRANCH  21  22
HETATM   22  O4  UNL     1      15.646   7.006   7.108  1.00  0.00    -0.296 OA
BRANCH  22  23
HETATM   23  P1  UNL     1      16.274   5.949   6.079  1.00  0.00     0.401 P 
HETATM   24  O5  UNL     1      16.068   6.300   4.639  1.00  0.00    -0.631 OA
BRANCH  23  25
HETATM   25  O6  UNL     1      15.694   4.503   6.484  1.00  0.00    -0.307 OA
HETATM   26  H23 UNL     1      14.797   4.368   6.154  1.00  0.00     0.222 HD
ENDBRANCH  23  25
BRANCH  23  27
HETATM   27  O7  UNL     1      17.797   5.805   6.516  1.00  0.00    -0.195 OA
BRANCH  27  28
HETATM   28  P2  UNL     1      18.508   4.386   6.373  1.00  0.00     0.401 P 
HETATM   29  O8  UNL     1      18.282   3.641   5.098  1.00  0.00    -0.631 OA
BRANCH  28  30
HETATM   30  O9  UNL     1      20.042   4.714   6.672  1.00  0.00    -0.307 OA
HETATM   31  H24 UNL     1      20.299   5.650   6.486  1.00  0.00     0.222 HD
ENDBRANCH  28  30
BRANCH  28  32
HETATM   32  O10 UNL     1      18.106   3.616   7.712  1.00  0.00    -0.294 OA
BRANCH  32  33
HETATM   33  C14 UNL     1      19.067   2.865   8.407  1.00  0.00     0.215 C 
BRANCH  33  34
HETATM   34  C15 UNL     1      18.384   1.557   8.801  1.00  0.00     0.180 C 
HETATM   35  C16 UNL     1      17.671   0.964   7.593  1.00  0.00     0.197 C 
HETATM   36  C17 UNL     1      16.205   0.944   7.984  1.00  0.00     0.199 C 
HETATM   37  C18 UNL     1      16.279   0.893   9.512  1.00  0.00     0.262 C 
HETATM   38  O11 UNL     1      17.414   1.724   9.841  1.00  0.00    -0.353 OA
BRANCH  35  39
HETATM   39  O13 UNL     1      18.186  -0.346   7.375  1.00  0.00    -0.286 OA
BRANCH  39  40
HETATM   40  P3  UNL     1      18.957  -0.561   5.992  1.00  0.00     0.391 P 
HETATM   41  O14 UNL     1      20.380  -0.989   6.155  1.00  0.00    -0.632 OA
BRANCH  40  42
HETATM   42  O15 UNL     1      18.684   0.842   5.275  1.00  0.00    -0.307 OA
HETATM   43  H36 UNL     1      18.447   0.709   4.326  1.00  0.00     0.222 HD
ENDBRANCH  40  42
BRANCH  40  44
HETATM   44  O16 UNL     1      17.972  -1.553   5.233  1.00  0.00    -0.307 OA
HETATM   45  H37 UNL     1      17.273  -1.903   5.809  1.00  0.00     0.222 HD
ENDBRANCH  40  44
ENDBRANCH  39  40
ENDBRANCH  35  39
BRANCH  36  46
HETATM   46  O12 UNL     1      15.530  -0.130   7.323  1.00  0.00    -0.388 OA
HETATM   47  H35 UNL     1      15.101  -0.667   8.032  1.00  0.00     0.210 HD
ENDBRANCH  36  46
BRANCH  37  48
HETATM   48  N3  UNL     1      15.098   1.446  10.144  1.00  0.00    -0.297 N 
HETATM   49  C19 UNL     1      14.176   0.774  10.913  1.00  0.00     0.188 A 
HETATM   50  N4  UNL     1      13.288   1.584  11.448  1.00  0.00    -0.346 N 
HETATM   51  C20 UNL     1      13.656   2.844  11.008  1.00  0.00     0.116 A 
HETATM   52  H4  UNL     1      12.504   1.339  12.052  1.00  0.00     0.167 HD
HETATM   53  C21 UNL     1      13.141   4.128  11.258  1.00  0.00     0.109 A 
HETATM   54  C23 UNL     1      14.752   2.768  10.168  1.00  0.00     0.142 A 
HETATM   55  N5  UNL     1      13.729   5.191  10.656  1.00  0.00    -0.341 N 
HETATM   56  C22 UNL     1      14.778   4.963   9.841  1.00  0.00     0.183 A 
HETATM   57  H5  UNL     1      13.386   6.138  10.816  1.00  0.00     0.167 HD
HETATM   58  N6  UNL     1      15.361   3.786   9.535  1.00  0.00    -0.336 N 
HETATM   59  H6  UNL     1      16.158   3.681   8.906  1.00  0.00     0.168 HD
BRANCH  53  60
HETATM   60  N7  UNL     1      12.054   4.366  12.083  1.00  0.00    -0.287 NA
HETATM   61  H33 UNL     1      12.298   4.566  13.051  1.00  0.00     0.125 HD
HETATM   62  H34 UNL     1      11.293   3.718  11.930  1.00  0.00     0.125 HD
ENDBRANCH  53  60
ENDBRANCH  37  48
ENDBRANCH  33  34
ENDBRANCH  32  33
ENDBRANCH  28  32
ENDBRANCH  27  28
ENDBRANCH  23  27
ENDBRANCH  22  23
ENDBRANCH  21  22
ENDBRANCH  18  21
ENDBRANCH  17  18
BRANCH  17  63
HETATM   63  O17 UNL     1      15.204  10.887   6.433  1.00  0.00    -0.385 OA
HETATM   64  H38 UNL     1      15.850  11.297   7.032  1.00  0.00     0.210 HD
ENDBRANCH  17  63
ENDBRANCH  14  17
ENDBRANCH  12  13
ENDBRANCH  11  12
ENDBRANCH   8  11
ENDBRANCH   6   7
ENDBRANCH   5   6
ENDBRANCH   4   5
ENDBRANCH   2   4
TORSDOF 27
ENDMDL
MODEL 20
REMARK VINA RESULT:      -3.2      8.416     13.464
REMARK  27 active torsions:
REMARK  status: ('A' for Active; 'I' for Inactive)
REMARK    1  A    between atoms: C2_2  and  S1_4 
REMARK    2  A    between atoms: S1_4  and  C3_5 
REMARK    3  A    between atoms: C3_5  and  C4_6 
REMARK    4  A    between atoms: C4_6  and  N1_7 
REMARK       I    between atoms: N1_7  and  C5_8 
REMARK    5  A    between atoms: C5_8  and  C6_10 
REMARK    6  A    between atoms: C6_10  and  C7_11 
REMARK    7  A    between atoms: C7_11  and  N2_12 
REMARK       I    between atoms: N2_12  and  C8_13 
REMARK    8  A    between atoms: C8_13  and  C9_15 
REMARK    9  A    between atoms: C9_15  and  C10_16 
REMARK   10  A    between atoms: C9_15  and  O17_54 
REMARK   11  A    between atoms: C10_16  and  C13_19 
REMARK   12  A    between atoms: C13_19  and  O4_20 
REMARK   13  A    between atoms: O4_20  and  P1_21 
REMARK   14  A    between atoms: P1_21  and  O6_23 
REMARK   15  A    between atoms: P1_21  and  O7_24 
REMARK   16  A    between atoms: O7_24  and  P2_25 
REMARK   17  A    between atoms: P2_25  and  O9_27 
REMARK   18  A    between atoms: P2_25  and  O10_28 
REMARK   19  A    between atoms: O10_28  and  C14_29 
REMARK   20  A    between atoms: C14_29  and  C15_30 
REMARK   21  A    between atoms: C16_31  and  O13_49 
REMARK   22  A    between atoms: C17_32  and  O12_48 
REMARK   23  A    between atoms: C18_33  and  N3_35 
REMARK   24  A    between atoms: C21_40  and  N7_47 
REMARK   25  A    between atoms: O13_49  and  P3_50 
REMARK   26  A    between atoms: P3_50  and  O15_52 
REMARK   27  A    between atoms: P3_50  and  O16_53 
ROOT
HETATM    1  C1  UNL     1      12.108   9.922  11.810  1.00  0.00     0.104 C 
HETATM    2  C2  UNL     1      10.613   9.815  11.823  1.00  0.00     0.182 C 
HETATM    3  O1  UNL     1      10.014   8.743  11.800  1.00  0.00    -0.286 OA
ENDROOT
BRANCH   2   4
HETATM    4  S1  UNL     1       9.775  11.361  11.835  1.00  0.00    -0.091 SA
BRANCH   4   5
HETATM    5  C3  UNL     1       8.840  11.234  10.276  1.00  0.00     0.102 C 
BRANCH   5   6
HETATM    6  C4  UNL     1       9.332  12.240   9.234  1.00  0.00     0.133 C 
BRANCH   6   7
HETATM    7  N1  UNL     1      10.175  11.633   8.224  1.00  0.00    -0.360 N 
HETATM    8  C5  UNL     1      11.527  11.878   8.167  1.00  0.00     0.219 C 
HETATM    9  O2  UNL     1      12.084  12.680   8.907  1.00  0.00    -0.274 OA
HETATM   10  H8  UNL     1       9.753  11.007   7.551  1.00  0.00     0.162 HD
BRANCH   8  11
HETATM   11  C6  UNL     1      12.231  11.103   7.074  1.00  0.00     0.122 C 
BRANCH  11  12
HETATM   12  C7  UNL     1      11.974   9.601   7.184  1.00  0.00     0.132 C 
BRANCH  12  13
HETATM   13  N2  UNL     1      13.165   8.844   7.511  1.00  0.00    -0.358 N 
HETATM   14  C8  UNL     1      13.828   8.129   6.531  1.00  0.00     0.247 C 
HETATM   15  O3  UNL     1      13.380   8.010   5.397  1.00  0.00    -0.271 OA
HETATM   16  H13 UNL     1      13.726   9.219   8.274  1.00  0.00     0.162 HD
BRANCH  14  17
HETATM   17  C9  UNL     1      15.167   7.521   6.971  1.00  0.00     0.219 C 
BRANCH  17  18
HETATM   18  C10 UNL     1      16.364   8.508   6.936  1.00  0.00     0.009 C 
HETATM   19  C11 UNL     1      16.250   9.514   5.781  1.00  0.00     0.020 C 
HETATM   20  C12 UNL     1      16.479   9.305   8.251  1.00  0.00     0.020 C 
BRANCH  18  21
HETATM   21  C13 UNL     1      17.634   7.631   6.741  1.00  0.00     0.192 C 
BRANCH  21  22
HETATM   22  O4  UNL     1      17.849   6.746   7.822  1.00  0.00    -0.296 OA
BRANCH  22  23
HETATM   23  P1  UNL     1      18.097   5.174   7.624  1.00  0.00     0.401 P 
HETATM   24  O5  UNL     1      19.537   4.772   7.670  1.00  0.00    -0.631 OA
BRANCH  23  25
HETATM   25  O6  UNL     1      17.348   4.752   6.263  1.00  0.00    -0.307 OA
HETATM   26  H23 UNL     1      17.823   5.057   5.479  1.00  0.00     0.222 HD
ENDBRANCH  23  25
BRANCH  23  27
HETATM   27  O7  UNL     1      17.176   4.473   8.715  1.00  0.00    -0.195 OA
BRANCH  27  28
HETATM   28  P2  UNL     1      16.909   2.906   8.604  1.00  0.00     0.401 P 
HETATM   29  O8  UNL     1      16.016   2.448   7.497  1.00  0.00    -0.631 OA
BRANCH  28  30
HETATM   30  O9  UNL     1      18.379   2.286   8.554  1.00  0.00    -0.307 OA
HETATM   31  H24 UNL     1      18.475   1.433   9.043  1.00  0.00     0.222 HD
ENDBRANCH  28  30
BRANCH  28  32
HETATM   32  O10 UNL     1      16.463   2.485  10.079  1.00  0.00    -0.294 OA
BRANCH  32  33
HETATM   33  C14 UNL     1      17.042   1.364  10.695  1.00  0.00     0.215 C 
BRANCH  33  34
HETATM   34  C15 UNL     1      15.904   0.632  11.404  1.00  0.00     0.180 C 
HETATM   35  C16 UNL     1      14.945   0.049  10.375  1.00  0.00     0.197 C 
HETATM   36  C17 UNL     1      13.624   0.747  10.641  1.00  0.00     0.199 C 
HETATM   37  C18 UNL     1      13.754   1.132  12.116  1.00  0.00     0.262 C 
HETATM   38  O11 UNL     1      15.147   1.484  12.272  1.00  0.00    -0.353 OA
BRANCH  35  39
HETATM   39  O13 UNL     1      14.864  -1.355  10.594  1.00  0.00    -0.286 OA
BRANCH  39  40
HETATM   40  P3  UNL     1      15.362  -2.272   9.382  1.00  0.00     0.391 P 
HETATM   41  O14 UNL     1      16.727  -1.921   8.884  1.00  0.00    -0.632 OA
BRANCH  40  42
HETATM   42  O15 UNL     1      14.139  -2.114   8.364  1.00  0.00    -0.307 OA
HETATM   43  H36 UNL     1      14.151  -2.833   7.689  1.00  0.00     0.222 HD
ENDBRANCH  40  42
BRANCH  40  44
HETATM   44  O16 UNL     1      15.149  -3.729   9.981  1.00  0.00    -0.307 OA
HETATM   45  H37 UNL     1      15.129  -3.739  10.951  1.00  0.00     0.222 HD
ENDBRANCH  40  44
ENDBRANCH  39  40
ENDBRANCH  35  39
BRANCH  36  46
HETATM   46  O12 UNL     1      12.533  -0.103  10.277  1.00  0.00    -0.388 OA
HETATM   47  H35 UNL     1      12.499  -0.105   9.291  1.00  0.00     0.210 HD
ENDBRANCH  36  46
BRANCH  37  48
HETATM   48  N3  UNL     1      12.941   2.279  12.465  1.00  0.00    -0.297 N 
HETATM   49  C19 UNL     1      11.805   2.288  13.241  1.00  0.00     0.188 A 
HETATM   50  N4  UNL     1      11.372   3.508  13.476  1.00  0.00    -0.346 N 
HETATM   51  C20 UNL     1      12.273   4.330  12.824  1.00  0.00     0.116 A 
HETATM   52  H4  UNL     1      10.554   3.785  14.018  1.00  0.00     0.167 HD
HETATM   53  C21 UNL     1      12.390   5.728  12.727  1.00  0.00     0.109 A 
HETATM   54  C23 UNL     1      13.228   3.581  12.161  1.00  0.00     0.142 A 
HETATM   55  N5  UNL     1      13.402   6.244  11.987  1.00  0.00    -0.341 N 
HETATM   56  C22 UNL     1      14.246   5.390  11.375  1.00  0.00     0.183 A 
HETATM   57  H5  UNL     1      13.521   7.253  11.896  1.00  0.00     0.167 HD
HETATM   58  N6  UNL     1      14.239   4.041  11.403  1.00  0.00    -0.336 N 
HETATM   59  H6  UNL     1      14.911   3.449  10.915  1.00  0.00     0.168 HD
BRANCH  53  60
HETATM   60  N7  UNL     1      11.516   6.610  13.341  1.00  0.00    -0.287 NA
HETATM   61  H33 UNL     1      10.569   6.254  13.450  1.00  0.00     0.125 HD
HETATM   62  H34 UNL     1      11.611   7.559  13.003  1.00  0.00     0.125 HD
ENDBRANCH  53  60
ENDBRANCH  37  48
ENDBRANCH  33  34
ENDBRANCH  32  33
ENDBRANCH  28  32
ENDBRANCH  27  28
ENDBRANCH  23  27
ENDBRANCH  22  23
ENDBRANCH  21  22
ENDBRANCH  18  21
ENDBRANCH  17  18
BRANCH  17  63
HETATM   63  O17 UNL     1      15.056   6.990   8.296  1.00  0.00    -0.385 OA
HETATM   64  H38 UNL     1      15.933   6.674   8.570  1.00  0.00     0.210 HD
ENDBRANCH  17  63
ENDBRANCH  14  17
ENDBRANCH  12  13
ENDBRANCH  11  12
ENDBRANCH   8  11
ENDBRANCH   6   7
ENDBRANCH   5   6
ENDBRANCH   4   5
ENDBRANCH   2   4
TORSDOF 27
ENDMDL
