MODEL 1
REMARK VINA RESULT:      -4.8      0.000      0.000
REMARK  2 active torsions:
REMARK  status: ('A' for Active; 'I' for Inactive)
REMARK    1  A    between atoms: C3_3  and  O1_8 
REMARK    2  A    between atoms: C6_6  and  N1_7 
ROOT
HETATM    1  C1  UNL     1       3.188  -2.868 -12.916  1.00  0.00     0.026 A 
HETATM    2  C2  UNL     1       4.303  -2.848 -13.758  1.00  0.00     0.038 A 
HETATM    3  C3  UNL     1       5.532  -3.281 -13.281  1.00  0.00     0.065 A 
HETATM    4  C4  UNL     1       5.661  -3.750 -11.979  1.00  0.00     0.038 A 
HETATM    5  C5  UNL     1       4.541  -3.765 -11.142  1.00  0.00     0.026 A 
HETATM    6  C6  UNL     1       3.308  -3.278 -11.585  1.00  0.00     0.005 A 
ENDROOT
BRANCH   6   7
HETATM    7  N1  UNL     1       2.169  -3.408 -10.782  1.00  0.00    -0.303 NA
HETATM    8  H5  UNL     1       1.853  -2.532 -10.378  1.00  0.00     0.124 HD
HETATM    9  H6  UNL     1       2.235  -4.149 -10.093  1.00  0.00     0.124 HD
ENDBRANCH   6   7
BRANCH   3  10
HETATM   10  O1  UNL     1       6.595  -3.249 -14.134  1.00  0.00    -0.361 OA
HETATM   11  H7  UNL     1       6.777  -4.153 -14.436  1.00  0.00     0.217 HD
ENDBRANCH   3  10
TORSDOF 2
ENDMDL
MODEL 2
REMARK VINA RESULT:      -4.7      2.719      3.473
REMARK  2 active torsions:
REMARK  status: ('A' for Active; 'I' for Inactive)
REMARK    1  A    between atoms: C3_3  and  O1_8 
REMARK    2  A    between atoms: C6_6  and  N1_7 
ROOT
HETATM    1  C1  UNL     1       6.139  -2.754 -12.745  1.00  0.00     0.026 A 
HETATM    2  C2  UNL     1       5.648  -3.650 -11.791  1.00  0.00     0.038 A 
HETATM    3  C3  UNL     1       4.297  -3.645 -11.474  1.00  0.00     0.065 A 
HETATM    4  C4  UNL     1       3.424  -2.768 -12.109  1.00  0.00     0.038 A 
HETATM    5  C5  UNL     1       3.923  -1.874 -13.061  1.00  0.00     0.026 A 
HETATM    6  C6  UNL     1       5.290  -1.823 -13.351  1.00  0.00     0.005 A 
ENDROOT
BRANCH   6   7
HETATM    7  N1  UNL     1       5.761  -1.010 -14.388  1.00  0.00    -0.303 NA
HETATM    8  H5  UNL     1       5.092  -0.882 -15.141  1.00  0.00     0.124 HD
HETATM    9  H6  UNL     1       6.680  -1.271 -14.729  1.00  0.00     0.124 HD
ENDBRANCH   6   7
BRANCH   3  10
HETATM   10  O1  UNL     1       3.857  -4.535 -10.541  1.00  0.00    -0.361 OA
HETATM   11  H7  UNL     1       4.202  -4.271  -9.673  1.00  0.00     0.217 HD
ENDBRANCH   3  10
TORSDOF 2
ENDMDL
MODEL 3
REMARK VINA RESULT:      -4.6     15.543     16.305
REMARK  2 active torsions:
REMARK  status: ('A' for Active; 'I' for Inactive)
REMARK    1  A    between atoms: C3_3  and  O1_8 
REMARK    2  A    between atoms: C6_6  and  N1_7 
ROOT
HETATM    1  C1  UNL     1      20.024   3.758  -9.635  1.00  0.00     0.026 A 
HETATM    2  C2  UNL     1      19.545   4.391 -10.784  1.00  0.00     0.038 A 
HETATM    3  C3  UNL     1      18.572   3.772 -11.555  1.00  0.00     0.065 A 
HETATM    4  C4  UNL     1      18.058   2.534 -11.186  1.00  0.00     0.038 A 
HETATM    5  C5  UNL     1      18.544   1.906 -10.035  1.00  0.00     0.026 A 
HETATM    6  C6  UNL     1      19.565   2.487  -9.277  1.00  0.00     0.005 A 
ENDROOT
BRANCH   6   7
HETATM    7  N1  UNL     1      19.960   1.909  -8.065  1.00  0.00    -0.303 NA
HETATM    8  H5  UNL     1      19.804   0.907  -8.021  1.00  0.00     0.124 HD
HETATM    9  H6  UNL     1      19.606   2.392  -7.246  1.00  0.00     0.124 HD
ENDBRANCH   6   7
BRANCH   3  10
HETATM   10  O1  UNL     1      18.128   4.423 -12.667  1.00  0.00    -0.361 OA
HETATM   11  H7  UNL     1      17.707   3.777 -13.256  1.00  0.00     0.217 HD
ENDBRANCH   3  10
TORSDOF 2
ENDMDL
MODEL 4
REMARK VINA RESULT:      -4.6     15.858     16.652
REMARK  2 active torsions:
REMARK  status: ('A' for Active; 'I' for Inactive)
REMARK    1  A    between atoms: C3_3  and  O1_8 
REMARK    2  A    between atoms: C6_6  and  N1_7 
ROOT
HETATM    1  C1  UNL     1      20.016   4.503 -10.388  1.00  0.00     0.026 A 
HETATM    2  C2  UNL     1      20.056   3.524  -9.393  1.00  0.00     0.038 A 
HETATM    3  C3  UNL     1      19.232   2.411  -9.489  1.00  0.00     0.065 A 
HETATM    4  C4  UNL     1      18.378   2.255 -10.576  1.00  0.00     0.038 A 
HETATM    5  C5  UNL     1      18.342   3.240 -11.567  1.00  0.00     0.026 A 
HETATM    6  C6  UNL     1      19.122   4.396 -11.458  1.00  0.00     0.005 A 
ENDROOT
BRANCH   6   7
HETATM    7  N1  UNL     1      19.169   5.316 -12.511  1.00  0.00    -0.303 NA
HETATM    8  H5  UNL     1      19.704   6.153 -12.298  1.00  0.00     0.124 HD
HETATM    9  H6  UNL     1      18.261   5.530 -12.909  1.00  0.00     0.124 HD
ENDBRANCH   6   7
BRANCH   3  10
HETATM   10  O1  UNL     1      19.302   1.477  -8.500  1.00  0.00    -0.361 OA
HETATM   11  H7  UNL     1      19.994   1.741  -7.873  1.00  0.00     0.217 HD
ENDBRANCH   3  10
TORSDOF 2
ENDMDL
MODEL 5
REMARK VINA RESULT:      -4.5     33.663     34.689
REMARK  2 active torsions:
REMARK  status: ('A' for Active; 'I' for Inactive)
REMARK    1  A    between atoms: C3_3  and  O1_8 
REMARK    2  A    between atoms: C6_6  and  N1_7 
ROOT
HETATM    1  C1  UNL     1     -19.669  -6.795  11.356  1.00  0.00     0.026 A 
HETATM    2  C2  UNL     1     -20.341  -6.960  12.569  1.00  0.00     0.038 A 
HETATM    3  C3  UNL     1     -20.066  -8.065  13.363  1.00  0.00     0.065 A 
HETATM    4  C4  UNL     1     -19.115  -9.000  12.969  1.00  0.00     0.038 A 
HETATM    5  C5  UNL     1     -18.448  -8.829  11.753  1.00  0.00     0.026 A 
HETATM    6  C6  UNL     1     -18.753  -7.754  10.912  1.00  0.00     0.005 A 
ENDROOT
BRANCH   6   7
HETATM    7  N1  UNL     1     -17.997  -7.526   9.756  1.00  0.00    -0.303 NA
HETATM    8  H5  UNL     1     -17.001  -7.440   9.931  1.00  0.00     0.124 HD
HETATM    9  H6  UNL     1     -18.354  -6.775   9.174  1.00  0.00     0.124 HD
ENDBRANCH   6   7
BRANCH   3  10
HETATM   10  O1  UNL     1     -20.741  -8.189  14.540  1.00  0.00    -0.361 OA
HETATM   11  H7  UNL     1     -20.307  -7.631  15.206  1.00  0.00     0.217 HD
ENDBRANCH   3  10
TORSDOF 2
ENDMDL
MODEL 6
REMARK VINA RESULT:      -4.5     33.474     34.476
REMARK  2 active torsions:
REMARK  status: ('A' for Active; 'I' for Inactive)
REMARK    1  A    between atoms: C3_3  and  O1_8 
REMARK    2  A    between atoms: C6_6  and  N1_7 
ROOT
HETATM    1  C1  UNL     1     -20.341  -6.922  12.352  1.00  0.00     0.026 A 
HETATM    2  C2  UNL     1     -19.577  -6.803  11.189  1.00  0.00     0.038 A 
HETATM    3  C3  UNL     1     -18.627  -7.769  10.888  1.00  0.00     0.065 A 
HETATM    4  C4  UNL     1     -18.440  -8.863  11.727  1.00  0.00     0.038 A 
HETATM    5  C5  UNL     1     -19.207  -8.973  12.890  1.00  0.00     0.026 A 
HETATM    6  C6  UNL     1     -20.127  -7.980  13.240  1.00  0.00     0.005 A 
ENDROOT
BRANCH   6   7
HETATM    7  N1  UNL     1     -20.972  -8.159  14.341  1.00  0.00    -0.303 NA
HETATM    8  H5  UNL     1     -21.670  -8.885  14.206  1.00  0.00     0.124 HD
HETATM    9  H6  UNL     1     -21.375  -7.297  14.694  1.00  0.00     0.124 HD
ENDBRANCH   6   7
BRANCH   3  10
HETATM   10  O1  UNL     1     -17.905  -7.620   9.743  1.00  0.00    -0.361 OA
HETATM   11  H7  UNL     1     -18.303  -8.172   9.051  1.00  0.00     0.217 HD
ENDBRANCH   3  10
TORSDOF 2
ENDMDL
MODEL 7
REMARK VINA RESULT:      -4.4     34.037     34.328
REMARK  2 active torsions:
REMARK  status: ('A' for Active; 'I' for Inactive)
REMARK    1  A    between atoms: C3_3  and  O1_8 
REMARK    2  A    between atoms: C6_6  and  N1_7 
ROOT
HETATM    1  C1  UNL     1     -18.587  -8.912  11.765  1.00  0.00     0.026 A 
HETATM    2  C2  UNL     1     -17.773  -9.415  12.783  1.00  0.00     0.038 A 
HETATM    3  C3  UNL     1     -17.377  -8.583  13.821  1.00  0.00     0.065 A 
HETATM    4  C4  UNL     1     -17.797  -7.259  13.866  1.00  0.00     0.038 A 
HETATM    5  C5  UNL     1     -18.611  -6.762  12.843  1.00  0.00     0.026 A 
HETATM    6  C6  UNL     1     -18.972  -7.568  11.759  1.00  0.00     0.005 A 
ENDROOT
BRANCH   6   7
HETATM    7  N1  UNL     1     -19.881  -7.099  10.804  1.00  0.00    -0.303 NA
HETATM    8  H5  UNL     1     -19.499  -7.051   9.865  1.00  0.00     0.124 HD
HETATM    9  H6  UNL     1     -20.353  -6.243  11.073  1.00  0.00     0.124 HD
ENDBRANCH   6   7
BRANCH   3  10
HETATM   10  O1  UNL     1     -16.586  -9.112  14.796  1.00  0.00    -0.361 OA
HETATM   11  H7  UNL     1     -16.671  -8.566  15.594  1.00  0.00     0.217 HD
ENDBRANCH   3  10
TORSDOF 2
ENDMDL
MODEL 8
REMARK VINA RESULT:      -4.4      6.937      7.136
REMARK  2 active torsions:
REMARK  status: ('A' for Active; 'I' for Inactive)
REMARK    1  A    between atoms: C3_3  and  O1_8 
REMARK    2  A    between atoms: C6_6  and  N1_7 
ROOT
HETATM    1  C1  UNL     1       6.735   1.827 -10.841  1.00  0.00     0.026 A 
HETATM    2  C2  UNL     1       7.025   2.306 -12.120  1.00  0.00     0.038 A 
HETATM    3  C3  UNL     1       8.150   3.093 -12.322  1.00  0.00     0.065 A 
HETATM    4  C4  UNL     1       9.000   3.397 -11.264  1.00  0.00     0.038 A 
HETATM    5  C5  UNL     1       8.703   2.915  -9.986  1.00  0.00     0.026 A 
HETATM    6  C6  UNL     1       7.543   2.170  -9.752  1.00  0.00     0.005 A 
ENDROOT
BRANCH   6   7
HETATM    7  N1  UNL     1       7.317   1.593  -8.497  1.00  0.00    -0.303 NA
HETATM    8  H5  UNL     1       8.097   1.694  -7.855  1.00  0.00     0.124 HD
HETATM    9  H6  UNL     1       6.972   0.640  -8.539  1.00  0.00     0.124 HD
ENDBRANCH   6   7
BRANCH   3  10
HETATM   10  O1  UNL     1       8.399   3.538 -13.585  1.00  0.00    -0.361 OA
HETATM   11  H7  UNL     1       7.632   3.334 -14.143  1.00  0.00     0.217 HD
ENDBRANCH   3  10
TORSDOF 2
ENDMDL
MODEL 9
REMARK VINA RESULT:      -4.3      8.098      8.301
REMARK  2 active torsions:
REMARK  status: ('A' for Active; 'I' for Inactive)
REMARK    1  A    between atoms: C3_3  and  O1_8 
REMARK    2  A    between atoms: C6_6  and  N1_7 
ROOT
HETATM    1  C1  UNL     1       6.967   2.524 -10.870  1.00  0.00     0.026 A 
HETATM    2  C2  UNL     1       5.786   2.900 -10.224  1.00  0.00     0.038 A 
HETATM    3  C3  UNL     1       5.847   3.684  -9.081  1.00  0.00     0.065 A 
HETATM    4  C4  UNL     1       7.071   4.114  -8.582  1.00  0.00     0.038 A 
HETATM    5  C5  UNL     1       8.249   3.733  -9.232  1.00  0.00     0.026 A 
HETATM    6  C6  UNL     1       8.211   2.895 -10.351  1.00  0.00     0.005 A 
ENDROOT
BRANCH   6   7
HETATM    7  N1  UNL     1       9.383   2.618 -11.064  1.00  0.00    -0.303 NA
HETATM    8  H5  UNL     1       9.376   2.974 -12.015  1.00  0.00     0.124 HD
HETATM    9  H6  UNL     1       9.672   1.646 -11.018  1.00  0.00     0.124 HD
ENDBRANCH   6   7
BRANCH   3  10
HETATM   10  O1  UNL     1       4.673   4.031  -8.482  1.00  0.00    -0.361 OA
HETATM   11  H7  UNL     1       4.486   4.962  -8.683  1.00  0.00     0.217 HD
ENDBRANCH   3  10
TORSDOF 2
ENDMDL
