MODEL 1
REMARK VINA RESULT:      -4.6      0.000      0.000
REMARK  2 active torsions:
REMARK  status: ('A' for Active; 'I' for Inactive)
REMARK    1  A    between atoms: C3_3  and  O1_8 
REMARK    2  A    between atoms: C6_6  and  N1_7 
ROOT
HETATM    1  C1  UNL     1       1.523   0.330 -16.958  1.00  0.00     0.026 A 
HETATM    2  C2  UNL     1       1.908   1.303 -16.033  1.00  0.00     0.038 A 
HETATM    3  C3  UNL     1       1.808   2.646 -16.366  1.00  0.00     0.065 A 
HETATM    4  C4  UNL     1       1.314   3.033 -17.606  1.00  0.00     0.038 A 
HETATM    5  C5  UNL     1       0.933   2.054 -18.528  1.00  0.00     0.026 A 
HETATM    6  C6  UNL     1       1.080   0.695 -18.233  1.00  0.00     0.005 A 
ENDROOT
BRANCH   6   7
HETATM    7  N1  UNL     1       0.586  -0.275 -19.113  1.00  0.00    -0.303 NA
HETATM    8  H5  UNL     1       0.369  -1.160 -18.664  1.00  0.00     0.124 HD
HETATM    9  H6  UNL     1       1.146  -0.394 -19.950  1.00  0.00     0.124 HD
ENDBRANCH   6   7
BRANCH   3  10
HETATM   10  O1  UNL     1       2.191   3.565 -15.435  1.00  0.00    -0.361 OA
HETATM   11  H7  UNL     1       1.567   3.531 -14.692  1.00  0.00     0.217 HD
ENDBRANCH   3  10
TORSDOF 2
ENDMDL
MODEL 2
REMARK VINA RESULT:      -4.5      2.780      3.264
REMARK  2 active torsions:
REMARK  status: ('A' for Active; 'I' for Inactive)
REMARK    1  A    between atoms: C3_3  and  O1_8 
REMARK    2  A    between atoms: C6_6  and  N1_7 
ROOT
HETATM    1  C1  UNL     1       1.894   1.136 -16.132  1.00  0.00     0.026 A 
HETATM    2  C2  UNL     1       1.496   0.217 -17.105  1.00  0.00     0.038 A 
HETATM    3  C3  UNL     1       1.002   0.673 -18.319  1.00  0.00     0.065 A 
HETATM    4  C4  UNL     1       0.916   2.035 -18.582  1.00  0.00     0.038 A 
HETATM    5  C5  UNL     1       1.315   2.949 -17.602  1.00  0.00     0.026 A 
HETATM    6  C6  UNL     1       1.760   2.510 -16.351  1.00  0.00     0.005 A 
ENDROOT
BRANCH   6   7
HETATM    7  N1  UNL     1       2.268   3.426 -15.423  1.00  0.00    -0.303 NA
HETATM    8  H5  UNL     1       3.050   3.971 -15.774  1.00  0.00     0.124 HD
HETATM    9  H6  UNL     1       2.457   3.024 -14.511  1.00  0.00     0.124 HD
ENDBRANCH   6   7
BRANCH   3  10
HETATM   10  O1  UNL     1       0.627  -0.255 -19.244  1.00  0.00    -0.361 OA
HETATM   11  H7  UNL     1       0.033   0.169 -19.885  1.00  0.00     0.217 HD
ENDBRANCH   3  10
TORSDOF 2
ENDMDL
MODEL 3
REMARK VINA RESULT:      -4.4     16.688     17.054
REMARK  2 active torsions:
REMARK  status: ('A' for Active; 'I' for Inactive)
REMARK    1  A    between atoms: C3_3  and  O1_8 
REMARK    2  A    between atoms: C6_6  and  N1_7 
ROOT
HETATM    1  C1  UNL     1      -5.137  -2.556  -1.746  1.00  0.00     0.026 A 
HETATM    2  C2  UNL     1      -5.984  -1.658  -2.400  1.00  0.00     0.038 A 
HETATM    3  C3  UNL     1      -5.614  -0.325  -2.517  1.00  0.00     0.065 A 
HETATM    4  C4  UNL     1      -4.402   0.121  -2.003  1.00  0.00     0.038 A 
HETATM    5  C5  UNL     1      -3.560  -0.783  -1.349  1.00  0.00     0.026 A 
HETATM    6  C6  UNL     1      -3.942  -2.117  -1.169  1.00  0.00     0.005 A 
ENDROOT
BRANCH   6   7
HETATM    7  N1  UNL     1      -3.044  -3.039  -0.619  1.00  0.00    -0.303 NA
HETATM    8  H5  UNL     1      -2.212  -3.184  -1.183  1.00  0.00     0.124 HD
HETATM    9  H6  UNL     1      -3.475  -3.912  -0.335  1.00  0.00     0.124 HD
ENDBRANCH   6   7
BRANCH   3  10
HETATM   10  O1  UNL     1      -6.466   0.519  -3.165  1.00  0.00    -0.361 OA
HETATM   11  H7  UNL     1      -6.914   0.025  -3.870  1.00  0.00     0.217 HD
ENDBRANCH   3  10
TORSDOF 2
ENDMDL
MODEL 4
REMARK VINA RESULT:      -4.4      6.448      7.104
REMARK  2 active torsions:
REMARK  status: ('A' for Active; 'I' for Inactive)
REMARK    1  A    between atoms: C3_3  and  O1_8 
REMARK    2  A    between atoms: C6_6  and  N1_7 
ROOT
HETATM    1  C1  UNL     1      -4.143  -3.856 -18.214  1.00  0.00     0.026 A 
HETATM    2  C2  UNL     1      -2.763  -3.908 -18.004  1.00  0.00     0.038 A 
HETATM    3  C3  UNL     1      -2.159  -2.981 -17.167  1.00  0.00     0.065 A 
HETATM    4  C4  UNL     1      -2.917  -2.009 -16.523  1.00  0.00     0.038 A 
HETATM    5  C5  UNL     1      -4.298  -1.961 -16.740  1.00  0.00     0.026 A 
HETATM    6  C6  UNL     1      -4.916  -2.851 -17.625  1.00  0.00     0.005 A 
ENDROOT
BRANCH   6   7
HETATM    7  N1  UNL     1      -6.310  -2.872 -17.744  1.00  0.00    -0.303 NA
HETATM    8  H5  UNL     1      -6.640  -3.320 -18.593  1.00  0.00     0.124 HD
HETATM    9  H6  UNL     1      -6.749  -1.971 -17.586  1.00  0.00     0.124 HD
ENDBRANCH   6   7
BRANCH   3  10
HETATM   10  O1  UNL     1      -0.812  -3.067 -16.985  1.00  0.00    -0.361 OA
HETATM   11  H7  UNL     1      -0.558  -2.472 -16.261  1.00  0.00     0.217 HD
ENDBRANCH   3  10
TORSDOF 2
ENDMDL
MODEL 5
REMARK VINA RESULT:      -4.4      6.696      7.399
REMARK  2 active torsions:
REMARK  status: ('A' for Active; 'I' for Inactive)
REMARK    1  A    between atoms: C3_3  and  O1_8 
REMARK    2  A    between atoms: C6_6  and  N1_7 
ROOT
HETATM    1  C1  UNL     1      -2.875  -3.931 -18.057  1.00  0.00     0.026 A 
HETATM    2  C2  UNL     1      -4.260  -3.861 -18.222  1.00  0.00     0.038 A 
HETATM    3  C3  UNL     1      -4.983  -2.879 -17.561  1.00  0.00     0.065 A 
HETATM    4  C4  UNL     1      -4.339  -1.952 -16.748  1.00  0.00     0.038 A 
HETATM    5  C5  UNL     1      -2.953  -2.029 -16.586  1.00  0.00     0.026 A 
HETATM    6  C6  UNL     1      -2.214  -3.047 -17.197  1.00  0.00     0.005 A 
ENDROOT
BRANCH   6   7
HETATM    7  N1  UNL     1      -0.817  -3.044 -17.126  1.00  0.00    -0.303 NA
HETATM    8  H5  UNL     1      -0.408  -2.116 -17.173  1.00  0.00     0.124 HD
HETATM    9  H6  UNL     1      -0.372  -3.695 -17.765  1.00  0.00     0.124 HD
ENDBRANCH   6   7
BRANCH   3  10
HETATM   10  O1  UNL     1      -6.332  -2.843 -17.750  1.00  0.00    -0.361 OA
HETATM   11  H7  UNL     1      -6.543  -3.319 -18.569  1.00  0.00     0.217 HD
ENDBRANCH   3  10
TORSDOF 2
ENDMDL
MODEL 6
REMARK VINA RESULT:      -4.4      6.038      6.709
REMARK  2 active torsions:
REMARK  status: ('A' for Active; 'I' for Inactive)
REMARK    1  A    between atoms: C3_3  and  O1_8 
REMARK    2  A    between atoms: C6_6  and  N1_7 
ROOT
HETATM    1  C1  UNL     1      -1.854  -2.253 -16.943  1.00  0.00     0.026 A 
HETATM    2  C2  UNL     1      -2.993  -1.642 -16.414  1.00  0.00     0.038 A 
HETATM    3  C3  UNL     1      -4.250  -2.133 -16.737  1.00  0.00     0.065 A 
HETATM    4  C4  UNL     1      -4.385  -3.238 -17.570  1.00  0.00     0.038 A 
HETATM    5  C5  UNL     1      -3.240  -3.843 -18.097  1.00  0.00     0.026 A 
HETATM    6  C6  UNL     1      -1.968  -3.327 -17.830  1.00  0.00     0.005 A 
ENDROOT
BRANCH   6   7
HETATM    7  N1  UNL     1      -0.826  -4.010 -18.263  1.00  0.00    -0.303 NA
HETATM    8  H5  UNL     1      -0.769  -4.966 -17.926  1.00  0.00     0.124 HD
HETATM    9  H6  UNL     1       0.038  -3.497 -18.119  1.00  0.00     0.124 HD
ENDBRANCH   6   7
BRANCH   3  10
HETATM   10  O1  UNL     1      -5.336  -1.511 -16.199  1.00  0.00    -0.361 OA
HETATM   11  H7  UNL     1      -5.051  -0.667 -15.814  1.00  0.00     0.217 HD
ENDBRANCH   3  10
TORSDOF 2
ENDMDL
MODEL 7
REMARK VINA RESULT:      -4.3     22.327     22.987
REMARK  2 active torsions:
REMARK  status: ('A' for Active; 'I' for Inactive)
REMARK    1  A    between atoms: C3_3  and  O1_8 
REMARK    2  A    between atoms: C6_6  and  N1_7 
ROOT
HETATM    1  C1  UNL     1     -11.619  17.199  -7.714  1.00  0.00     0.026 A 
HETATM    2  C2  UNL     1     -12.662  18.094  -7.462  1.00  0.00     0.038 A 
HETATM    3  C3  UNL     1     -12.991  19.051  -8.411  1.00  0.00     0.065 A 
HETATM    4  C4  UNL     1     -12.303  19.118  -9.618  1.00  0.00     0.038 A 
HETATM    5  C5  UNL     1     -11.260  18.220  -9.862  1.00  0.00     0.026 A 
HETATM    6  C6  UNL     1     -10.875  17.287  -8.895  1.00  0.00     0.005 A 
ENDROOT
BRANCH   6   7
HETATM    7  N1  UNL     1      -9.912  16.317  -9.195  1.00  0.00    -0.303 NA
HETATM    8  H5  UNL     1      -9.288  16.582  -9.951  1.00  0.00     0.124 HD
HETATM    9  H6  UNL     1     -10.292  15.385  -9.317  1.00  0.00     0.124 HD
ENDBRANCH   6   7
BRANCH   3  10
HETATM   10  O1  UNL     1     -14.016  19.904  -8.129  1.00  0.00    -0.361 OA
HETATM   11  H7  UNL     1     -13.714  20.543  -7.464  1.00  0.00     0.217 HD
ENDBRANCH   3  10
TORSDOF 2
ENDMDL
MODEL 8
REMARK VINA RESULT:      -4.2     22.308     22.990
REMARK  2 active torsions:
REMARK  status: ('A' for Active; 'I' for Inactive)
REMARK    1  A    between atoms: C3_3  and  O1_8 
REMARK    2  A    between atoms: C6_6  and  N1_7 
ROOT
HETATM    1  C1  UNL     1     -12.578  18.033  -7.518  1.00  0.00     0.026 A 
HETATM    2  C2  UNL     1     -11.546  17.132  -7.790  1.00  0.00     0.038 A 
HETATM    3  C3  UNL     1     -10.863  17.211  -8.995  1.00  0.00     0.065 A 
HETATM    4  C4  UNL     1     -11.186  18.190  -9.928  1.00  0.00     0.038 A 
HETATM    5  C5  UNL     1     -12.220  19.088  -9.650  1.00  0.00     0.026 A 
HETATM    6  C6  UNL     1     -12.959  18.987  -8.466  1.00  0.00     0.005 A 
ENDROOT
BRANCH   6   7
HETATM    7  N1  UNL     1     -13.910  19.962  -8.144  1.00  0.00    -0.303 NA
HETATM    8  H5  UNL     1     -14.812  19.813  -8.585  1.00  0.00     0.124 HD
HETATM    9  H6  UNL     1     -13.577  20.913  -8.258  1.00  0.00     0.124 HD
ENDBRANCH   6   7
BRANCH   3  10
HETATM   10  O1  UNL     1      -9.862  16.315  -9.221  1.00  0.00    -0.361 OA
HETATM   11  H7  UNL     1      -9.054  16.804  -9.446  1.00  0.00     0.217 HD
ENDBRANCH   3  10
TORSDOF 2
ENDMDL
MODEL 9
REMARK VINA RESULT:      -4.1     16.453     17.234
REMARK  2 active torsions:
REMARK  status: ('A' for Active; 'I' for Inactive)
REMARK    1  A    between atoms: C3_3  and  O1_8 
REMARK    2  A    between atoms: C6_6  and  N1_7 
ROOT
HETATM    1  C1  UNL     1      -5.082  -1.662  -3.211  1.00  0.00     0.026 A 
HETATM    2  C2  UNL     1      -4.449  -2.612  -2.408  1.00  0.00     0.038 A 
HETATM    3  C3  UNL     1      -4.409  -2.434  -1.032  1.00  0.00     0.065 A 
HETATM    4  C4  UNL     1      -5.008  -1.325  -0.445  1.00  0.00     0.038 A 
HETATM    5  C5  UNL     1      -5.639  -0.377  -1.256  1.00  0.00     0.026 A 
HETATM    6  C6  UNL     1      -5.639  -0.509  -2.648  1.00  0.00     0.005 A 
ENDROOT
BRANCH   6   7
HETATM    7  N1  UNL     1      -6.374   0.379  -3.441  1.00  0.00    -0.303 NA
HETATM    8  H5  UNL     1      -6.126   0.349  -4.425  1.00  0.00     0.124 HD
HETATM    9  H6  UNL     1      -6.401   1.326  -3.078  1.00  0.00     0.124 HD
ENDBRANCH   6   7
BRANCH   3  10
HETATM   10  O1  UNL     1      -3.784  -3.385  -0.283  1.00  0.00    -0.361 OA
HETATM   11  H7  UNL     1      -4.253  -3.470   0.563  1.00  0.00     0.217 HD
ENDBRANCH   3  10
TORSDOF 2
ENDMDL
