MODEL 1
REMARK VINA RESULT:      -7.9      0.000      0.000
REMARK  27 active torsions:
REMARK  status: ('A' for Active; 'I' for Inactive)
REMARK    1  A    between atoms: C2_2  and  S1_4 
REMARK    2  A    between atoms: S1_4  and  C3_5 
REMARK    3  A    between atoms: C3_5  and  C4_6 
REMARK    4  A    between atoms: C4_6  and  N1_7 
REMARK       I    between atoms: N1_7  and  C5_8 
REMARK    5  A    between atoms: C5_8  and  C6_10 
REMARK    6  A    between atoms: C6_10  and  C7_11 
REMARK    7  A    between atoms: C7_11  and  N2_12 
REMARK       I    between atoms: N2_12  and  C8_13 
REMARK    8  A    between atoms: C8_13  and  C9_15 
REMARK    9  A    between atoms: C9_15  and  C10_16 
REMARK   10  A    between atoms: C9_15  and  O17_54 
REMARK   11  A    between atoms: C10_16  and  C13_19 
REMARK   12  A    between atoms: C13_19  and  O4_20 
REMARK   13  A    between atoms: O4_20  and  P1_21 
REMARK   14  A    between atoms: P1_21  and  O6_23 
REMARK   15  A    between atoms: P1_21  and  O7_24 
REMARK   16  A    between atoms: O7_24  and  P2_25 
REMARK   17  A    between atoms: P2_25  and  O9_27 
REMARK   18  A    between atoms: P2_25  and  O10_28 
REMARK   19  A    between atoms: O10_28  and  C14_29 
REMARK   20  A    between atoms: C14_29  and  C15_30 
REMARK   21  A    between atoms: C16_31  and  O13_49 
REMARK   22  A    between atoms: C17_32  and  O12_48 
REMARK   23  A    between atoms: C18_33  and  N3_35 
REMARK   24  A    between atoms: C21_40  and  N7_47 
REMARK   25  A    between atoms: O13_49  and  P3_50 
REMARK   26  A    between atoms: P3_50  and  O15_52 
REMARK   27  A    between atoms: P3_50  and  O16_53 
ROOT
HETATM    1  C1  UNL     1      -5.047  -2.120  -1.242  1.00  0.00     0.104 C 
HETATM    2  C2  UNL     1      -5.373  -0.672  -1.446  1.00  0.00     0.182 C 
HETATM    3  O1  UNL     1      -5.286   0.171  -0.556  1.00  0.00    -0.286 OA
ENDROOT
BRANCH   2   4
HETATM    4  S1  UNL     1      -5.933  -0.275  -3.065  1.00  0.00    -0.091 SA
BRANCH   4   5
HETATM    5  C3  UNL     1      -5.415  -1.774  -3.962  1.00  0.00     0.102 C 
BRANCH   5   6
HETATM    6  C4  UNL     1      -5.558  -1.609  -5.477  1.00  0.00     0.133 C 
BRANCH   6   7
HETATM    7  N1  UNL     1      -6.589  -2.457  -6.037  1.00  0.00    -0.360 N 
HETATM    8  C5  UNL     1      -6.677  -2.692  -7.390  1.00  0.00     0.219 C 
HETATM    9  O2  UNL     1      -5.947  -2.141  -8.205  1.00  0.00    -0.274 OA
HETATM   10  H8  UNL     1      -7.256  -2.890  -5.412  1.00  0.00     0.162 HD
BRANCH   8  11
HETATM   11  C6  UNL     1      -7.790  -3.649  -7.760  1.00  0.00     0.122 C 
BRANCH  11  12
HETATM   12  C7  UNL     1      -9.112  -3.273  -7.092  1.00  0.00     0.132 C 
BRANCH  12  13
HETATM   13  N2  UNL     1     -10.016  -2.569  -7.978  1.00  0.00    -0.358 N 
HETATM   14  C8  UNL     1     -10.609  -3.231  -9.037  1.00  0.00     0.247 C 
HETATM   15  O3  UNL     1     -10.310  -4.381  -9.337  1.00  0.00    -0.271 OA
HETATM   16  H13 UNL     1     -10.540  -1.807  -7.554  1.00  0.00     0.162 HD
BRANCH  14  17
HETATM   17  C9  UNL     1     -11.677  -2.421  -9.787  1.00  0.00     0.219 C 
BRANCH  17  18
HETATM   18  C10 UNL     1     -12.800  -3.277 -10.429  1.00  0.00     0.009 C 
HETATM   19  C11 UNL     1     -13.314  -2.667 -11.742  1.00  0.00     0.020 C 
HETATM   20  C12 UNL     1     -12.317  -4.710 -10.729  1.00  0.00     0.020 C 
BRANCH  18  21
HETATM   21  C13 UNL     1     -13.954  -3.319  -9.386  1.00  0.00     0.192 C 
BRANCH  21  22
HETATM   22  O4  UNL     1     -13.694  -4.224  -8.332  1.00  0.00    -0.296 OA
BRANCH  22  23
HETATM   23  P1  UNL     1     -13.850  -3.828  -6.786  1.00  0.00     0.401 P 
HETATM   24  O5  UNL     1     -12.703  -3.041  -6.237  1.00  0.00    -0.631 OA
BRANCH  23  25
HETATM   25  O6  UNL     1     -14.145  -5.192  -5.984  1.00  0.00    -0.307 OA
HETATM   26  H23 UNL     1     -15.088  -5.399  -5.956  1.00  0.00     0.222 HD
ENDBRANCH  23  25
BRANCH  23  27
HETATM   27  O7  UNL     1     -15.262  -3.101  -6.689  1.00  0.00    -0.195 OA
BRANCH  27  28
HETATM   28  P2  UNL     1     -16.141  -3.298  -5.375  1.00  0.00     0.401 P 
HETATM   29  O8  UNL     1     -16.739  -4.649  -5.157  1.00  0.00    -0.631 OA
BRANCH  28  30
HETATM   30  O9  UNL     1     -15.163  -2.823  -4.206  1.00  0.00    -0.307 OA
HETATM   31  H24 UNL     1     -15.201  -1.853  -4.016  1.00  0.00     0.222 HD
ENDBRANCH  28  30
BRANCH  28  32
HETATM   32  O10 UNL     1     -17.169  -2.077  -5.412  1.00  0.00    -0.294 OA
BRANCH  32  33
HETATM   33  C14 UNL     1     -18.384  -2.161  -4.713  1.00  0.00     0.215 C 
BRANCH  33  34
HETATM   34  C15 UNL     1     -19.446  -1.558  -5.631  1.00  0.00     0.180 C 
HETATM   35  C16 UNL     1     -18.839  -1.258  -6.995  1.00  0.00     0.197 C 
HETATM   36  C17 UNL     1     -18.965   0.246  -7.149  1.00  0.00     0.199 C 
HETATM   37  C18 UNL     1     -20.152   0.566  -6.237  1.00  0.00     0.262 C 
HETATM   38  O11 UNL     1     -19.999  -0.339  -5.121  1.00  0.00    -0.353 OA
BRANCH  35  39
HETATM   39  O13 UNL     1     -19.590  -1.963  -7.977  1.00  0.00    -0.286 OA
BRANCH  39  40
HETATM   40  P3  UNL     1     -18.779  -3.061  -8.809  1.00  0.00     0.391 P 
HETATM   41  O14 UNL     1     -19.100  -4.468  -8.422  1.00  0.00    -0.632 OA
BRANCH  40  42
HETATM   42  O15 UNL     1     -17.277  -2.556  -8.586  1.00  0.00    -0.307 OA
HETATM   43  H36 UNL     1     -16.733  -3.259  -8.157  1.00  0.00     0.222 HD
ENDBRANCH  40  42
BRANCH  40  44
HETATM   44  O16 UNL     1     -19.091  -2.619 -10.304  1.00  0.00    -0.307 OA
HETATM   45  H37 UNL     1     -19.950  -2.941 -10.620  1.00  0.00     0.222 HD
ENDBRANCH  40  44
ENDBRANCH  39  40
ENDBRANCH  35  39
BRANCH  36  46
HETATM   46  O12 UNL     1     -19.085   0.595  -8.530  1.00  0.00    -0.388 OA
HETATM   47  H35 UNL     1     -18.709   1.502  -8.622  1.00  0.00     0.210 HD
ENDBRANCH  36  46
BRANCH  37  48
HETATM   48  N3  UNL     1     -20.123   1.927  -5.741  1.00  0.00    -0.297 N 
HETATM   49  C19 UNL     1     -19.811   2.341  -4.467  1.00  0.00     0.188 A 
HETATM   50  N4  UNL     1     -19.751   3.651  -4.369  1.00  0.00    -0.346 N 
HETATM   51  C20 UNL     1     -20.032   4.109  -5.644  1.00  0.00     0.116 A 
HETATM   52  H4  UNL     1     -19.543   4.206  -3.539  1.00  0.00     0.167 HD
HETATM   53  C21 UNL     1     -20.081   5.398  -6.204  1.00  0.00     0.109 A 
HETATM   54  C23 UNL     1     -20.303   3.053  -6.495  1.00  0.00     0.142 A 
HETATM   55  N5  UNL     1     -20.404   5.524  -7.515  1.00  0.00    -0.341 N 
HETATM   56  C22 UNL     1     -20.667   4.404  -8.218  1.00  0.00     0.183 A 
HETATM   57  H5  UNL     1     -20.446   6.442  -7.957  1.00  0.00     0.167 HD
HETATM   58  N6  UNL     1     -20.643   3.124  -7.794  1.00  0.00    -0.336 N 
HETATM   59  H6  UNL     1     -20.854   2.317  -8.381  1.00  0.00     0.168 HD
BRANCH  53  60
HETATM   60  N7  UNL     1     -19.826   6.553  -5.482  1.00  0.00    -0.287 NA
HETATM   61  H33 UNL     1     -19.728   7.390  -6.052  1.00  0.00     0.125 HD
HETATM   62  H34 UNL     1     -19.141   6.418  -4.750  1.00  0.00     0.125 HD
ENDBRANCH  53  60
ENDBRANCH  37  48
ENDBRANCH  33  34
ENDBRANCH  32  33
ENDBRANCH  28  32
ENDBRANCH  27  28
ENDBRANCH  23  27
ENDBRANCH  22  23
ENDBRANCH  21  22
ENDBRANCH  18  21
ENDBRANCH  17  18
BRANCH  17  63
HETATM   63  O17 UNL     1     -12.280  -1.467  -8.906  1.00  0.00    -0.385 OA
HETATM   64  H38 UNL     1     -11.591  -1.127  -8.311  1.00  0.00     0.210 HD
ENDBRANCH  17  63
ENDBRANCH  14  17
ENDBRANCH  12  13
ENDBRANCH  11  12
ENDBRANCH   8  11
ENDBRANCH   6   7
ENDBRANCH   5   6
ENDBRANCH   4   5
ENDBRANCH   2   4
TORSDOF 27
ENDMDL
MODEL 2
REMARK VINA RESULT:      -7.8      4.955      7.337
REMARK  27 active torsions:
REMARK  status: ('A' for Active; 'I' for Inactive)
REMARK    1  A    between atoms: C2_2  and  S1_4 
REMARK    2  A    between atoms: S1_4  and  C3_5 
REMARK    3  A    between atoms: C3_5  and  C4_6 
REMARK    4  A    between atoms: C4_6  and  N1_7 
REMARK       I    between atoms: N1_7  and  C5_8 
REMARK    5  A    between atoms: C5_8  and  C6_10 
REMARK    6  A    between atoms: C6_10  and  C7_11 
REMARK    7  A    between atoms: C7_11  and  N2_12 
REMARK       I    between atoms: N2_12  and  C8_13 
REMARK    8  A    between atoms: C8_13  and  C9_15 
REMARK    9  A    between atoms: C9_15  and  C10_16 
REMARK   10  A    between atoms: C9_15  and  O17_54 
REMARK   11  A    between atoms: C10_16  and  C13_19 
REMARK   12  A    between atoms: C13_19  and  O4_20 
REMARK   13  A    between atoms: O4_20  and  P1_21 
REMARK   14  A    between atoms: P1_21  and  O6_23 
REMARK   15  A    between atoms: P1_21  and  O7_24 
REMARK   16  A    between atoms: O7_24  and  P2_25 
REMARK   17  A    between atoms: P2_25  and  O9_27 
REMARK   18  A    between atoms: P2_25  and  O10_28 
REMARK   19  A    between atoms: O10_28  and  C14_29 
REMARK   20  A    between atoms: C14_29  and  C15_30 
REMARK   21  A    between atoms: C16_31  and  O13_49 
REMARK   22  A    between atoms: C17_32  and  O12_48 
REMARK   23  A    between atoms: C18_33  and  N3_35 
REMARK   24  A    between atoms: C21_40  and  N7_47 
REMARK   25  A    between atoms: O13_49  and  P3_50 
REMARK   26  A    between atoms: P3_50  and  O15_52 
REMARK   27  A    between atoms: P3_50  and  O16_53 
ROOT
HETATM    1  C1  UNL     1      -4.276  -2.637  -0.939  1.00  0.00     0.104 C 
HETATM    2  C2  UNL     1      -5.006  -1.331  -1.034  1.00  0.00     0.182 C 
HETATM    3  O1  UNL     1      -5.928  -1.018  -0.286  1.00  0.00    -0.286 OA
ENDROOT
BRANCH   2   4
HETATM    4  S1  UNL     1      -4.458  -0.288  -2.339  1.00  0.00    -0.091 SA
BRANCH   4   5
HETATM    5  C3  UNL     1      -5.739  -0.633  -3.588  1.00  0.00     0.102 C 
BRANCH   5   6
HETATM    6  C4  UNL     1      -5.340  -1.787  -4.510  1.00  0.00     0.133 C 
BRANCH   6   7
HETATM    7  N1  UNL     1      -5.954  -1.695  -5.819  1.00  0.00    -0.360 N 
HETATM    8  C5  UNL     1      -7.174  -2.270  -6.089  1.00  0.00     0.219 C 
HETATM    9  O2  UNL     1      -7.774  -2.958  -5.271  1.00  0.00    -0.274 OA
HETATM   10  H8  UNL     1      -5.471  -1.187  -6.548  1.00  0.00     0.162 HD
BRANCH   8  11
HETATM   11  C6  UNL     1      -7.661  -2.009  -7.498  1.00  0.00     0.122 C 
BRANCH  11  12
HETATM   12  C7  UNL     1      -8.559  -3.136  -8.009  1.00  0.00     0.132 C 
BRANCH  12  13
HETATM   13  N2  UNL     1      -9.942  -2.983  -7.612  1.00  0.00    -0.358 N 
HETATM   14  C8  UNL     1     -10.831  -2.306  -8.427  1.00  0.00     0.247 C 
HETATM   15  O3  UNL     1     -10.469  -1.717  -9.437  1.00  0.00    -0.271 OA
HETATM   16  H13 UNL     1     -10.318  -3.734  -7.036  1.00  0.00     0.162 HD
BRANCH  14  17
HETATM   17  C9  UNL     1     -12.297  -2.371  -7.975  1.00  0.00     0.219 C 
BRANCH  17  18
HETATM   18  C10 UNL     1     -13.210  -3.242  -8.877  1.00  0.00     0.009 C 
HETATM   19  C11 UNL     1     -13.530  -2.554 -10.213  1.00  0.00     0.020 C 
HETATM   20  C12 UNL     1     -12.561  -4.606  -9.189  1.00  0.00     0.020 C 
BRANCH  18  21
HETATM   21  C13 UNL     1     -14.524  -3.458  -8.073  1.00  0.00     0.192 C 
BRANCH  21  22
HETATM   22  O4  UNL     1     -15.673  -3.404  -8.895  1.00  0.00    -0.296 OA
BRANCH  22  23
HETATM   23  P1  UNL     1     -17.158  -3.258  -8.307  1.00  0.00     0.401 P 
HETATM   24  O5  UNL     1     -17.949  -4.527  -8.321  1.00  0.00    -0.631 OA
BRANCH  23  25
HETATM   25  O6  UNL     1     -17.857  -2.048  -9.106  1.00  0.00    -0.307 OA
HETATM   26  H23 UNL     1     -18.812  -2.023  -8.961  1.00  0.00     0.222 HD
ENDBRANCH  23  25
BRANCH  23  27
HETATM   27  O7  UNL     1     -16.967  -2.608  -6.867  1.00  0.00    -0.195 OA
BRANCH  27  28
HETATM   28  P2  UNL     1     -18.241  -2.015  -6.116  1.00  0.00     0.401 P 
HETATM   29  O8  UNL     1     -18.797  -0.731  -6.639  1.00  0.00    -0.631 OA
BRANCH  28  30
HETATM   30  O9  UNL     1     -19.277  -3.229  -6.134  1.00  0.00    -0.307 OA
HETATM   31  H24 UNL     1     -20.111  -3.056  -5.633  1.00  0.00     0.222 HD
ENDBRANCH  28  30
BRANCH  28  32
HETATM   32  O10 UNL     1     -17.815  -2.015  -4.577  1.00  0.00    -0.294 OA
BRANCH  32  33
HETATM   33  C14 UNL     1     -17.920  -3.191  -3.819  1.00  0.00     0.215 C 
BRANCH  33  34
HETATM   34  C15 UNL     1     -16.962  -3.027  -2.640  1.00  0.00     0.180 C 
HETATM   35  C16 UNL     1     -15.523  -3.050  -3.138  1.00  0.00     0.197 C 
HETATM   36  C17 UNL     1     -14.905  -4.263  -2.470  1.00  0.00     0.199 C 
HETATM   37  C18 UNL     1     -15.772  -4.420  -1.219  1.00  0.00     0.262 C 
HETATM   38  O11 UNL     1     -17.101  -4.061  -1.659  1.00  0.00    -0.353 OA
BRANCH  35  39
HETATM   39  O13 UNL     1     -14.897  -1.837  -2.735  1.00  0.00    -0.286 OA
BRANCH  39  40
HETATM   40  P3  UNL     1     -14.072  -1.076  -3.872  1.00  0.00     0.391 P 
HETATM   41  O14 UNL     1     -14.138   0.414  -3.771  1.00  0.00    -0.632 OA
BRANCH  40  42
HETATM   42  O15 UNL     1     -14.677  -1.756  -5.188  1.00  0.00    -0.307 OA
HETATM   43  H36 UNL     1     -13.990  -1.823  -5.893  1.00  0.00     0.222 HD
ENDBRANCH  40  42
BRANCH  40  44
HETATM   44  O16 UNL     1     -12.642  -1.760  -3.736  1.00  0.00    -0.307 OA
HETATM   45  H37 UNL     1     -12.214  -1.911  -4.594  1.00  0.00     0.222 HD
ENDBRANCH  40  44
ENDBRANCH  39  40
ENDBRANCH  35  39
BRANCH  36  46
HETATM   46  O12 UNL     1     -13.502  -4.061  -2.275  1.00  0.00    -0.388 OA
HETATM   47  H35 UNL     1     -13.415  -3.289  -1.667  1.00  0.00     0.210 HD
ENDBRANCH  36  46
BRANCH  37  48
HETATM   48  N3  UNL     1     -15.797  -5.783  -0.726  1.00  0.00    -0.297 N 
HETATM   49  C19 UNL     1     -14.974  -6.818  -1.103  1.00  0.00     0.188 A 
HETATM   50  N4  UNL     1     -15.168  -7.898  -0.378  1.00  0.00    -0.346 N 
HETATM   51  C20 UNL     1     -16.162  -7.544   0.517  1.00  0.00     0.116 A 
HETATM   52  H4  UNL     1     -14.691  -8.796  -0.458  1.00  0.00     0.167 HD
HETATM   53  C21 UNL     1     -16.781  -8.233   1.574  1.00  0.00     0.109 A 
HETATM   54  C23 UNL     1     -16.588  -6.249   0.286  1.00  0.00     0.142 A 
HETATM   55  N5  UNL     1     -17.754  -7.603   2.277  1.00  0.00    -0.341 N 
HETATM   56  C22 UNL     1     -18.083  -6.345   1.924  1.00  0.00     0.183 A 
HETATM   57  H5  UNL     1     -18.224  -8.069   3.053  1.00  0.00     0.167 HD
HETATM   58  N6  UNL     1     -17.557  -5.585   0.942  1.00  0.00    -0.336 N 
HETATM   59  H6  UNL     1     -17.853  -4.633   0.725  1.00  0.00     0.168 HD
BRANCH  53  60
HETATM   60  N7  UNL     1     -16.457  -9.532   1.931  1.00  0.00    -0.287 NA
HETATM   61  H33 UNL     1     -16.355  -9.678   2.933  1.00  0.00     0.125 HD
HETATM   62  H34 UNL     1     -15.747  -9.939   1.337  1.00  0.00     0.125 HD
ENDBRANCH  53  60
ENDBRANCH  37  48
ENDBRANCH  33  34
ENDBRANCH  32  33
ENDBRANCH  28  32
ENDBRANCH  27  28
ENDBRANCH  23  27
ENDBRANCH  22  23
ENDBRANCH  21  22
ENDBRANCH  18  21
ENDBRANCH  17  18
BRANCH  17  63
HETATM   63  O17 UNL     1     -12.378  -2.866  -6.634  1.00  0.00    -0.385 OA
HETATM   64  H38 UNL     1     -11.843  -2.288  -6.066  1.00  0.00     0.210 HD
ENDBRANCH  17  63
ENDBRANCH  14  17
ENDBRANCH  12  13
ENDBRANCH  11  12
ENDBRANCH   8  11
ENDBRANCH   6   7
ENDBRANCH   5   6
ENDBRANCH   4   5
ENDBRANCH   2   4
TORSDOF 27
ENDMDL
MODEL 3
REMARK VINA RESULT:      -6.9      5.901      8.050
REMARK  27 active torsions:
REMARK  status: ('A' for Active; 'I' for Inactive)
REMARK    1  A    between atoms: C2_2  and  S1_4 
REMARK    2  A    between atoms: S1_4  and  C3_5 
REMARK    3  A    between atoms: C3_5  and  C4_6 
REMARK    4  A    between atoms: C4_6  and  N1_7 
REMARK       I    between atoms: N1_7  and  C5_8 
REMARK    5  A    between atoms: C5_8  and  C6_10 
REMARK    6  A    between atoms: C6_10  and  C7_11 
REMARK    7  A    between atoms: C7_11  and  N2_12 
REMARK       I    between atoms: N2_12  and  C8_13 
REMARK    8  A    between atoms: C8_13  and  C9_15 
REMARK    9  A    between atoms: C9_15  and  C10_16 
REMARK   10  A    between atoms: C9_15  and  O17_54 
REMARK   11  A    between atoms: C10_16  and  C13_19 
REMARK   12  A    between atoms: C13_19  and  O4_20 
REMARK   13  A    between atoms: O4_20  and  P1_21 
REMARK   14  A    between atoms: P1_21  and  O6_23 
REMARK   15  A    between atoms: P1_21  and  O7_24 
REMARK   16  A    between atoms: O7_24  and  P2_25 
REMARK   17  A    between atoms: P2_25  and  O9_27 
REMARK   18  A    between atoms: P2_25  and  O10_28 
REMARK   19  A    between atoms: O10_28  and  C14_29 
REMARK   20  A    between atoms: C14_29  and  C15_30 
REMARK   21  A    between atoms: C16_31  and  O13_49 
REMARK   22  A    between atoms: C17_32  and  O12_48 
REMARK   23  A    between atoms: C18_33  and  N3_35 
REMARK   24  A    between atoms: C21_40  and  N7_47 
REMARK   25  A    between atoms: O13_49  and  P3_50 
REMARK   26  A    between atoms: P3_50  and  O15_52 
REMARK   27  A    between atoms: P3_50  and  O16_53 
ROOT
HETATM    1  C1  UNL     1      -3.751  -2.706  -0.939  1.00  0.00     0.104 C 
HETATM    2  C2  UNL     1      -4.898  -1.769  -1.162  1.00  0.00     0.182 C 
HETATM    3  O1  UNL     1      -6.045  -2.007  -0.792  1.00  0.00    -0.286 OA
ENDROOT
BRANCH   2   4
HETATM    4  S1  UNL     1      -4.478  -0.304  -2.038  1.00  0.00    -0.091 SA
BRANCH   4   5
HETATM    5  C3  UNL     1      -5.565  -0.472  -3.490  1.00  0.00     0.102 C 
BRANCH   5   6
HETATM    6  C4  UNL     1      -5.257  -1.740  -4.290  1.00  0.00     0.133 C 
BRANCH   6   7
HETATM    7  N1  UNL     1      -5.838  -1.720  -5.616  1.00  0.00    -0.360 N 
HETATM    8  C5  UNL     1      -7.067  -2.280  -5.876  1.00  0.00     0.219 C 
HETATM    9  O2  UNL     1      -7.704  -2.896  -5.029  1.00  0.00    -0.274 OA
HETATM   10  H8  UNL     1      -5.326  -1.274  -6.365  1.00  0.00     0.162 HD
BRANCH   8  11
HETATM   11  C6  UNL     1      -7.515  -2.102  -7.311  1.00  0.00     0.122 C 
BRANCH  11  12
HETATM   12  C7  UNL     1      -8.469  -3.212  -7.753  1.00  0.00     0.132 C 
BRANCH  12  13
HETATM   13  N2  UNL     1      -9.816  -3.035  -7.254  1.00  0.00    -0.358 N 
HETATM   14  C8  UNL     1     -10.813  -2.567  -8.091  1.00  0.00     0.247 C 
HETATM   15  O3  UNL     1     -10.579  -2.178  -9.228  1.00  0.00    -0.271 OA
HETATM   16  H13 UNL     1     -10.094  -3.670  -6.509  1.00  0.00     0.162 HD
BRANCH  14  17
HETATM   17  C9  UNL     1     -12.225  -2.595  -7.488  1.00  0.00     0.219 C 
BRANCH  17  18
HETATM   18  C10 UNL     1     -13.198  -3.589  -8.176  1.00  0.00     0.009 C 
HETATM   19  C11 UNL     1     -14.081  -2.901  -9.227  1.00  0.00     0.020 C 
HETATM   20  C12 UNL     1     -12.436  -4.735  -8.872  1.00  0.00     0.020 C 
BRANCH  18  21
HETATM   21  C13 UNL     1     -14.090  -4.167  -7.040  1.00  0.00     0.192 C 
BRANCH  21  22
HETATM   22  O4  UNL     1     -14.955  -3.196  -6.488  1.00  0.00    -0.296 OA
BRANCH  22  23
HETATM   23  P1  UNL     1     -16.206  -3.571  -5.558  1.00  0.00     0.401 P 
HETATM   24  O5  UNL     1     -17.230  -4.432  -6.228  1.00  0.00    -0.631 OA
BRANCH  23  25
HETATM   25  O6  UNL     1     -16.795  -2.186  -4.988  1.00  0.00    -0.307 OA
HETATM   26  H23 UNL     1     -16.746  -2.141  -4.025  1.00  0.00     0.222 HD
ENDBRANCH  23  25
BRANCH  23  27
HETATM   27  O7  UNL     1     -15.567  -4.199  -4.243  1.00  0.00    -0.195 OA
BRANCH  27  28
HETATM   28  P2  UNL     1     -15.732  -3.425  -2.861  1.00  0.00     0.401 P 
HETATM   29  O8  UNL     1     -15.168  -2.043  -2.788  1.00  0.00    -0.631 OA
BRANCH  28  30
HETATM   30  O9  UNL     1     -17.302  -3.502  -2.583  1.00  0.00    -0.307 OA
HETATM   31  H24 UNL     1     -17.743  -2.621  -2.505  1.00  0.00     0.222 HD
ENDBRANCH  28  30
BRANCH  28  32
HETATM   32  O10 UNL     1     -15.189  -4.459  -1.772  1.00  0.00    -0.294 OA
BRANCH  32  33
HETATM   33  C14 UNL     1     -15.922  -4.691  -0.598  1.00  0.00     0.215 C 
BRANCH  33  34
HETATM   34  C15 UNL     1     -15.836  -6.193  -0.330  1.00  0.00     0.180 C 
HETATM   35  C16 UNL     1     -16.855  -6.929  -1.190  1.00  0.00     0.197 C 
HETATM   36  C17 UNL     1     -17.789  -7.592  -0.195  1.00  0.00     0.199 C 
HETATM   37  C18 UNL     1     -16.897  -7.732   1.041  1.00  0.00     0.262 C 
HETATM   38  O11 UNL     1     -16.092  -6.533   1.037  1.00  0.00    -0.353 OA
BRANCH  35  39
HETATM   39  O13 UNL     1     -16.156  -7.879  -1.986  1.00  0.00    -0.286 OA
BRANCH  39  40
HETATM   40  P3  UNL     1     -16.270  -7.671  -3.567  1.00  0.00     0.391 P 
HETATM   41  O14 UNL     1     -16.495  -8.937  -4.328  1.00  0.00    -0.632 OA
BRANCH  40  42
HETATM   42  O15 UNL     1     -14.921  -6.861  -3.860  1.00  0.00    -0.307 OA
HETATM   43  H36 UNL     1     -14.157  -7.277  -3.395  1.00  0.00     0.222 HD
ENDBRANCH  40  42
BRANCH  40  44
HETATM   44  O16 UNL     1     -17.392  -6.548  -3.657  1.00  0.00    -0.307 OA
HETATM   45  H37 UNL     1     -18.289  -6.903  -3.553  1.00  0.00     0.222 HD
ENDBRANCH  40  44
ENDBRANCH  39  40
ENDBRANCH  35  39
BRANCH  36  46
HETATM   46  O12 UNL     1     -18.334  -8.792  -0.751  1.00  0.00    -0.388 OA
HETATM   47  H35 UNL     1     -18.756  -8.535  -1.606  1.00  0.00     0.210 HD
ENDBRANCH  36  46
BRANCH  37  48
HETATM   48  N3  UNL     1     -17.658  -7.779   2.273  1.00  0.00    -0.297 N 
HETATM   49  C19 UNL     1     -17.453  -8.614   3.346  1.00  0.00     0.188 A 
HETATM   50  N4  UNL     1     -18.233  -8.321   4.363  1.00  0.00    -0.346 N 
HETATM   51  C20 UNL     1     -18.979  -7.239   3.930  1.00  0.00     0.116 A 
HETATM   52  H4  UNL     1     -18.280  -8.788   5.269  1.00  0.00     0.167 HD
HETATM   53  C21 UNL     1     -19.951  -6.440   4.556  1.00  0.00     0.109 A 
HETATM   54  C23 UNL     1     -18.660  -6.917   2.624  1.00  0.00     0.142 A 
HETATM   55  N5  UNL     1     -20.520  -5.434   3.847  1.00  0.00    -0.341 N 
HETATM   56  C22 UNL     1     -20.127  -5.252   2.571  1.00  0.00     0.183 A 
HETATM   57  H5  UNL     1     -21.227  -4.832   4.269  1.00  0.00     0.167 HD
HETATM   58  N6  UNL     1     -19.204  -5.943   1.872  1.00  0.00    -0.336 N 
HETATM   59  H6  UNL     1     -18.951  -5.753   0.902  1.00  0.00     0.168 HD
BRANCH  53  60
HETATM   60  N7  UNL     1     -20.370  -6.633   5.864  1.00  0.00    -0.287 NA
HETATM   61  H33 UNL     1     -21.291  -7.057   5.950  1.00  0.00     0.125 HD
HETATM   62  H34 UNL     1     -20.174  -5.841   6.461  1.00  0.00     0.125 HD
ENDBRANCH  53  60
ENDBRANCH  37  48
ENDBRANCH  33  34
ENDBRANCH  32  33
ENDBRANCH  28  32
ENDBRANCH  27  28
ENDBRANCH  23  27
ENDBRANCH  22  23
ENDBRANCH  21  22
ENDBRANCH  18  21
ENDBRANCH  17  18
BRANCH  17  63
HETATM   63  O17 UNL     1     -12.160  -2.914  -6.094  1.00  0.00    -0.385 OA
HETATM   64  H38 UNL     1     -11.371  -2.485  -5.723  1.00  0.00     0.210 HD
ENDBRANCH  17  63
ENDBRANCH  14  17
ENDBRANCH  12  13
ENDBRANCH  11  12
ENDBRANCH   8  11
ENDBRANCH   6   7
ENDBRANCH   5   6
ENDBRANCH   4   5
ENDBRANCH   2   4
TORSDOF 27
ENDMDL
MODEL 4
REMARK VINA RESULT:      -6.9      6.080     10.347
REMARK  27 active torsions:
REMARK  status: ('A' for Active; 'I' for Inactive)
REMARK    1  A    between atoms: C2_2  and  S1_4 
REMARK    2  A    between atoms: S1_4  and  C3_5 
REMARK    3  A    between atoms: C3_5  and  C4_6 
REMARK    4  A    between atoms: C4_6  and  N1_7 
REMARK       I    between atoms: N1_7  and  C5_8 
REMARK    5  A    between atoms: C5_8  and  C6_10 
REMARK    6  A    between atoms: C6_10  and  C7_11 
REMARK    7  A    between atoms: C7_11  and  N2_12 
REMARK       I    between atoms: N2_12  and  C8_13 
REMARK    8  A    between atoms: C8_13  and  C9_15 
REMARK    9  A    between atoms: C9_15  and  C10_16 
REMARK   10  A    between atoms: C9_15  and  O17_54 
REMARK   11  A    between atoms: C10_16  and  C13_19 
REMARK   12  A    between atoms: C13_19  and  O4_20 
REMARK   13  A    between atoms: O4_20  and  P1_21 
REMARK   14  A    between atoms: P1_21  and  O6_23 
REMARK   15  A    between atoms: P1_21  and  O7_24 
REMARK   16  A    between atoms: O7_24  and  P2_25 
REMARK   17  A    between atoms: P2_25  and  O9_27 
REMARK   18  A    between atoms: P2_25  and  O10_28 
REMARK   19  A    between atoms: O10_28  and  C14_29 
REMARK   20  A    between atoms: C14_29  and  C15_30 
REMARK   21  A    between atoms: C16_31  and  O13_49 
REMARK   22  A    between atoms: C17_32  and  O12_48 
REMARK   23  A    between atoms: C18_33  and  N3_35 
REMARK   24  A    between atoms: C21_40  and  N7_47 
REMARK   25  A    between atoms: O13_49  and  P3_50 
REMARK   26  A    between atoms: P3_50  and  O15_52 
REMARK   27  A    between atoms: P3_50  and  O16_53 
ROOT
HETATM    1  C1  UNL     1     -24.439  -1.069  -5.639  1.00  0.00     0.104 C 
HETATM    2  C2  UNL     1     -23.110  -0.458  -5.966  1.00  0.00     0.182 C 
HETATM    3  O1  UNL     1     -22.068  -0.764  -5.392  1.00  0.00    -0.286 OA
ENDROOT
BRANCH   2   4
HETATM    4  S1  UNL     1     -23.167   0.772  -7.221  1.00  0.00    -0.091 SA
BRANCH   4   5
HETATM    5  C3  UNL     1     -23.268   2.275  -6.196  1.00  0.00     0.102 C 
BRANCH   5   6
HETATM    6  C4  UNL     1     -21.925   3.003  -6.118  1.00  0.00     0.133 C 
BRANCH   6   7
HETATM    7  N1  UNL     1     -20.798   2.126  -6.360  1.00  0.00    -0.360 N 
HETATM    8  C5  UNL     1     -19.809   1.943  -5.422  1.00  0.00     0.219 C 
HETATM    9  O2  UNL     1     -19.776   2.566  -4.367  1.00  0.00    -0.274 OA
HETATM   10  H8  UNL     1     -20.747   1.631  -7.240  1.00  0.00     0.162 HD
BRANCH   8  11
HETATM   11  C6  UNL     1     -18.755   0.944  -5.849  1.00  0.00     0.122 C 
BRANCH  11  12
HETATM   12  C7  UNL     1     -19.072   0.328  -7.211  1.00  0.00     0.132 C 
BRANCH  12  13
HETATM   13  N2  UNL     1     -19.782  -0.930  -7.114  1.00  0.00    -0.358 N 
HETATM   14  C8  UNL     1     -20.206  -1.581  -8.257  1.00  0.00     0.247 C 
HETATM   15  O3  UNL     1     -20.109  -1.076  -9.369  1.00  0.00    -0.271 OA
HETATM   16  H13 UNL     1     -19.541  -1.508  -6.311  1.00  0.00     0.162 HD
BRANCH  14  17
HETATM   17  C9  UNL     1     -20.786  -2.984  -8.023  1.00  0.00     0.219 C 
BRANCH  17  18
HETATM   18  C10 UNL     1     -19.979  -4.132  -8.685  1.00  0.00     0.009 C 
HETATM   19  C11 UNL     1     -20.368  -5.509  -8.127  1.00  0.00     0.020 C 
HETATM   20  C12 UNL     1     -20.188  -4.161 -10.212  1.00  0.00     0.020 C 
BRANCH  18  21
HETATM   21  C13 UNL     1     -18.484  -3.842  -8.365  1.00  0.00     0.192 C 
BRANCH  21  22
HETATM   22  O4  UNL     1     -18.139  -4.194  -7.041  1.00  0.00    -0.296 OA
BRANCH  22  23
HETATM   23  P1  UNL     1     -16.863  -3.587  -6.283  1.00  0.00     0.401 P 
HETATM   24  O5  UNL     1     -17.020  -2.158  -5.869  1.00  0.00    -0.631 OA
BRANCH  23  25
HETATM   25  O6  UNL     1     -15.589  -3.851  -7.232  1.00  0.00    -0.307 OA
HETATM   26  H23 UNL     1     -15.238  -4.745  -7.125  1.00  0.00     0.222 HD
ENDBRANCH  23  25
BRANCH  23  27
HETATM   27  O7  UNL     1     -16.574  -4.598  -5.089  1.00  0.00    -0.195 OA
BRANCH  27  28
HETATM   28  P2  UNL     1     -15.063  -4.944  -4.721  1.00  0.00     0.401 P 
HETATM   29  O8  UNL     1     -14.341  -5.879  -5.635  1.00  0.00    -0.631 OA
BRANCH  28  30
HETATM   30  O9  UNL     1     -14.380  -3.506  -4.588  1.00  0.00    -0.307 OA
HETATM   31  H24 UNL     1     -14.938  -2.762  -4.923  1.00  0.00     0.222 HD
ENDBRANCH  28  30
BRANCH  28  32
HETATM   32  O10 UNL     1     -15.130  -5.380  -3.187  1.00  0.00    -0.294 OA
BRANCH  32  33
HETATM   33  C14 UNL     1     -14.962  -4.422  -2.175  1.00  0.00     0.215 C 
BRANCH  33  34
HETATM   34  C15 UNL     1     -15.709  -4.954  -0.954  1.00  0.00     0.180 C 
HETATM   35  C16 UNL     1     -16.108  -6.406  -1.186  1.00  0.00     0.197 C 
HETATM   36  C17 UNL     1     -17.624  -6.399  -1.143  1.00  0.00     0.199 C 
HETATM   37  C18 UNL     1     -17.917  -5.169  -0.281  1.00  0.00     0.262 C 
HETATM   38  O11 UNL     1     -16.901  -4.216  -0.661  1.00  0.00    -0.353 OA
BRANCH  35  39
HETATM   39  O13 UNL     1     -15.545  -7.190  -0.140  1.00  0.00    -0.286 OA
BRANCH  39  40
HETATM   40  P3  UNL     1     -14.516  -8.322  -0.605  1.00  0.00     0.391 P 
HETATM   41  O14 UNL     1     -14.824  -9.678  -0.057  1.00  0.00    -0.632 OA
BRANCH  40  42
HETATM   42  O15 UNL     1     -13.125  -7.653  -0.186  1.00  0.00    -0.307 OA
HETATM   43  H36 UNL     1     -12.654  -8.212   0.476  1.00  0.00     0.222 HD
ENDBRANCH  40  42
BRANCH  40  44
HETATM   44  O16 UNL     1     -14.543  -8.143  -2.184  1.00  0.00    -0.307 OA
HETATM   45  H37 UNL     1     -13.734  -7.735  -2.531  1.00  0.00     0.222 HD
ENDBRANCH  40  44
ENDBRANCH  39  40
ENDBRANCH  35  39
BRANCH  36  46
HETATM   46  O12 UNL     1     -18.112  -7.660  -0.677  1.00  0.00    -0.388 OA
HETATM   47  H35 UNL     1     -19.084  -7.550  -0.545  1.00  0.00     0.210 HD
ENDBRANCH  36  46
BRANCH  37  48
HETATM   48  N3  UNL     1     -19.220  -4.596  -0.554  1.00  0.00    -0.297 N 
HETATM   49  C19 UNL     1     -20.311  -4.574   0.283  1.00  0.00     0.188 A 
HETATM   50  N4  UNL     1     -21.304  -3.866  -0.210  1.00  0.00    -0.346 N 
HETATM   51  C20 UNL     1     -20.831  -3.402  -1.425  1.00  0.00     0.116 A 
HETATM   52  H4  UNL     1     -22.218  -3.697   0.209  1.00  0.00     0.167 HD
HETATM   53  C21 UNL     1     -21.389  -2.565  -2.408  1.00  0.00     0.109 A 
HETATM   54  C23 UNL     1     -19.556  -3.879  -1.669  1.00  0.00     0.142 A 
HETATM   55  N5  UNL     1     -20.663  -2.297  -3.520  1.00  0.00    -0.341 N 
HETATM   56  C22 UNL     1     -19.440  -2.853  -3.633  1.00  0.00     0.183 A 
HETATM   57  H5  UNL     1     -21.033  -1.692  -4.253  1.00  0.00     0.167 HD
HETATM   58  N6  UNL     1     -18.801  -3.658  -2.759  1.00  0.00    -0.336 N 
HETATM   59  H6  UNL     1     -17.870  -4.047  -2.906  1.00  0.00     0.168 HD
BRANCH  53  60
HETATM   60  N7  UNL     1     -22.652  -2.004  -2.303  1.00  0.00    -0.287 NA
HETATM   61  H33 UNL     1     -22.667  -1.086  -1.865  1.00  0.00     0.125 HD
HETATM   62  H34 UNL     1     -23.354  -2.665  -2.000  1.00  0.00     0.125 HD
ENDBRANCH  53  60
ENDBRANCH  37  48
ENDBRANCH  33  34
ENDBRANCH  32  33
ENDBRANCH  28  32
ENDBRANCH  27  28
ENDBRANCH  23  27
ENDBRANCH  22  23
ENDBRANCH  21  22
ENDBRANCH  18  21
ENDBRANCH  17  18
BRANCH  17  63
HETATM   63  O17 UNL     1     -20.883  -3.249  -6.619  1.00  0.00    -0.385 OA
HETATM   64  H38 UNL     1     -20.000  -3.137  -6.229  1.00  0.00     0.210 HD
ENDBRANCH  17  63
ENDBRANCH  14  17
ENDBRANCH  12  13
ENDBRANCH  11  12
ENDBRANCH   8  11
ENDBRANCH   6   7
ENDBRANCH   5   6
ENDBRANCH   4   5
ENDBRANCH   2   4
TORSDOF 27
ENDMDL
MODEL 5
REMARK VINA RESULT:      -6.8      5.257     10.650
REMARK  27 active torsions:
REMARK  status: ('A' for Active; 'I' for Inactive)
REMARK    1  A    between atoms: C2_2  and  S1_4 
REMARK    2  A    between atoms: S1_4  and  C3_5 
REMARK    3  A    between atoms: C3_5  and  C4_6 
REMARK    4  A    between atoms: C4_6  and  N1_7 
REMARK       I    between atoms: N1_7  and  C5_8 
REMARK    5  A    between atoms: C5_8  and  C6_10 
REMARK    6  A    between atoms: C6_10  and  C7_11 
REMARK    7  A    between atoms: C7_11  and  N2_12 
REMARK       I    between atoms: N2_12  and  C8_13 
REMARK    8  A    between atoms: C8_13  and  C9_15 
REMARK    9  A    between atoms: C9_15  and  C10_16 
REMARK   10  A    between atoms: C9_15  and  O17_54 
REMARK   11  A    between atoms: C10_16  and  C13_19 
REMARK   12  A    between atoms: C13_19  and  O4_20 
REMARK   13  A    between atoms: O4_20  and  P1_21 
REMARK   14  A    between atoms: P1_21  and  O6_23 
REMARK   15  A    between atoms: P1_21  and  O7_24 
REMARK   16  A    between atoms: O7_24  and  P2_25 
REMARK   17  A    between atoms: P2_25  and  O9_27 
REMARK   18  A    between atoms: P2_25  and  O10_28 
REMARK   19  A    between atoms: O10_28  and  C14_29 
REMARK   20  A    between atoms: C14_29  and  C15_30 
REMARK   21  A    between atoms: C16_31  and  O13_49 
REMARK   22  A    between atoms: C17_32  and  O12_48 
REMARK   23  A    between atoms: C18_33  and  N3_35 
REMARK   24  A    between atoms: C21_40  and  N7_47 
REMARK   25  A    between atoms: O13_49  and  P3_50 
REMARK   26  A    between atoms: P3_50  and  O15_52 
REMARK   27  A    between atoms: P3_50  and  O16_53 
ROOT
HETATM    1  C1  UNL     1     -20.656  -2.118 -10.344  1.00  0.00     0.104 C 
HETATM    2  C2  UNL     1     -20.355  -1.161  -9.231  1.00  0.00     0.182 C 
HETATM    3  O1  UNL     1     -21.135  -0.286  -8.864  1.00  0.00    -0.286 OA
ENDROOT
BRANCH   2   4
HETATM    4  S1  UNL     1     -18.764  -1.365  -8.511  1.00  0.00    -0.091 SA
BRANCH   4   5
HETATM    5  C3  UNL     1     -19.050  -0.613  -6.876  1.00  0.00     0.102 C 
BRANCH   5   6
HETATM    6  C4  UNL     1     -18.432  -1.444  -5.750  1.00  0.00     0.133 C 
BRANCH   6   7
HETATM    7  N1  UNL     1     -19.427  -2.077  -4.910  1.00  0.00    -0.360 N 
HETATM    8  C5  UNL     1     -19.110  -2.591  -3.674  1.00  0.00     0.219 C 
HETATM    9  O2  UNL     1     -17.963  -2.619  -3.245  1.00  0.00    -0.274 OA
HETATM   10  H8  UNL     1     -20.380  -2.133  -5.243  1.00  0.00     0.162 HD
BRANCH   8  11
HETATM   11  C6  UNL     1     -20.305  -3.158  -2.937  1.00  0.00     0.122 C 
BRANCH  11  12
HETATM   12  C7  UNL     1     -20.209  -4.675  -2.775  1.00  0.00     0.132 C 
BRANCH  12  13
HETATM   13  N2  UNL     1     -18.878  -5.125  -2.426  1.00  0.00    -0.358 N 
HETATM   14  C8  UNL     1     -18.637  -5.696  -1.190  1.00  0.00     0.247 C 
HETATM   15  O3  UNL     1     -19.491  -5.734  -0.313  1.00  0.00    -0.271 OA
HETATM   16  H13 UNL     1     -18.305  -5.443  -3.205  1.00  0.00     0.162 HD
BRANCH  14  17
HETATM   17  C9  UNL     1     -17.231  -6.289  -1.017  1.00  0.00     0.219 C 
BRANCH  17  18
HETATM   18  C10 UNL     1     -16.154  -5.269  -0.563  1.00  0.00     0.009 C 
HETATM   19  C11 UNL     1     -16.767  -3.916  -0.172  1.00  0.00     0.020 C 
HETATM   20  C12 UNL     1     -15.351  -5.794   0.644  1.00  0.00     0.020 C 
BRANCH  18  21
HETATM   21  C13 UNL     1     -15.206  -5.079  -1.782  1.00  0.00     0.192 C 
BRANCH  21  22
HETATM   22  O4  UNL     1     -15.779  -5.544  -2.987  1.00  0.00    -0.296 OA
BRANCH  22  23
HETATM   23  P1  UNL     1     -15.270  -5.072  -4.433  1.00  0.00     0.401 P 
HETATM   24  O5  UNL     1     -16.337  -4.470  -5.291  1.00  0.00    -0.631 OA
BRANCH  23  25
HETATM   25  O6  UNL     1     -14.534  -6.337  -5.103  1.00  0.00    -0.307 OA
HETATM   26  H23 UNL     1     -14.011  -6.084  -5.875  1.00  0.00     0.222 HD
ENDBRANCH  23  25
BRANCH  23  27
HETATM   27  O7  UNL     1     -14.033  -4.114  -4.140  1.00  0.00    -0.195 OA
BRANCH  27  28
HETATM   28  P2  UNL     1     -13.442  -3.235  -5.329  1.00  0.00     0.401 P 
HETATM   29  O8  UNL     1     -13.958  -1.840  -5.461  1.00  0.00    -0.631 OA
BRANCH  28  30
HETATM   30  O9  UNL     1     -11.864  -3.327  -5.103  1.00  0.00    -0.307 OA
HETATM   31  H24 UNL     1     -11.389  -3.862  -5.786  1.00  0.00     0.222 HD
ENDBRANCH  28  30
BRANCH  28  32
HETATM   32  O10 UNL     1     -13.609  -4.165  -6.617  1.00  0.00    -0.294 OA
BRANCH  32  33
HETATM   33  C14 UNL     1     -14.221  -3.659  -7.774  1.00  0.00     0.215 C 
BRANCH  33  34
HETATM   34  C15 UNL     1     -13.267  -3.962  -8.929  1.00  0.00     0.180 C 
HETATM   35  C16 UNL     1     -12.741  -2.660  -9.517  1.00  0.00     0.197 C 
HETATM   36  C17 UNL     1     -13.237  -2.657 -10.951  1.00  0.00     0.199 C 
HETATM   37  C18 UNL     1     -13.409  -4.151 -11.235  1.00  0.00     0.262 C 
HETATM   38  O11 UNL     1     -13.888  -4.699  -9.988  1.00  0.00    -0.353 OA
BRANCH  35  39
HETATM   39  O13 UNL     1     -11.319  -2.684  -9.441  1.00  0.00    -0.286 OA
BRANCH  39  40
HETATM   40  P3  UNL     1     -10.663  -1.610  -8.456  1.00  0.00     0.391 P 
HETATM   41  O14 UNL     1      -9.765  -0.633  -9.142  1.00  0.00    -0.632 OA
BRANCH  40  42
HETATM   42  O15 UNL     1     -10.009  -2.572  -7.357  1.00  0.00    -0.307 OA
HETATM   43  H36 UNL     1     -10.417  -3.470  -7.393  1.00  0.00     0.222 HD
ENDBRANCH  40  42
BRANCH  40  44
HETATM   44  O16 UNL     1     -11.948  -1.036  -7.715  1.00  0.00    -0.307 OA
HETATM   45  H37 UNL     1     -12.559  -0.585  -8.318  1.00  0.00     0.222 HD
ENDBRANCH  40  44
ENDBRANCH  39  40
ENDBRANCH  35  39
BRANCH  36  46
HETATM   46  O12 UNL     1     -12.334  -1.929 -11.787  1.00  0.00    -0.388 OA
HETATM   47  H35 UNL     1     -11.637  -2.569 -12.067  1.00  0.00     0.210 HD
ENDBRANCH  36  46
BRANCH  37  48
HETATM   48  N3  UNL     1     -14.392  -4.412 -12.268  1.00  0.00    -0.297 N 
HETATM   49  C19 UNL     1     -14.153  -4.822 -13.559  1.00  0.00     0.188 A 
HETATM   50  N4  UNL     1     -15.263  -5.093 -14.209  1.00  0.00    -0.346 N 
HETATM   51  C20 UNL     1     -16.272  -4.852 -13.293  1.00  0.00     0.116 A 
HETATM   52  H4  UNL     1     -15.360  -5.411 -15.174  1.00  0.00     0.167 HD
HETATM   53  C21 UNL     1     -17.669  -4.993 -13.355  1.00  0.00     0.109 A 
HETATM   54  C23 UNL     1     -15.748  -4.392 -12.099  1.00  0.00     0.142 A 
HETATM   55  N5  UNL     1     -18.404  -4.657 -12.267  1.00  0.00    -0.341 N 
HETATM   56  C22 UNL     1     -17.758  -4.198 -11.177  1.00  0.00     0.183 A 
HETATM   57  H5  UNL     1     -19.420  -4.748 -12.274  1.00  0.00     0.167 HD
HETATM   58  N6  UNL     1     -16.432  -4.031 -10.999  1.00  0.00    -0.336 N 
HETATM   59  H6  UNL     1     -16.004  -3.677 -10.143  1.00  0.00     0.168 HD
BRANCH  53  60
HETATM   60  N7  UNL     1     -18.340  -5.449 -14.479  1.00  0.00    -0.287 NA
HETATM   61  H33 UNL     1     -18.249  -6.449 -14.644  1.00  0.00     0.125 HD
HETATM   62  H34 UNL     1     -18.226  -4.843 -15.280  1.00  0.00     0.125 HD
ENDBRANCH  53  60
ENDBRANCH  37  48
ENDBRANCH  33  34
ENDBRANCH  32  33
ENDBRANCH  28  32
ENDBRANCH  27  28
ENDBRANCH  23  27
ENDBRANCH  22  23
ENDBRANCH  21  22
ENDBRANCH  18  21
ENDBRANCH  17  18
BRANCH  17  63
HETATM   63  O17 UNL     1     -17.263  -7.366  -0.073  1.00  0.00    -0.385 OA
HETATM   64  H38 UNL     1     -16.474  -7.915  -0.215  1.00  0.00     0.210 HD
ENDBRANCH  17  63
ENDBRANCH  14  17
ENDBRANCH  12  13
ENDBRANCH  11  12
ENDBRANCH   8  11
ENDBRANCH   6   7
ENDBRANCH   5   6
ENDBRANCH   4   5
ENDBRANCH   2   4
TORSDOF 27
ENDMDL
MODEL 6
REMARK VINA RESULT:      -6.5      4.861      7.797
REMARK  27 active torsions:
REMARK  status: ('A' for Active; 'I' for Inactive)
REMARK    1  A    between atoms: C2_2  and  S1_4 
REMARK    2  A    between atoms: S1_4  and  C3_5 
REMARK    3  A    between atoms: C3_5  and  C4_6 
REMARK    4  A    between atoms: C4_6  and  N1_7 
REMARK       I    between atoms: N1_7  and  C5_8 
REMARK    5  A    between atoms: C5_8  and  C6_10 
REMARK    6  A    between atoms: C6_10  and  C7_11 
REMARK    7  A    between atoms: C7_11  and  N2_12 
REMARK       I    between atoms: N2_12  and  C8_13 
REMARK    8  A    between atoms: C8_13  and  C9_15 
REMARK    9  A    between atoms: C9_15  and  C10_16 
REMARK   10  A    between atoms: C9_15  and  O17_54 
REMARK   11  A    between atoms: C10_16  and  C13_19 
REMARK   12  A    between atoms: C13_19  and  O4_20 
REMARK   13  A    between atoms: O4_20  and  P1_21 
REMARK   14  A    between atoms: P1_21  and  O6_23 
REMARK   15  A    between atoms: P1_21  and  O7_24 
REMARK   16  A    between atoms: O7_24  and  P2_25 
REMARK   17  A    between atoms: P2_25  and  O9_27 
REMARK   18  A    between atoms: P2_25  and  O10_28 
REMARK   19  A    between atoms: O10_28  and  C14_29 
REMARK   20  A    between atoms: C14_29  and  C15_30 
REMARK   21  A    between atoms: C16_31  and  O13_49 
REMARK   22  A    between atoms: C17_32  and  O12_48 
REMARK   23  A    between atoms: C18_33  and  N3_35 
REMARK   24  A    between atoms: C21_40  and  N7_47 
REMARK   25  A    between atoms: O13_49  and  P3_50 
REMARK   26  A    between atoms: P3_50  and  O15_52 
REMARK   27  A    between atoms: P3_50  and  O16_53 
ROOT
HETATM    1  C1  UNL     1     -23.702  -3.445  -9.631  1.00  0.00     0.104 C 
HETATM    2  C2  UNL     1     -22.225  -3.196  -9.599  1.00  0.00     0.182 C 
HETATM    3  O1  UNL     1     -21.723  -2.182  -9.120  1.00  0.00    -0.286 OA
ENDROOT
BRANCH   2   4
HETATM    4  S1  UNL     1     -21.260  -4.463 -10.343  1.00  0.00    -0.091 SA
BRANCH   4   5
HETATM    5  C3  UNL     1     -19.669  -3.592 -10.526  1.00  0.00     0.102 C 
BRANCH   5   6
HETATM    6  C4  UNL     1     -19.351  -3.288 -11.991  1.00  0.00     0.133 C 
BRANCH   6   7
HETATM    7  N1  UNL     1     -18.321  -4.152 -12.530  1.00  0.00    -0.360 N 
HETATM    8  C5  UNL     1     -17.904  -4.052 -13.837  1.00  0.00     0.219 C 
HETATM    9  O2  UNL     1     -18.427  -3.289 -14.641  1.00  0.00    -0.274 OA
HETATM   10  H8  UNL     1     -17.896  -4.840 -11.924  1.00  0.00     0.162 HD
BRANCH   8  11
HETATM   11  C6  UNL     1     -16.782  -5.007 -14.183  1.00  0.00     0.122 C 
BRANCH  11  12
HETATM   12  C7  UNL     1     -16.101  -5.564 -12.933  1.00  0.00     0.132 C 
BRANCH  12  13
HETATM   13  N2  UNL     1     -14.873  -4.873 -12.601  1.00  0.00    -0.358 N 
HETATM   14  C8  UNL     1     -14.777  -4.147 -11.428  1.00  0.00     0.247 C 
HETATM   15  O3  UNL     1     -15.741  -3.962 -10.696  1.00  0.00    -0.271 OA
HETATM   16  H13 UNL     1     -14.020  -5.302 -12.953  1.00  0.00     0.162 HD
BRANCH  14  17
HETATM   17  C9  UNL     1     -13.371  -3.615 -11.112  1.00  0.00     0.219 C 
BRANCH  17  18
HETATM   18  C10 UNL     1     -12.672  -4.315  -9.918  1.00  0.00     0.009 C 
HETATM   19  C11 UNL     1     -12.952  -5.825  -9.888  1.00  0.00     0.020 C 
HETATM   20  C12 UNL     1     -11.143  -4.116  -9.962  1.00  0.00     0.020 C 
BRANCH  18  21
HETATM   21  C13 UNL     1     -13.251  -3.651  -8.635  1.00  0.00     0.192 C 
BRANCH  21  22
HETATM   22  O4  UNL     1     -13.679  -4.603  -7.683  1.00  0.00    -0.296 OA
BRANCH  22  23
HETATM   23  P1  UNL     1     -14.107  -4.208  -6.189  1.00  0.00     0.401 P 
HETATM   24  O5  UNL     1     -13.028  -3.531  -5.402  1.00  0.00    -0.631 OA
BRANCH  23  25
HETATM   25  O6  UNL     1     -14.672  -5.547  -5.497  1.00  0.00    -0.307 OA
HETATM   26  H23 UNL     1     -14.195  -5.764  -4.686  1.00  0.00     0.222 HD
ENDBRANCH  23  25
BRANCH  23  27
HETATM   27  O7  UNL     1     -15.442  -3.358  -6.354  1.00  0.00    -0.195 OA
BRANCH  27  28
HETATM   28  P2  UNL     1     -16.531  -3.401  -5.192  1.00  0.00     0.401 P 
HETATM   29  O8  UNL     1     -17.473  -4.561  -5.190  1.00  0.00    -0.631 OA
BRANCH  28  30
HETATM   30  O9  UNL     1     -15.654  -3.272  -3.864  1.00  0.00    -0.307 OA
HETATM   31  H24 UNL     1     -14.891  -3.899  -3.821  1.00  0.00     0.222 HD
ENDBRANCH  28  30
BRANCH  28  32
HETATM   32  O10 UNL     1     -17.205  -1.954  -5.241  1.00  0.00    -0.294 OA
BRANCH  32  33
HETATM   33  C14 UNL     1     -18.145  -1.651  -6.238  1.00  0.00     0.215 C 
BRANCH  33  34
HETATM   34  C15 UNL     1     -18.966  -0.477  -5.708  1.00  0.00     0.180 C 
HETATM   35  C16 UNL     1     -20.344  -0.476  -6.357  1.00  0.00     0.197 C 
HETATM   36  C17 UNL     1     -20.407   0.832  -7.123  1.00  0.00     0.199 C 
HETATM   37  C18 UNL     1     -19.413   1.705  -6.353  1.00  0.00     0.262 C 
HETATM   38  O11 UNL     1     -18.359   0.793  -5.971  1.00  0.00    -0.353 OA
BRANCH  35  39
HETATM   39  O13 UNL     1     -21.319  -0.540  -5.322  1.00  0.00    -0.286 OA
BRANCH  39  40
HETATM   40  P3  UNL     1     -22.346  -1.761  -5.416  1.00  0.00     0.391 P 
HETATM   41  O14 UNL     1     -21.685  -3.101  -5.477  1.00  0.00    -0.632 OA
BRANCH  40  42
HETATM   42  O15 UNL     1     -23.229  -1.313  -6.672  1.00  0.00    -0.307 OA
HETATM   43  H36 UNL     1     -22.921  -0.444  -7.023  1.00  0.00     0.222 HD
ENDBRANCH  40  42
BRANCH  40  44
HETATM   44  O16 UNL     1     -23.301  -1.467  -4.179  1.00  0.00    -0.307 OA
HETATM   45  H37 UNL     1     -24.037  -2.096  -4.114  1.00  0.00     0.222 HD
ENDBRANCH  40  44
ENDBRANCH  39  40
ENDBRANCH  35  39
BRANCH  36  46
HETATM   46  O12 UNL     1     -21.758   1.292  -7.207  1.00  0.00    -0.388 OA
HETATM   47  H35 UNL     1     -22.285   0.720  -6.600  1.00  0.00     0.210 HD
ENDBRANCH  36  46
BRANCH  37  48
HETATM   48  N3  UNL     1     -18.845   2.756  -7.173  1.00  0.00    -0.297 N 
HETATM   49  C19 UNL     1     -17.691   2.696  -7.919  1.00  0.00     0.188 A 
HETATM   50  N4  UNL     1     -17.515   3.774  -8.653  1.00  0.00    -0.346 N 
HETATM   51  C20 UNL     1     -18.612   4.570  -8.372  1.00  0.00     0.116 A 
HETATM   52  H4  UNL     1     -16.743   3.978  -9.287  1.00  0.00     0.167 HD
HETATM   53  C21 UNL     1     -19.032   5.820  -8.859  1.00  0.00     0.109 A 
HETATM   54  C23 UNL     1     -19.423   3.968  -7.427  1.00  0.00     0.142 A 
HETATM   55  N5  UNL     1     -20.176   6.357  -8.368  1.00  0.00    -0.341 N 
HETATM   56  C22 UNL     1     -20.854   5.666  -7.430  1.00  0.00     0.183 A 
HETATM   57  H5  UNL     1     -20.514   7.260  -8.699  1.00  0.00     0.167 HD
HETATM   58  N6  UNL     1     -20.555   4.463  -6.896  1.00  0.00    -0.336 N 
HETATM   59  H6  UNL     1     -21.114   3.992  -6.184  1.00  0.00     0.168 HD
BRANCH  53  60
HETATM   60  N7  UNL     1     -18.331   6.541  -9.812  1.00  0.00    -0.287 NA
HETATM   61  H33 UNL     1     -18.147   7.508  -9.554  1.00  0.00     0.125 HD
HETATM   62  H34 UNL     1     -18.661   6.375 -10.754  1.00  0.00     0.125 HD
ENDBRANCH  53  60
ENDBRANCH  37  48
ENDBRANCH  33  34
ENDBRANCH  32  33
ENDBRANCH  28  32
ENDBRANCH  27  28
ENDBRANCH  23  27
ENDBRANCH  22  23
ENDBRANCH  21  22
ENDBRANCH  18  21
ENDBRANCH  17  18
BRANCH  17  63
HETATM   63  O17 UNL     1     -12.529  -3.733 -12.264  1.00  0.00    -0.385 OA
HETATM   64  H38 UNL     1     -12.753  -4.564 -12.717  1.00  0.00     0.210 HD
ENDBRANCH  17  63
ENDBRANCH  14  17
ENDBRANCH  12  13
ENDBRANCH  11  12
ENDBRANCH   8  11
ENDBRANCH   6   7
ENDBRANCH   5   6
ENDBRANCH   4   5
ENDBRANCH   2   4
TORSDOF 27
ENDMDL
MODEL 7
REMARK VINA RESULT:      -6.3      4.697      7.582
REMARK  27 active torsions:
REMARK  status: ('A' for Active; 'I' for Inactive)
REMARK    1  A    between atoms: C2_2  and  S1_4 
REMARK    2  A    between atoms: S1_4  and  C3_5 
REMARK    3  A    between atoms: C3_5  and  C4_6 
REMARK    4  A    between atoms: C4_6  and  N1_7 
REMARK       I    between atoms: N1_7  and  C5_8 
REMARK    5  A    between atoms: C5_8  and  C6_10 
REMARK    6  A    between atoms: C6_10  and  C7_11 
REMARK    7  A    between atoms: C7_11  and  N2_12 
REMARK       I    between atoms: N2_12  and  C8_13 
REMARK    8  A    between atoms: C8_13  and  C9_15 
REMARK    9  A    between atoms: C9_15  and  C10_16 
REMARK   10  A    between atoms: C9_15  and  O17_54 
REMARK   11  A    between atoms: C10_16  and  C13_19 
REMARK   12  A    between atoms: C13_19  and  O4_20 
REMARK   13  A    between atoms: O4_20  and  P1_21 
REMARK   14  A    between atoms: P1_21  and  O6_23 
REMARK   15  A    between atoms: P1_21  and  O7_24 
REMARK   16  A    between atoms: O7_24  and  P2_25 
REMARK   17  A    between atoms: P2_25  and  O9_27 
REMARK   18  A    between atoms: P2_25  and  O10_28 
REMARK   19  A    between atoms: O10_28  and  C14_29 
REMARK   20  A    between atoms: C14_29  and  C15_30 
REMARK   21  A    between atoms: C16_31  and  O13_49 
REMARK   22  A    between atoms: C17_32  and  O12_48 
REMARK   23  A    between atoms: C18_33  and  N3_35 
REMARK   24  A    between atoms: C21_40  and  N7_47 
REMARK   25  A    between atoms: O13_49  and  P3_50 
REMARK   26  A    between atoms: P3_50  and  O15_52 
REMARK   27  A    between atoms: P3_50  and  O16_53 
ROOT
HETATM    1  C1  UNL     1     -21.160  -7.030  -9.569  1.00  0.00     0.104 C 
HETATM    2  C2  UNL     1     -20.952  -6.282 -10.851  1.00  0.00     0.182 C 
HETATM    3  O1  UNL     1     -21.664  -5.347 -11.209  1.00  0.00    -0.286 OA
ENDROOT
BRANCH   2   4
HETATM    4  S1  UNL     1     -19.620  -6.879 -11.831  1.00  0.00    -0.091 SA
BRANCH   4   5
HETATM    5  C3  UNL     1     -18.899  -5.303 -12.393  1.00  0.00     0.102 C 
BRANCH   5   6
HETATM    6  C4  UNL     1     -18.544  -5.337 -13.880  1.00  0.00     0.133 C 
BRANCH   6   7
HETATM    7  N1  UNL     1     -17.137  -5.594 -14.113  1.00  0.00    -0.360 N 
HETATM    8  C5  UNL     1     -16.530  -5.272 -15.305  1.00  0.00     0.219 C 
HETATM    9  O2  UNL     1     -17.151  -4.827 -16.263  1.00  0.00    -0.274 OA
HETATM   10  H8  UNL     1     -16.591  -6.015 -13.374  1.00  0.00     0.162 HD
BRANCH   8  11
HETATM   11  C6  UNL     1     -15.047  -5.572 -15.322  1.00  0.00     0.122 C 
BRANCH  11  12
HETATM   12  C7  UNL     1     -14.551  -6.077 -13.967  1.00  0.00     0.132 C 
BRANCH  12  13
HETATM   13  N2  UNL     1     -13.770  -5.094 -13.247  1.00  0.00    -0.358 N 
HETATM   14  C8  UNL     1     -14.295  -4.469 -12.131  1.00  0.00     0.247 C 
HETATM   15  O3  UNL     1     -15.458  -4.626 -11.783  1.00  0.00    -0.271 OA
HETATM   16  H13 UNL     1     -12.762  -5.232 -13.272  1.00  0.00     0.162 HD
BRANCH  14  17
HETATM   17  C9  UNL     1     -13.302  -3.585 -11.361  1.00  0.00     0.219 C 
BRANCH  17  18
HETATM   18  C10 UNL     1     -12.787  -4.203 -10.034  1.00  0.00     0.009 C 
HETATM   19  C11 UNL     1     -12.855  -5.737 -10.046  1.00  0.00     0.020 C 
HETATM   20  C12 UNL     1     -11.328  -3.794  -9.749  1.00  0.00     0.020 C 
BRANCH  18  21
HETATM   21  C13 UNL     1     -13.715  -3.647  -8.916  1.00  0.00     0.192 C 
BRANCH  21  22
HETATM   22  O4  UNL     1     -13.061  -3.560  -7.667  1.00  0.00    -0.296 OA
BRANCH  22  23
HETATM   23  P1  UNL     1     -13.829  -3.211  -6.303  1.00  0.00     0.401 P 
HETATM   24  O5  UNL     1     -13.277  -2.026  -5.575  1.00  0.00    -0.631 OA
BRANCH  23  25
HETATM   25  O6  UNL     1     -13.853  -4.560  -5.425  1.00  0.00    -0.307 OA
HETATM   26  H23 UNL     1     -14.546  -5.167  -5.714  1.00  0.00     0.222 HD
ENDBRANCH  23  25
BRANCH  23  27
HETATM   27  O7  UNL     1     -15.360  -3.084  -6.716  1.00  0.00    -0.195 OA
BRANCH  27  28
HETATM   28  P2  UNL     1     -16.479  -3.325  -5.608  1.00  0.00     0.401 P 
HETATM   29  O8  UNL     1     -16.979  -4.724  -5.445  1.00  0.00    -0.631 OA
BRANCH  28  30
HETATM   30  O9  UNL     1     -15.826  -2.710  -4.287  1.00  0.00    -0.307 OA
HETATM   31  H24 UNL     1     -15.655  -3.373  -3.574  1.00  0.00     0.222 HD
ENDBRANCH  28  30
BRANCH  28  32
HETATM   32  O10 UNL     1     -17.587  -2.221  -5.930  1.00  0.00    -0.294 OA
BRANCH  32  33
HETATM   33  C14 UNL     1     -18.435  -1.760  -4.912  1.00  0.00     0.215 C 
BRANCH  33  34
HETATM   34  C15 UNL     1     -19.600  -1.060  -5.611  1.00  0.00     0.180 C 
HETATM   35  C16 UNL     1     -19.621  -1.444  -7.085  1.00  0.00     0.197 C 
HETATM   36  C17 UNL     1     -19.406  -0.137  -7.825  1.00  0.00     0.199 C 
HETATM   37  C18 UNL     1     -19.923   0.893  -6.818  1.00  0.00     0.262 C 
HETATM   38  O11 UNL     1     -19.522   0.368  -5.533  1.00  0.00    -0.353 OA
BRANCH  35  39
HETATM   39  O13 UNL     1     -20.891  -2.021  -7.372  1.00  0.00    -0.286 OA
BRANCH  39  40
HETATM   40  P3  UNL     1     -20.853  -3.480  -8.023  1.00  0.00     0.391 P 
HETATM   41  O14 UNL     1     -22.069  -4.300  -7.736  1.00  0.00    -0.632 OA
BRANCH  40  42
HETATM   42  O15 UNL     1     -19.451  -4.018  -7.471  1.00  0.00    -0.307 OA
HETATM   43  H36 UNL     1     -19.488  -4.150  -6.494  1.00  0.00     0.222 HD
ENDBRANCH  40  42
BRANCH  40  44
HETATM   44  O16 UNL     1     -20.537  -3.140  -9.543  1.00  0.00    -0.307 OA
HETATM   45  H37 UNL     1     -20.901  -2.284  -9.821  1.00  0.00     0.222 HD
ENDBRANCH  40  44
ENDBRANCH  39  40
ENDBRANCH  35  39
BRANCH  36  46
HETATM   46  O12 UNL     1     -20.044  -0.181  -9.104  1.00  0.00    -0.388 OA
HETATM   47  H35 UNL     1     -19.967  -1.113  -9.421  1.00  0.00     0.210 HD
ENDBRANCH  36  46
BRANCH  37  48
HETATM   48  N3  UNL     1     -19.318   2.198  -6.997  1.00  0.00    -0.297 N 
HETATM   49  C19 UNL     1     -18.014   2.553  -6.737  1.00  0.00     0.188 A 
HETATM   50  N4  UNL     1     -17.745   3.780  -7.125  1.00  0.00    -0.346 N 
HETATM   51  C20 UNL     1     -18.931   4.243  -7.667  1.00  0.00     0.116 A 
HETATM   52  H4  UNL     1     -16.859   4.280  -7.044  1.00  0.00     0.167 HD
HETATM   53  C21 UNL     1     -19.287   5.453  -8.286  1.00  0.00     0.109 A 
HETATM   54  C23 UNL     1     -19.924   3.287  -7.558  1.00  0.00     0.142 A 
HETATM   55  N5  UNL     1     -20.563   5.613  -8.714  1.00  0.00    -0.341 N 
HETATM   56  C22 UNL     1     -21.432   4.601  -8.519  1.00  0.00     0.183 A 
HETATM   57  H5  UNL     1     -20.858   6.476  -9.171  1.00  0.00     0.167 HD
HETATM   58  N6  UNL     1     -21.206   3.400  -7.950  1.00  0.00    -0.336 N 
HETATM   59  H6  UNL     1     -21.912   2.673  -7.832  1.00  0.00     0.168 HD
BRANCH  53  60
HETATM   60  N7  UNL     1     -18.401   6.502  -8.475  1.00  0.00    -0.287 NA
HETATM   61  H33 UNL     1     -18.824   7.344  -8.861  1.00  0.00     0.125 HD
HETATM   62  H34 UNL     1     -17.522   6.208  -8.880  1.00  0.00     0.125 HD
ENDBRANCH  53  60
ENDBRANCH  37  48
ENDBRANCH  33  34
ENDBRANCH  32  33
ENDBRANCH  28  32
ENDBRANCH  27  28
ENDBRANCH  23  27
ENDBRANCH  22  23
ENDBRANCH  21  22
ENDBRANCH  18  21
ENDBRANCH  17  18
BRANCH  17  63
HETATM   63  O17 UNL     1     -12.174  -3.276 -12.186  1.00  0.00    -0.385 OA
HETATM   64  H38 UNL     1     -12.505  -2.993 -13.055  1.00  0.00     0.210 HD
ENDBRANCH  17  63
ENDBRANCH  14  17
ENDBRANCH  12  13
ENDBRANCH  11  12
ENDBRANCH   8  11
ENDBRANCH   6   7
ENDBRANCH   5   6
ENDBRANCH   4   5
ENDBRANCH   2   4
TORSDOF 27
ENDMDL
MODEL 8
REMARK VINA RESULT:      -6.2      5.467      9.328
REMARK  27 active torsions:
REMARK  status: ('A' for Active; 'I' for Inactive)
REMARK    1  A    between atoms: C2_2  and  S1_4 
REMARK    2  A    between atoms: S1_4  and  C3_5 
REMARK    3  A    between atoms: C3_5  and  C4_6 
REMARK    4  A    between atoms: C4_6  and  N1_7 
REMARK       I    between atoms: N1_7  and  C5_8 
REMARK    5  A    between atoms: C5_8  and  C6_10 
REMARK    6  A    between atoms: C6_10  and  C7_11 
REMARK    7  A    between atoms: C7_11  and  N2_12 
REMARK       I    between atoms: N2_12  and  C8_13 
REMARK    8  A    between atoms: C8_13  and  C9_15 
REMARK    9  A    between atoms: C9_15  and  C10_16 
REMARK   10  A    between atoms: C9_15  and  O17_54 
REMARK   11  A    between atoms: C10_16  and  C13_19 
REMARK   12  A    between atoms: C13_19  and  O4_20 
REMARK   13  A    between atoms: O4_20  and  P1_21 
REMARK   14  A    between atoms: P1_21  and  O6_23 
REMARK   15  A    between atoms: P1_21  and  O7_24 
REMARK   16  A    between atoms: O7_24  and  P2_25 
REMARK   17  A    between atoms: P2_25  and  O9_27 
REMARK   18  A    between atoms: P2_25  and  O10_28 
REMARK   19  A    between atoms: O10_28  and  C14_29 
REMARK   20  A    between atoms: C14_29  and  C15_30 
REMARK   21  A    between atoms: C16_31  and  O13_49 
REMARK   22  A    between atoms: C17_32  and  O12_48 
REMARK   23  A    between atoms: C18_33  and  N3_35 
REMARK   24  A    between atoms: C21_40  and  N7_47 
REMARK   25  A    between atoms: O13_49  and  P3_50 
REMARK   26  A    between atoms: P3_50  and  O15_52 
REMARK   27  A    between atoms: P3_50  and  O16_53 
ROOT
HETATM    1  C1  UNL     1     -23.009  -3.426  -5.077  1.00  0.00     0.104 C 
HETATM    2  C2  UNL     1     -22.098  -2.280  -5.394  1.00  0.00     0.182 C 
HETATM    3  O1  UNL     1     -22.475  -1.111  -5.443  1.00  0.00    -0.286 OA
ENDROOT
BRANCH   2   4
HETATM    4  S1  UNL     1     -20.437  -2.747  -5.735  1.00  0.00    -0.091 SA
BRANCH   4   5
HETATM    5  C3  UNL     1     -19.559  -1.757  -4.483  1.00  0.00     0.102 C 
BRANCH   5   6
HETATM    6  C4  UNL     1     -19.996  -2.118  -3.062  1.00  0.00     0.133 C 
BRANCH   6   7
HETATM    7  N1  UNL     1     -19.641  -3.473  -2.694  1.00  0.00    -0.360 N 
HETATM    8  C5  UNL     1     -18.498  -3.755  -1.983  1.00  0.00     0.219 C 
HETATM    9  O2  UNL     1     -17.676  -2.895  -1.688  1.00  0.00    -0.274 OA
HETATM   10  H8  UNL     1     -20.258  -4.228  -2.965  1.00  0.00     0.162 HD
BRANCH   8  11
HETATM   11  C6  UNL     1     -18.343  -5.224  -1.655  1.00  0.00     0.122 C 
BRANCH  11  12
HETATM   12  C7  UNL     1     -17.035  -5.796  -2.201  1.00  0.00     0.132 C 
BRANCH  12  13
HETATM   13  N2  UNL     1     -16.614  -5.169  -3.436  1.00  0.00    -0.358 N 
HETATM   14  C8  UNL     1     -15.332  -4.663  -3.558  1.00  0.00     0.247 C 
HETATM   15  O3  UNL     1     -14.557  -4.617  -2.612  1.00  0.00    -0.271 OA
HETATM   16  H13 UNL     1     -17.057  -5.524  -4.281  1.00  0.00     0.162 HD
BRANCH  14  17
HETATM   17  C9  UNL     1     -14.960  -4.189  -4.971  1.00  0.00     0.219 C 
BRANCH  17  18
HETATM   18  C10 UNL     1     -14.179  -2.848  -5.013  1.00  0.00     0.009 C 
HETATM   19  C11 UNL     1     -14.966  -1.700  -4.364  1.00  0.00     0.020 C 
HETATM   20  C12 UNL     1     -12.822  -2.962  -4.291  1.00  0.00     0.020 C 
BRANCH  18  21
HETATM   21  C13 UNL     1     -13.948  -2.537  -6.520  1.00  0.00     0.192 C 
BRANCH  21  22
HETATM   22  O4  UNL     1     -12.749  -3.103  -7.009  1.00  0.00    -0.296 OA
BRANCH  22  23
HETATM   23  P1  UNL     1     -12.051  -2.623  -8.370  1.00  0.00     0.401 P 
HETATM   24  O5  UNL     1     -10.758  -3.312  -8.671  1.00  0.00    -0.631 OA
BRANCH  23  25
HETATM   25  O6  UNL     1     -11.931  -1.020  -8.291  1.00  0.00    -0.307 OA
HETATM   26  H23 UNL     1     -11.200  -0.740  -7.725  1.00  0.00     0.222 HD
ENDBRANCH  23  25
BRANCH  23  27
HETATM   27  O7  UNL     1     -13.171  -2.794  -9.488  1.00  0.00    -0.195 OA
BRANCH  27  28
HETATM   28  P2  UNL     1     -12.770  -2.590 -11.016  1.00  0.00     0.401 P 
HETATM   29  O8  UNL     1     -12.073  -1.316 -11.369  1.00  0.00    -0.631 OA
BRANCH  28  30
HETATM   30  O9  UNL     1     -11.932  -3.906 -11.355  1.00  0.00    -0.307 OA
HETATM   31  H24 UNL     1     -12.305  -4.442 -12.097  1.00  0.00     0.222 HD
ENDBRANCH  28  30
BRANCH  28  32
HETATM   32  O10 UNL     1     -14.121  -2.889 -11.813  1.00  0.00    -0.294 OA
BRANCH  32  33
HETATM   33  C14 UNL     1     -14.337  -4.154 -12.380  1.00  0.00     0.215 C 
BRANCH  33  34
HETATM   34  C15 UNL     1     -15.330  -4.869 -11.465  1.00  0.00     0.180 C 
HETATM   35  C16 UNL     1     -15.947  -6.052 -12.198  1.00  0.00     0.197 C 
HETATM   36  C17 UNL     1     -17.428  -5.733 -12.266  1.00  0.00     0.199 C 
HETATM   37  C18 UNL     1     -17.613  -4.802 -11.064  1.00  0.00     0.262 C 
HETATM   38  O11 UNL     1     -16.398  -4.021 -11.029  1.00  0.00    -0.353 OA
BRANCH  35  39
HETATM   39  O13 UNL     1     -15.685  -7.227 -11.438  1.00  0.00    -0.286 OA
BRANCH  39  40
HETATM   40  P3  UNL     1     -14.955  -8.411 -12.227  1.00  0.00     0.391 P 
HETATM   41  O14 UNL     1     -14.932  -9.707 -11.484  1.00  0.00    -0.632 OA
BRANCH  40  42
HETATM   42  O15 UNL     1     -13.550  -7.724 -12.563  1.00  0.00    -0.307 OA
HETATM   43  H36 UNL     1     -13.638  -7.103 -13.324  1.00  0.00     0.222 HD
ENDBRANCH  40  42
BRANCH  40  44
HETATM   44  O16 UNL     1     -15.717  -8.376 -13.623  1.00  0.00    -0.307 OA
HETATM   45  H37 UNL     1     -16.667  -8.205 -13.528  1.00  0.00     0.222 HD
ENDBRANCH  40  44
ENDBRANCH  39  40
ENDBRANCH  35  39
BRANCH  36  46
HETATM   46  O12 UNL     1     -18.196  -6.940 -12.286  1.00  0.00    -0.388 OA
HETATM   47  H35 UNL     1     -18.848  -6.842 -13.019  1.00  0.00     0.210 HD
ENDBRANCH  36  46
BRANCH  37  48
HETATM   48  N3  UNL     1     -18.740  -3.906 -11.223  1.00  0.00    -0.297 N 
HETATM   49  C19 UNL     1     -19.809  -4.057 -12.075  1.00  0.00     0.188 A 
HETATM   50  N4  UNL     1     -20.729  -3.135 -11.890  1.00  0.00    -0.346 N 
HETATM   51  C20 UNL     1     -20.233  -2.350 -10.864  1.00  0.00     0.116 A 
HETATM   52  H4  UNL     1     -21.611  -3.024 -12.390  1.00  0.00     0.167 HD
HETATM   53  C21 UNL     1     -20.753  -1.237 -10.179  1.00  0.00     0.109 A 
HETATM   54  C23 UNL     1     -18.984  -2.792 -10.469  1.00  0.00     0.142 A 
HETATM   55  N5  UNL     1     -20.004  -0.667  -9.205  1.00  0.00    -0.341 N 
HETATM   56  C22 UNL     1     -18.791  -1.192  -8.943  1.00  0.00     0.183 A 
HETATM   57  H5  UNL     1     -20.349   0.139  -8.684  1.00  0.00     0.167 HD
HETATM   58  N6  UNL     1     -18.195  -2.254  -9.522  1.00  0.00    -0.336 N 
HETATM   59  H6  UNL     1     -17.268  -2.603  -9.276  1.00  0.00     0.168 HD
BRANCH  53  60
HETATM   60  N7  UNL     1     -21.994  -0.684 -10.455  1.00  0.00    -0.287 NA
HETATM   61  H33 UNL     1     -22.627  -0.657  -9.659  1.00  0.00     0.125 HD
HETATM   62  H34 UNL     1     -22.380  -1.001 -11.334  1.00  0.00     0.125 HD
ENDBRANCH  53  60
ENDBRANCH  37  48
ENDBRANCH  33  34
ENDBRANCH  32  33
ENDBRANCH  28  32
ENDBRANCH  27  28
ENDBRANCH  23  27
ENDBRANCH  22  23
ENDBRANCH  21  22
ENDBRANCH  18  21
ENDBRANCH  17  18
BRANCH  17  63
HETATM   63  O17 UNL     1     -14.182  -5.189  -5.638  1.00  0.00    -0.385 OA
HETATM   64  H38 UNL     1     -13.420  -4.751  -6.053  1.00  0.00     0.210 HD
ENDBRANCH  17  63
ENDBRANCH  14  17
ENDBRANCH  12  13
ENDBRANCH  11  12
ENDBRANCH   8  11
ENDBRANCH   6   7
ENDBRANCH   5   6
ENDBRANCH   4   5
ENDBRANCH   2   4
TORSDOF 27
ENDMDL
MODEL 9
REMARK VINA RESULT:      -6.1      5.190     10.392
REMARK  27 active torsions:
REMARK  status: ('A' for Active; 'I' for Inactive)
REMARK    1  A    between atoms: C2_2  and  S1_4 
REMARK    2  A    between atoms: S1_4  and  C3_5 
REMARK    3  A    between atoms: C3_5  and  C4_6 
REMARK    4  A    between atoms: C4_6  and  N1_7 
REMARK       I    between atoms: N1_7  and  C5_8 
REMARK    5  A    between atoms: C5_8  and  C6_10 
REMARK    6  A    between atoms: C6_10  and  C7_11 
REMARK    7  A    between atoms: C7_11  and  N2_12 
REMARK       I    between atoms: N2_12  and  C8_13 
REMARK    8  A    between atoms: C8_13  and  C9_15 
REMARK    9  A    between atoms: C9_15  and  C10_16 
REMARK   10  A    between atoms: C9_15  and  O17_54 
REMARK   11  A    between atoms: C10_16  and  C13_19 
REMARK   12  A    between atoms: C13_19  and  O4_20 
REMARK   13  A    between atoms: O4_20  and  P1_21 
REMARK   14  A    between atoms: P1_21  and  O6_23 
REMARK   15  A    between atoms: P1_21  and  O7_24 
REMARK   16  A    between atoms: O7_24  and  P2_25 
REMARK   17  A    between atoms: P2_25  and  O9_27 
REMARK   18  A    between atoms: P2_25  and  O10_28 
REMARK   19  A    between atoms: O10_28  and  C14_29 
REMARK   20  A    between atoms: C14_29  and  C15_30 
REMARK   21  A    between atoms: C16_31  and  O13_49 
REMARK   22  A    between atoms: C17_32  and  O12_48 
REMARK   23  A    between atoms: C18_33  and  N3_35 
REMARK   24  A    between atoms: C21_40  and  N7_47 
REMARK   25  A    between atoms: O13_49  and  P3_50 
REMARK   26  A    between atoms: P3_50  and  O15_52 
REMARK   27  A    between atoms: P3_50  and  O16_53 
ROOT
HETATM    1  C1  UNL     1     -18.003  -9.369  -3.018  1.00  0.00     0.104 C 
HETATM    2  C2  UNL     1     -16.955  -8.370  -3.403  1.00  0.00     0.182 C 
HETATM    3  O1  UNL     1     -16.109  -8.579  -4.269  1.00  0.00    -0.286 OA
ENDROOT
BRANCH   2   4
HETATM    4  S1  UNL     1     -17.006  -6.874  -2.480  1.00  0.00    -0.091 SA
BRANCH   4   5
HETATM    5  C3  UNL     1     -18.164  -5.904  -3.499  1.00  0.00     0.102 C 
BRANCH   5   6
HETATM    6  C4  UNL     1     -19.587  -5.946  -2.941  1.00  0.00     0.133 C 
BRANCH   6   7
HETATM    7  N1  UNL     1     -20.241  -4.653  -2.978  1.00  0.00    -0.360 N 
HETATM    8  C5  UNL     1     -20.219  -3.801  -1.898  1.00  0.00     0.219 C 
HETATM    9  O2  UNL     1     -19.722  -4.111  -0.822  1.00  0.00    -0.274 OA
HETATM   10  H8  UNL     1     -20.717  -4.373  -3.824  1.00  0.00     0.162 HD
BRANCH   8  11
HETATM   11  C6  UNL     1     -20.912  -2.482  -2.163  1.00  0.00     0.122 C 
BRANCH  11  12
HETATM   12  C7  UNL     1     -22.003  -2.613  -3.225  1.00  0.00     0.132 C 
BRANCH  12  13
HETATM   13  N2  UNL     1     -21.755  -1.800  -4.397  1.00  0.00    -0.358 N 
HETATM   14  C8  UNL     1     -22.798  -1.140  -5.021  1.00  0.00     0.247 C 
HETATM   15  O3  UNL     1     -23.965  -1.305  -4.690  1.00  0.00    -0.271 OA
HETATM   16  H13 UNL     1     -20.835  -1.366  -4.442  1.00  0.00     0.162 HD
BRANCH  14  17
HETATM   17  C9  UNL     1     -22.373  -0.176  -6.139  1.00  0.00     0.219 C 
BRANCH  17  18
HETATM   18  C10 UNL     1     -22.305  -0.818  -7.550  1.00  0.00     0.009 C 
HETATM   19  C11 UNL     1     -22.979  -2.198  -7.590  1.00  0.00     0.020 C 
HETATM   20  C12 UNL     1     -22.983   0.073  -8.609  1.00  0.00     0.020 C 
BRANCH  18  21
HETATM   21  C13 UNL     1     -20.792  -0.967  -7.879  1.00  0.00     0.192 C 
BRANCH  21  22
HETATM   22  O4  UNL     1     -20.386  -2.319  -7.948  1.00  0.00    -0.296 OA
BRANCH  22  23
HETATM   23  P1  UNL     1     -19.239  -2.932  -7.011  1.00  0.00     0.401 P 
HETATM   24  O5  UNL     1     -19.741  -3.496  -5.719  1.00  0.00    -0.631 OA
BRANCH  23  25
HETATM   25  O6  UNL     1     -18.124  -1.786  -6.829  1.00  0.00    -0.307 OA
HETATM   26  H23 UNL     1     -18.513  -0.939  -6.577  1.00  0.00     0.222 HD
ENDBRANCH  23  25
BRANCH  23  27
HETATM   27  O7  UNL     1     -18.466  -3.972  -7.934  1.00  0.00    -0.195 OA
BRANCH  27  28
HETATM   28  P2  UNL     1     -18.311  -3.655  -9.488  1.00  0.00     0.401 P 
HETATM   29  O8  UNL     1     -19.474  -3.983 -10.366  1.00  0.00    -0.631 OA
BRANCH  28  30
HETATM   30  O9  UNL     1     -17.895  -2.113  -9.507  1.00  0.00    -0.307 OA
HETATM   31  H24 UNL     1     -18.330  -1.569  -8.805  1.00  0.00     0.222 HD
ENDBRANCH  28  30
BRANCH  28  32
HETATM   32  O10 UNL     1     -16.923  -4.338  -9.884  1.00  0.00    -0.294 OA
BRANCH  32  33
HETATM   33  C14 UNL     1     -16.679  -4.711 -11.215  1.00  0.00     0.215 C 
BRANCH  33  34
HETATM   34  C15 UNL     1     -15.408  -3.976 -11.638  1.00  0.00     0.180 C 
HETATM   35  C16 UNL     1     -14.297  -4.982 -11.908  1.00  0.00     0.197 C 
HETATM   36  C17 UNL     1     -13.221  -4.649 -10.892  1.00  0.00     0.199 C 
HETATM   37  C18 UNL     1     -13.495  -3.170 -10.605  1.00  0.00     0.262 C 
HETATM   38  O11 UNL     1     -14.935  -3.060 -10.644  1.00  0.00    -0.353 OA
BRANCH  35  39
HETATM   39  O13 UNL     1     -13.847  -4.793 -13.246  1.00  0.00    -0.286 OA
BRANCH  39  40
HETATM   40  P3  UNL     1     -13.997  -6.061 -14.208  1.00  0.00     0.391 P 
HETATM   41  O14 UNL     1     -15.393  -6.587 -14.299  1.00  0.00    -0.632 OA
BRANCH  40  42
HETATM   42  O15 UNL     1     -12.878  -7.031 -13.603  1.00  0.00    -0.307 OA
HETATM   43  H36 UNL     1     -12.211  -6.516 -13.090  1.00  0.00     0.222 HD
ENDBRANCH  40  42
BRANCH  40  44
HETATM   44  O16 UNL     1     -13.325  -5.524 -15.545  1.00  0.00    -0.307 OA
HETATM   45  H37 UNL     1     -13.409  -6.145 -16.286  1.00  0.00     0.222 HD
ENDBRANCH  40  44
ENDBRANCH  39  40
ENDBRANCH  35  39
BRANCH  36  46
HETATM   46  O12 UNL     1     -11.931  -4.990 -11.405  1.00  0.00    -0.388 OA
HETATM   47  H35 UNL     1     -11.550  -5.652 -10.780  1.00  0.00     0.210 HD
ENDBRANCH  36  46
BRANCH  37  48
HETATM   48  N3  UNL     1     -13.032  -2.763  -9.293  1.00  0.00    -0.297 N 
HETATM   49  C19 UNL     1     -11.921  -2.006  -9.002  1.00  0.00     0.188 A 
HETATM   50  N4  UNL     1     -11.845  -1.702  -7.725  1.00  0.00    -0.346 N 
HETATM   51  C20 UNL     1     -12.965  -2.287  -7.160  1.00  0.00     0.116 A 
HETATM   52  H4  UNL     1     -11.123  -1.157  -7.255  1.00  0.00     0.167 HD
HETATM   53  C21 UNL     1     -13.479  -2.295  -5.852  1.00  0.00     0.109 A 
HETATM   54  C23 UNL     1     -13.688  -2.981  -8.114  1.00  0.00     0.142 A 
HETATM   55  N5  UNL     1     -14.619  -2.985  -5.607  1.00  0.00    -0.341 N 
HETATM   56  C22 UNL     1     -15.205  -3.635  -6.632  1.00  0.00     0.183 A 
HETATM   57  H5  UNL     1     -15.024  -3.011  -4.671  1.00  0.00     0.167 HD
HETATM   58  N6  UNL     1     -14.813  -3.692  -7.921  1.00  0.00    -0.336 N 
HETATM   59  H6  UNL     1     -15.304  -4.206  -8.653  1.00  0.00     0.168 HD
BRANCH  53  60
HETATM   60  N7  UNL     1     -12.873  -1.640  -4.791  1.00  0.00    -0.287 NA
HETATM   61  H33 UNL     1     -11.929  -1.960  -4.586  1.00  0.00     0.125 HD
HETATM   62  H34 UNL     1     -13.492  -1.511  -4.002  1.00  0.00     0.125 HD
ENDBRANCH  53  60
ENDBRANCH  37  48
ENDBRANCH  33  34
ENDBRANCH  32  33
ENDBRANCH  28  32
ENDBRANCH  27  28
ENDBRANCH  23  27
ENDBRANCH  22  23
ENDBRANCH  21  22
ENDBRANCH  18  21
ENDBRANCH  17  18
BRANCH  17  63
HETATM   63  O17 UNL     1     -23.265   0.942  -6.191  1.00  0.00    -0.385 OA
HETATM   64  H38 UNL     1     -22.899   1.646  -5.629  1.00  0.00     0.210 HD
ENDBRANCH  17  63
ENDBRANCH  14  17
ENDBRANCH  12  13
ENDBRANCH  11  12
ENDBRANCH   8  11
ENDBRANCH   6   7
ENDBRANCH   5   6
ENDBRANCH   4   5
ENDBRANCH   2   4
TORSDOF 27
ENDMDL
