MODEL 1
REMARK VINA RESULT:      -5.2      0.000      0.000
REMARK  2 active torsions:
REMARK  status: ('A' for Active; 'I' for Inactive)
REMARK    1  A    between atoms: C3_3  and  O1_8 
REMARK    2  A    between atoms: C6_6  and  N1_7 
ROOT
HETATM    1  C1  UNL     1       0.475   8.729  -2.349  1.00  0.00     0.026 A 
HETATM    2  C2  UNL     1       1.567   8.003  -1.867  1.00  0.00     0.038 A 
HETATM    3  C3  UNL     1       2.846   8.528  -1.981  1.00  0.00     0.065 A 
HETATM    4  C4  UNL     1       3.049   9.778  -2.555  1.00  0.00     0.038 A 
HETATM    5  C5  UNL     1       1.952  10.498  -3.037  1.00  0.00     0.026 A 
HETATM    6  C6  UNL     1       0.662   9.960  -2.984  1.00  0.00     0.005 A 
ENDROOT
BRANCH   6   7
HETATM    7  N1  UNL     1      -0.441  10.736  -3.358  1.00  0.00    -0.303 NA
HETATM    8  H5  UNL     1      -0.337  11.723  -3.144  1.00  0.00     0.124 HD
HETATM    9  H6  UNL     1      -1.330  10.364  -3.043  1.00  0.00     0.124 HD
ENDBRANCH   6   7
BRANCH   3  10
HETATM   10  O1  UNL     1       3.884   7.791  -1.496  1.00  0.00    -0.361 OA
HETATM   11  H7  UNL     1       4.713   8.260  -1.688  1.00  0.00     0.217 HD
ENDBRANCH   3  10
TORSDOF 2
ENDMDL
MODEL 2
REMARK VINA RESULT:      -5.1      2.781      3.266
REMARK  2 active torsions:
REMARK  status: ('A' for Active; 'I' for Inactive)
REMARK    1  A    between atoms: C3_3  and  O1_8 
REMARK    2  A    between atoms: C6_6  and  N1_7 
ROOT
HETATM    1  C1  UNL     1       1.447   8.120  -1.931  1.00  0.00     0.026 A 
HETATM    2  C2  UNL     1       0.372   8.864  -2.421  1.00  0.00     0.038 A 
HETATM    3  C3  UNL     1       0.603  10.092  -3.024  1.00  0.00     0.065 A 
HETATM    4  C4  UNL     1       1.898  10.582  -3.159  1.00  0.00     0.038 A 
HETATM    5  C5  UNL     1       2.969   9.832  -2.664  1.00  0.00     0.026 A 
HETATM    6  C6  UNL     1       2.751   8.620  -2.002  1.00  0.00     0.005 A 
ENDROOT
BRANCH   6   7
HETATM    7  N1  UNL     1       3.834   7.822  -1.617  1.00  0.00    -0.303 NA
HETATM    8  H5  UNL     1       4.701   8.053  -2.094  1.00  0.00     0.124 HD
HETATM    9  H6  UNL     1       3.638   6.827  -1.634  1.00  0.00     0.124 HD
ENDBRANCH   6   7
BRANCH   3  10
HETATM   10  O1  UNL     1      -0.472  10.786  -3.492  1.00  0.00    -0.361 OA
HETATM   11  H7  UNL     1      -0.439  10.791  -4.462  1.00  0.00     0.217 HD
ENDBRANCH   3  10
TORSDOF 2
ENDMDL
MODEL 3
REMARK VINA RESULT:      -5.1      2.778      3.680
REMARK  2 active torsions:
REMARK  status: ('A' for Active; 'I' for Inactive)
REMARK    1  A    between atoms: C3_3  and  O1_8 
REMARK    2  A    between atoms: C6_6  and  N1_7 
ROOT
HETATM    1  C1  UNL     1       3.048   9.832  -2.648  1.00  0.00     0.026 A 
HETATM    2  C2  UNL     1       1.919  10.539  -3.068  1.00  0.00     0.038 A 
HETATM    3  C3  UNL     1       0.658   9.982  -2.903  1.00  0.00     0.065 A 
HETATM    4  C4  UNL     1       0.508   8.734  -2.309  1.00  0.00     0.038 A 
HETATM    5  C5  UNL     1       1.643   8.032  -1.892  1.00  0.00     0.026 A 
HETATM    6  C6  UNL     1       2.924   8.551  -2.103  1.00  0.00     0.005 A 
ENDROOT
BRANCH   6   7
HETATM    7  N1  UNL     1       4.044   7.897  -1.576  1.00  0.00    -0.303 NA
HETATM    8  H5  UNL     1       4.154   6.944  -1.908  1.00  0.00     0.124 HD
HETATM    9  H6  UNL     1       4.123   7.966  -0.567  1.00  0.00     0.124 HD
ENDBRANCH   6   7
BRANCH   3  10
HETATM   10  O1  UNL     1      -0.419  10.704  -3.323  1.00  0.00    -0.361 OA
HETATM   11  H7  UNL     1      -1.223  10.299  -2.962  1.00  0.00     0.217 HD
ENDBRANCH   3  10
TORSDOF 2
ENDMDL
MODEL 4
REMARK VINA RESULT:      -5.0      1.916      2.481
REMARK  2 active torsions:
REMARK  status: ('A' for Active; 'I' for Inactive)
REMARK    1  A    between atoms: C3_3  and  O1_8 
REMARK    2  A    between atoms: C6_6  and  N1_7 
ROOT
HETATM    1  C1  UNL     1       0.754  10.943  -3.423  1.00  0.00     0.026 A 
HETATM    2  C2  UNL     1       0.119   9.801  -2.930  1.00  0.00     0.038 A 
HETATM    3  C3  UNL     1       0.869   8.808  -2.315  1.00  0.00     0.065 A 
HETATM    4  C4  UNL     1       2.245   8.948  -2.170  1.00  0.00     0.038 A 
HETATM    5  C5  UNL     1       2.874  10.093  -2.667  1.00  0.00     0.026 A 
HETATM    6  C6  UNL     1       2.144  11.076  -3.342  1.00  0.00     0.005 A 
ENDROOT
BRANCH   6   7
HETATM    7  N1  UNL     1       2.761  12.271  -3.730  1.00  0.00    -0.303 NA
HETATM    8  H5  UNL     1       3.545  12.139  -4.362  1.00  0.00     0.124 HD
HETATM    9  H6  UNL     1       2.989  12.885  -2.955  1.00  0.00     0.124 HD
ENDBRANCH   6   7
BRANCH   3  10
HETATM   10  O1  UNL     1       0.213   7.711  -1.844  1.00  0.00    -0.361 OA
HETATM   11  H7  UNL     1      -0.600   8.002  -1.401  1.00  0.00     0.217 HD
ENDBRANCH   3  10
TORSDOF 2
ENDMDL
MODEL 5
REMARK VINA RESULT:      -4.9      1.897      2.560
REMARK  2 active torsions:
REMARK  status: ('A' for Active; 'I' for Inactive)
REMARK    1  A    between atoms: C3_3  and  O1_8 
REMARK    2  A    between atoms: C6_6  and  N1_7 
ROOT
HETATM    1  C1  UNL     1       1.071   9.908  -2.854  1.00  0.00     0.026 A 
HETATM    2  C2  UNL     1       2.124  10.779  -3.144  1.00  0.00     0.038 A 
HETATM    3  C3  UNL     1       3.422  10.426  -2.802  1.00  0.00     0.065 A 
HETATM    4  C4  UNL     1       3.686   9.206  -2.189  1.00  0.00     0.038 A 
HETATM    5  C5  UNL     1       2.627   8.341  -1.901  1.00  0.00     0.026 A 
HETATM    6  C6  UNL     1       1.306   8.704  -2.184  1.00  0.00     0.005 A 
ENDROOT
BRANCH   6   7
HETATM    7  N1  UNL     1       0.268   7.783  -2.002  1.00  0.00    -0.303 NA
HETATM    8  H5  UNL     1      -0.584   8.197  -1.637  1.00  0.00     0.124 HD
HETATM    9  H6  UNL     1       0.542   6.950  -1.492  1.00  0.00     0.124 HD
ENDBRANCH   6   7
BRANCH   3  10
HETATM   10  O1  UNL     1       4.422  11.301  -3.104  1.00  0.00    -0.361 OA
HETATM   11  H7  UNL     1       5.127  10.819  -3.565  1.00  0.00     0.217 HD
ENDBRANCH   3  10
TORSDOF 2
ENDMDL
MODEL 6
REMARK VINA RESULT:      -4.9      2.104      2.694
REMARK  2 active torsions:
REMARK  status: ('A' for Active; 'I' for Inactive)
REMARK    1  A    between atoms: C3_3  and  O1_8 
REMARK    2  A    between atoms: C6_6  and  N1_7 
ROOT
HETATM    1  C1  UNL     1       3.425   9.345  -2.271  1.00  0.00     0.026 A 
HETATM    2  C2  UNL     1       2.481   8.376  -1.923  1.00  0.00     0.038 A 
HETATM    3  C3  UNL     1       1.140   8.590  -2.205  1.00  0.00     0.065 A 
HETATM    4  C4  UNL     1       0.728   9.754  -2.846  1.00  0.00     0.038 A 
HETATM    5  C5  UNL     1       1.678  10.720  -3.190  1.00  0.00     0.026 A 
HETATM    6  C6  UNL     1       3.026  10.548  -2.862  1.00  0.00     0.005 A 
ENDROOT
BRANCH   6   7
HETATM    7  N1  UNL     1       3.984  11.463  -3.315  1.00  0.00    -0.303 NA
HETATM    8  H5  UNL     1       4.878  11.387  -2.840  1.00  0.00     0.124 HD
HETATM    9  H6  UNL     1       3.649  12.420  -3.359  1.00  0.00     0.124 HD
ENDBRANCH   6   7
BRANCH   3  10
HETATM   10  O1  UNL     1       0.250   7.620  -1.852  1.00  0.00    -0.361 OA
HETATM   11  H7  UNL     1      -0.641   8.003  -1.848  1.00  0.00     0.217 HD
ENDBRANCH   3  10
TORSDOF 2
ENDMDL
MODEL 7
REMARK VINA RESULT:      -4.6      2.093      2.646
REMARK  2 active torsions:
REMARK  status: ('A' for Active; 'I' for Inactive)
REMARK    1  A    between atoms: C3_3  and  O1_8 
REMARK    2  A    between atoms: C6_6  and  N1_7 
ROOT
HETATM    1  C1  UNL     1       2.517  11.047  -3.207  1.00  0.00     0.026 A 
HETATM    2  C2  UNL     1       2.457  10.012  -2.271  1.00  0.00     0.038 A 
HETATM    3  C3  UNL     1       3.149   8.833  -2.505  1.00  0.00     0.065 A 
HETATM    4  C4  UNL     1       3.915   8.678  -3.655  1.00  0.00     0.038 A 
HETATM    5  C5  UNL     1       3.970   9.718  -4.588  1.00  0.00     0.026 A 
HETATM    6  C6  UNL     1       3.232  10.891  -4.398  1.00  0.00     0.005 A 
ENDROOT
BRANCH   6   7
HETATM    7  N1  UNL     1       3.387  11.970  -5.275  1.00  0.00    -0.303 NA
HETATM    8  H5  UNL     1       2.843  11.884  -6.128  1.00  0.00     0.124 HD
HETATM    9  H6  UNL     1       4.354  12.216  -5.458  1.00  0.00     0.124 HD
ENDBRANCH   6   7
BRANCH   3  10
HETATM   10  O1  UNL     1       3.067   7.847  -1.567  1.00  0.00    -0.361 OA
HETATM   11  H7  UNL     1       3.807   7.948  -0.947  1.00  0.00     0.217 HD
ENDBRANCH   3  10
TORSDOF 2
ENDMDL
MODEL 8
REMARK VINA RESULT:      -4.6      3.023      3.709
REMARK  2 active torsions:
REMARK  status: ('A' for Active; 'I' for Inactive)
REMARK    1  A    between atoms: C3_3  and  O1_8 
REMARK    2  A    between atoms: C6_6  and  N1_7 
ROOT
HETATM    1  C1  UNL     1       2.534  10.183  -2.407  1.00  0.00     0.026 A 
HETATM    2  C2  UNL     1       2.598  11.193  -3.370  1.00  0.00     0.038 A 
HETATM    3  C3  UNL     1       3.329  10.989  -4.532  1.00  0.00     0.065 A 
HETATM    4  C4  UNL     1       3.985   9.783  -4.753  1.00  0.00     0.038 A 
HETATM    5  C5  UNL     1       3.917   8.778  -3.784  1.00  0.00     0.026 A 
HETATM    6  C6  UNL     1       3.234   8.986  -2.581  1.00  0.00     0.005 A 
ENDROOT
BRANCH   6   7
HETATM    7  N1  UNL     1       3.072   7.935  -1.672  1.00  0.00    -0.303 NA
HETATM    8  H5  UNL     1       3.424   7.045  -2.010  1.00  0.00     0.124 HD
HETATM    9  H6  UNL     1       2.133   7.861  -1.294  1.00  0.00     0.124 HD
ENDBRANCH   6   7
BRANCH   3  10
HETATM   10  O1  UNL     1       3.366  11.997  -5.448  1.00  0.00    -0.361 OA
HETATM   11  H7  UNL     1       3.281  12.843  -4.981  1.00  0.00     0.217 HD
ENDBRANCH   3  10
TORSDOF 2
ENDMDL
MODEL 9
REMARK VINA RESULT:      -4.2      3.161      3.692
REMARK  2 active torsions:
REMARK  status: ('A' for Active; 'I' for Inactive)
REMARK    1  A    between atoms: C3_3  and  O1_8 
REMARK    2  A    between atoms: C6_6  and  N1_7 
ROOT
HETATM    1  C1  UNL     1       3.976   8.630  -4.741  1.00  0.00     0.026 A 
HETATM    2  C2  UNL     1       3.348   8.808  -3.506  1.00  0.00     0.038 A 
HETATM    3  C3  UNL     1       2.952  10.078  -3.112  1.00  0.00     0.065 A 
HETATM    4  C4  UNL     1       3.161  11.174  -3.942  1.00  0.00     0.038 A 
HETATM    5  C5  UNL     1       3.791  10.989  -5.176  1.00  0.00     0.026 A 
HETATM    6  C6  UNL     1       4.250   9.726  -5.565  1.00  0.00     0.005 A 
ENDROOT
BRANCH   6   7
HETATM    7  N1  UNL     1       4.771   9.530  -6.849  1.00  0.00    -0.303 NA
HETATM    8  H5  UNL     1       5.421   8.753  -6.911  1.00  0.00     0.124 HD
HETATM    9  H6  UNL     1       5.136  10.374  -7.277  1.00  0.00     0.124 HD
ENDBRANCH   6   7
BRANCH   3  10
HETATM   10  O1  UNL     1       2.340  10.210  -1.902  1.00  0.00    -0.361 OA
HETATM   11  H7  UNL     1       2.629   9.483  -1.328  1.00  0.00     0.217 HD
ENDBRANCH   3  10
TORSDOF 2
ENDMDL
MODEL 10
REMARK VINA RESULT:      -4.1      3.513      4.148
REMARK  2 active torsions:
REMARK  status: ('A' for Active; 'I' for Inactive)
REMARK    1  A    between atoms: C3_3  and  O1_8 
REMARK    2  A    between atoms: C6_6  and  N1_7 
ROOT
HETATM    1  C1  UNL     1       3.706   9.134  -3.746  1.00  0.00     0.026 A 
HETATM    2  C2  UNL     1       4.226  10.225  -4.446  1.00  0.00     0.038 A 
HETATM    3  C3  UNL     1       5.147  11.061  -3.830  1.00  0.00     0.065 A 
HETATM    4  C4  UNL     1       5.569  10.813  -2.529  1.00  0.00     0.038 A 
HETATM    5  C5  UNL     1       5.042   9.720  -1.834  1.00  0.00     0.026 A 
HETATM    6  C6  UNL     1       4.070   8.900  -2.417  1.00  0.00     0.005 A 
ENDROOT
BRANCH   6   7
HETATM    7  N1  UNL     1       3.639   7.742  -1.760  1.00  0.00    -0.303 NA
HETATM    8  H5  UNL     1       3.262   7.916  -0.833  1.00  0.00     0.124 HD
HETATM    9  H6  UNL     1       4.319   6.990  -1.766  1.00  0.00     0.124 HD
ENDBRANCH   6   7
BRANCH   3  10
HETATM   10  O1  UNL     1       5.633  12.113  -4.547  1.00  0.00    -0.361 OA
HETATM   11  H7  UNL     1       6.309  12.563  -4.016  1.00  0.00     0.217 HD
ENDBRANCH   3  10
TORSDOF 2
ENDMDL
MODEL 11
REMARK VINA RESULT:      -3.9      5.258      6.255
REMARK  2 active torsions:
REMARK  status: ('A' for Active; 'I' for Inactive)
REMARK    1  A    between atoms: C3_3  and  O1_8 
REMARK    2  A    between atoms: C6_6  and  N1_7 
ROOT
HETATM    1  C1  UNL     1       4.187  15.201  -5.200  1.00  0.00     0.026 A 
HETATM    2  C2  UNL     1       4.137  14.234  -4.194  1.00  0.00     0.038 A 
HETATM    3  C3  UNL     1       3.411  13.069  -4.395  1.00  0.00     0.065 A 
HETATM    4  C4  UNL     1       2.747  12.848  -5.597  1.00  0.00     0.038 A 
HETATM    5  C5  UNL     1       2.800  13.821  -6.599  1.00  0.00     0.026 A 
HETATM    6  C6  UNL     1       3.478  15.027  -6.392  1.00  0.00     0.005 A 
ENDROOT
BRANCH   6   7
HETATM    7  N1  UNL     1       3.626  15.941  -7.442  1.00  0.00    -0.303 NA
HETATM    8  H5  UNL     1       3.903  15.513  -8.319  1.00  0.00     0.124 HD
HETATM    9  H6  UNL     1       4.197  16.746  -7.207  1.00  0.00     0.124 HD
ENDBRANCH   6   7
BRANCH   3  10
HETATM   10  O1  UNL     1       3.389  12.148  -3.391  1.00  0.00    -0.361 OA
HETATM   11  H7  UNL     1       4.042  11.458  -3.588  1.00  0.00     0.217 HD
ENDBRANCH   3  10
TORSDOF 2
ENDMDL
MODEL 12
REMARK VINA RESULT:      -3.9      5.616      6.562
REMARK  2 active torsions:
REMARK  status: ('A' for Active; 'I' for Inactive)
REMARK    1  A    between atoms: C3_3  and  O1_8 
REMARK    2  A    between atoms: C6_6  and  N1_7 
ROOT
HETATM    1  C1  UNL     1       2.694  12.853  -5.613  1.00  0.00     0.026 A 
HETATM    2  C2  UNL     1       2.780  13.812  -6.625  1.00  0.00     0.038 A 
HETATM    3  C3  UNL     1       3.591  14.924  -6.450  1.00  0.00     0.065 A 
HETATM    4  C4  UNL     1       4.332  15.085  -5.285  1.00  0.00     0.038 A 
HETATM    5  C5  UNL     1       4.240  14.121  -4.276  1.00  0.00     0.026 A 
HETATM    6  C6  UNL     1       3.383  13.024  -4.409  1.00  0.00     0.005 A 
ENDROOT
BRANCH   6   7
HETATM    7  N1  UNL     1       3.388  12.006  -3.448  1.00  0.00    -0.303 NA
HETATM    8  H5  UNL     1       4.277  11.900  -2.970  1.00  0.00     0.124 HD
HETATM    9  H6  UNL     1       3.024  11.121  -3.786  1.00  0.00     0.124 HD
ENDBRANCH   6   7
BRANCH   3  10
HETATM   10  O1  UNL     1       3.650  15.836  -7.461  1.00  0.00    -0.361 OA
HETATM   11  H7  UNL     1       4.208  15.477  -8.170  1.00  0.00     0.217 HD
ENDBRANCH   3  10
TORSDOF 2
ENDMDL
MODEL 13
REMARK VINA RESULT:      -3.8      5.694      6.784
REMARK  2 active torsions:
REMARK  status: ('A' for Active; 'I' for Inactive)
REMARK    1  A    between atoms: C3_3  and  O1_8 
REMARK    2  A    between atoms: C6_6  and  N1_7 
ROOT
HETATM    1  C1  UNL     1       4.096  14.239  -4.359  1.00  0.00     0.026 A 
HETATM    2  C2  UNL     1       4.191  15.202  -5.366  1.00  0.00     0.038 A 
HETATM    3  C3  UNL     1       3.515  15.014  -6.563  1.00  0.00     0.065 A 
HETATM    4  C4  UNL     1       2.731  13.883  -6.763  1.00  0.00     0.038 A 
HETATM    5  C5  UNL     1       2.641  12.923  -5.751  1.00  0.00     0.026 A 
HETATM    6  C6  UNL     1       3.361  13.066  -4.561  1.00  0.00     0.005 A 
ENDROOT
BRANCH   6   7
HETATM    7  N1  UNL     1       3.172  12.162  -3.509  1.00  0.00    -0.303 NA
HETATM    8  H5  UNL     1       2.338  12.344  -2.960  1.00  0.00     0.124 HD
HETATM    9  H6  UNL     1       3.994  12.029  -2.930  1.00  0.00     0.124 HD
ENDBRANCH   6   7
BRANCH   3  10
HETATM   10  O1  UNL     1       3.631  15.977  -7.520  1.00  0.00    -0.361 OA
HETATM   11  H7  UNL     1       3.337  15.608  -8.368  1.00  0.00     0.217 HD
ENDBRANCH   3  10
TORSDOF 2
ENDMDL
MODEL 14
REMARK VINA RESULT:      -3.7      6.031      6.837
REMARK  2 active torsions:
REMARK  status: ('A' for Active; 'I' for Inactive)
REMARK    1  A    between atoms: C3_3  and  O1_8 
REMARK    2  A    between atoms: C6_6  and  N1_7 
ROOT
HETATM    1  C1  UNL     1       2.313  14.453  -7.152  1.00  0.00     0.026 A 
HETATM    2  C2  UNL     1       2.651  13.431  -6.263  1.00  0.00     0.038 A 
HETATM    3  C3  UNL     1       3.529  13.688  -5.220  1.00  0.00     0.065 A 
HETATM    4  C4  UNL     1       4.064  14.960  -5.042  1.00  0.00     0.038 A 
HETATM    5  C5  UNL     1       3.722  15.978  -5.937  1.00  0.00     0.026 A 
HETATM    6  C6  UNL     1       2.885  15.723  -7.028  1.00  0.00     0.005 A 
ENDROOT
BRANCH   6   7
HETATM    7  N1  UNL     1       2.455  16.773  -7.847  1.00  0.00    -0.303 NA
HETATM    8  H5  UNL     1       1.712  17.332  -7.438  1.00  0.00     0.124 HD
HETATM    9  H6  UNL     1       2.247  16.492  -8.800  1.00  0.00     0.124 HD
ENDBRANCH   6   7
BRANCH   3  10
HETATM   10  O1  UNL     1       3.832  12.665  -4.372  1.00  0.00    -0.361 OA
HETATM   11  H7  UNL     1       3.037  12.439  -3.864  1.00  0.00     0.217 HD
ENDBRANCH   3  10
TORSDOF 2
ENDMDL
MODEL 15
REMARK VINA RESULT:      -3.7      3.383      4.059
REMARK  2 active torsions:
REMARK  status: ('A' for Active; 'I' for Inactive)
REMARK    1  A    between atoms: C3_3  and  O1_8 
REMARK    2  A    between atoms: C6_6  and  N1_7 
ROOT
HETATM    1  C1  UNL     1       2.812  12.235  -3.800  1.00  0.00     0.026 A 
HETATM    2  C2  UNL     1       2.794  10.858  -4.033  1.00  0.00     0.038 A 
HETATM    3  C3  UNL     1       3.979  10.194  -4.317  1.00  0.00     0.065 A 
HETATM    4  C4  UNL     1       5.186  10.884  -4.356  1.00  0.00     0.038 A 
HETATM    5  C5  UNL     1       5.195  12.262  -4.123  1.00  0.00     0.026 A 
HETATM    6  C6  UNL     1       4.004  12.959  -3.893  1.00  0.00     0.005 A 
ENDROOT
BRANCH   6   7
HETATM    7  N1  UNL     1       4.037  14.314  -3.544  1.00  0.00    -0.303 NA
HETATM    8  H5  UNL     1       4.535  14.895  -4.212  1.00  0.00     0.124 HD
HETATM    9  H6  UNL     1       4.331  14.484  -2.589  1.00  0.00     0.124 HD
ENDBRANCH   6   7
BRANCH   3  10
HETATM   10  O1  UNL     1       3.921   8.850  -4.535  1.00  0.00    -0.361 OA
HETATM   11  H7  UNL     1       4.736   8.573  -4.983  1.00  0.00     0.217 HD
ENDBRANCH   3  10
TORSDOF 2
ENDMDL
MODEL 16
REMARK VINA RESULT:      -3.7      3.728      4.486
REMARK  2 active torsions:
REMARK  status: ('A' for Active; 'I' for Inactive)
REMARK    1  A    between atoms: C3_3  and  O1_8 
REMARK    2  A    between atoms: C6_6  and  N1_7 
ROOT
HETATM    1  C1  UNL     1       2.657  10.783  -3.853  1.00  0.00     0.026 A 
HETATM    2  C2  UNL     1       2.657  12.169  -3.679  1.00  0.00     0.038 A 
HETATM    3  C3  UNL     1       3.839  12.881  -3.830  1.00  0.00     0.065 A 
HETATM    4  C4  UNL     1       5.020  12.229  -4.170  1.00  0.00     0.038 A 
HETATM    5  C5  UNL     1       5.012  10.842  -4.341  1.00  0.00     0.026 A 
HETATM    6  C6  UNL     1       3.844  10.100  -4.135  1.00  0.00     0.005 A 
ENDROOT
BRANCH   6   7
HETATM    7  N1  UNL     1       3.819   8.731  -4.425  1.00  0.00    -0.303 NA
HETATM    8  H5  UNL     1       3.039   8.239  -4.000  1.00  0.00     0.124 HD
HETATM    9  H6  UNL     1       4.704   8.262  -4.266  1.00  0.00     0.124 HD
ENDBRANCH   6   7
BRANCH   3  10
HETATM   10  O1  UNL     1       3.797  14.232  -3.655  1.00  0.00    -0.361 OA
HETATM   11  H7  UNL     1       3.867  14.423  -2.706  1.00  0.00     0.217 HD
ENDBRANCH   3  10
TORSDOF 2
ENDMDL
MODEL 17
REMARK VINA RESULT:      -3.6      5.902      6.769
REMARK  2 active torsions:
REMARK  status: ('A' for Active; 'I' for Inactive)
REMARK    1  A    between atoms: C3_3  and  O1_8 
REMARK    2  A    between atoms: C6_6  and  N1_7 
ROOT
HETATM    1  C1  UNL     1       3.292  15.957  -5.909  1.00  0.00     0.026 A 
HETATM    2  C2  UNL     1       3.955  15.109  -5.018  1.00  0.00     0.038 A 
HETATM    3  C3  UNL     1       3.753  13.738  -5.095  1.00  0.00     0.065 A 
HETATM    4  C4  UNL     1       2.909  13.200  -6.060  1.00  0.00     0.038 A 
HETATM    5  C5  UNL     1       2.248  14.055  -6.947  1.00  0.00     0.026 A 
HETATM    6  C6  UNL     1       2.394  15.442  -6.848  1.00  0.00     0.005 A 
ENDROOT
BRANCH   6   7
HETATM    7  N1  UNL     1       1.824  16.281  -7.813  1.00  0.00    -0.303 NA
HETATM    8  H5  UNL     1       2.501  16.686  -8.452  1.00  0.00     0.124 HD
HETATM    9  H6  UNL     1       1.190  16.975  -7.431  1.00  0.00     0.124 HD
ENDBRANCH   6   7
BRANCH   3  10
HETATM   10  O1  UNL     1       4.419  12.945  -4.210  1.00  0.00    -0.361 OA
HETATM   11  H7  UNL     1       5.036  12.381  -4.704  1.00  0.00     0.217 HD
ENDBRANCH   3  10
TORSDOF 2
ENDMDL
MODEL 18
REMARK VINA RESULT:      -3.5      5.238      6.239
REMARK  2 active torsions:
REMARK  status: ('A' for Active; 'I' for Inactive)
REMARK    1  A    between atoms: C3_3  and  O1_8 
REMARK    2  A    between atoms: C6_6  and  N1_7 
ROOT
HETATM    1  C1  UNL     1       4.452  13.663  -3.736  1.00  0.00     0.026 A 
HETATM    2  C2  UNL     1       4.205  14.731  -4.602  1.00  0.00     0.038 A 
HETATM    3  C3  UNL     1       3.434  14.530  -5.738  1.00  0.00     0.065 A 
HETATM    4  C4  UNL     1       2.891  13.280  -6.014  1.00  0.00     0.038 A 
HETATM    5  C5  UNL     1       3.143  12.216  -5.143  1.00  0.00     0.026 A 
HETATM    6  C6  UNL     1       3.966  12.384  -4.025  1.00  0.00     0.005 A 
ENDROOT
BRANCH   6   7
HETATM    7  N1  UNL     1       4.115  11.347  -3.097  1.00  0.00    -0.303 NA
HETATM    8  H5  UNL     1       3.234  10.971  -2.760  1.00  0.00     0.124 HD
HETATM    9  H6  UNL     1       4.758  11.561  -2.342  1.00  0.00     0.124 HD
ENDBRANCH   6   7
BRANCH   3  10
HETATM   10  O1  UNL     1       3.214  15.597  -6.557  1.00  0.00    -0.361 OA
HETATM   11  H7  UNL     1       2.303  15.907  -6.424  1.00  0.00     0.217 HD
ENDBRANCH   3  10
TORSDOF 2
ENDMDL
MODEL 19
REMARK VINA RESULT:      -3.3      3.782      4.236
REMARK  2 active torsions:
REMARK  status: ('A' for Active; 'I' for Inactive)
REMARK    1  A    between atoms: C3_3  and  O1_8 
REMARK    2  A    between atoms: C6_6  and  N1_7 
ROOT
HETATM    1  C1  UNL     1       4.272  13.009  -3.919  1.00  0.00     0.026 A 
HETATM    2  C2  UNL     1       4.946  12.156  -3.041  1.00  0.00     0.038 A 
HETATM    3  C3  UNL     1       4.963  10.791  -3.286  1.00  0.00     0.065 A 
HETATM    4  C4  UNL     1       4.330  10.264  -4.407  1.00  0.00     0.038 A 
HETATM    5  C5  UNL     1       3.657  11.124  -5.281  1.00  0.00     0.026 A 
HETATM    6  C6  UNL     1       3.578  12.495  -5.019  1.00  0.00     0.005 A 
ENDROOT
BRANCH   6   7
HETATM    7  N1  UNL     1       3.006  13.361  -5.959  1.00  0.00    -0.303 NA
HETATM    8  H5  UNL     1       2.087  13.068  -6.276  1.00  0.00     0.124 HD
HETATM    9  H6  UNL     1       3.624  13.597  -6.728  1.00  0.00     0.124 HD
ENDBRANCH   6   7
BRANCH   3  10
HETATM   10  O1  UNL     1       5.633   9.993  -2.408  1.00  0.00    -0.361 OA
HETATM   11  H7  UNL     1       6.075  10.556  -1.753  1.00  0.00     0.217 HD
ENDBRANCH   3  10
TORSDOF 2
ENDMDL
MODEL 20
REMARK VINA RESULT:      -2.8      4.145      4.586
REMARK  2 active torsions:
REMARK  status: ('A' for Active; 'I' for Inactive)
REMARK    1  A    between atoms: C3_3  and  O1_8 
REMARK    2  A    between atoms: C6_6  and  N1_7 
ROOT
HETATM    1  C1  UNL     1       4.947   9.999  -3.076  1.00  0.00     0.026 A 
HETATM    2  C2  UNL     1       5.300  10.999  -2.166  1.00  0.00     0.038 A 
HETATM    3  C3  UNL     1       5.285  12.328  -2.566  1.00  0.00     0.065 A 
HETATM    4  C4  UNL     1       4.907  12.675  -3.858  1.00  0.00     0.038 A 
HETATM    5  C5  UNL     1       4.556  11.668  -4.763  1.00  0.00     0.026 A 
HETATM    6  C6  UNL     1       4.621  10.320  -4.397  1.00  0.00     0.005 A 
ENDROOT
BRANCH   6   7
HETATM    7  N1  UNL     1       4.156   9.330  -5.269  1.00  0.00    -0.303 NA
HETATM    8  H5  UNL     1       3.447   8.728  -4.862  1.00  0.00     0.124 HD
HETATM    9  H6  UNL     1       4.894   8.804  -5.725  1.00  0.00     0.124 HD
ENDBRANCH   6   7
BRANCH   3  10
HETATM   10  O1  UNL     1       5.633  13.274  -1.649  1.00  0.00    -0.361 OA
HETATM   11  H7  UNL     1       5.227  14.118  -1.905  1.00  0.00     0.217 HD
ENDBRANCH   3  10
TORSDOF 2
ENDMDL
