MODEL 1
REMARK VINA RESULT:      -1.1      0.000      0.000
REMARK  2 active torsions:
REMARK  status: ('A' for Active; 'I' for Inactive)
REMARK    1  A    between atoms: C3_3  and  O1_8 
REMARK    2  A    between atoms: C6_6  and  N1_7 
ROOT
HETATM    1  C1  UNL     1       8.353   8.652   0.572  1.00  0.00     0.026 A 
HETATM    2  C2  UNL     1       8.033   7.623   1.461  1.00  0.00     0.038 A 
HETATM    3  C3  UNL     1       7.284   6.541   1.019  1.00  0.00     0.065 A 
HETATM    4  C4  UNL     1       6.863   6.464  -0.304  1.00  0.00     0.038 A 
HETATM    5  C5  UNL     1       7.186   7.499  -1.187  1.00  0.00     0.026 A 
HETATM    6  C6  UNL     1       7.889   8.625  -0.747  1.00  0.00     0.005 A 
ENDROOT
BRANCH   6   7
HETATM    7  N1  UNL     1       8.309   9.596  -1.663  1.00  0.00    -0.303 NA
HETATM    8  H5  UNL     1       7.962  10.527  -1.457  1.00  0.00     0.124 HD
HETATM    9  H6  UNL     1       8.165   9.335  -2.632  1.00  0.00     0.124 HD
ENDBRANCH   6   7
BRANCH   3  10
HETATM   10  O1  UNL     1       6.995   5.556   1.916  1.00  0.00    -0.361 OA
HETATM   11  H7  UNL     1       6.036   5.539   2.058  1.00  0.00     0.217 HD
ENDBRANCH   3  10
TORSDOF 2
ENDMDL
MODEL 2
REMARK VINA RESULT:      -0.8      2.779      3.680
REMARK  2 active torsions:
REMARK  status: ('A' for Active; 'I' for Inactive)
REMARK    1  A    between atoms: C3_3  and  O1_8 
REMARK    2  A    between atoms: C6_6  and  N1_7 
ROOT
HETATM    1  C1  UNL     1       6.963   6.491  -0.312  1.00  0.00     0.026 A 
HETATM    2  C2  UNL     1       7.217   7.478  -1.267  1.00  0.00     0.038 A 
HETATM    3  C3  UNL     1       7.902   8.628  -0.902  1.00  0.00     0.065 A 
HETATM    4  C4  UNL     1       8.353   8.799   0.402  1.00  0.00     0.038 A 
HETATM    5  C5  UNL     1       8.095   7.807   1.352  1.00  0.00     0.026 A 
HETATM    6  C6  UNL     1       7.354   6.669   1.018  1.00  0.00     0.005 A 
ENDROOT
BRANCH   6   7
HETATM    7  N1  UNL     1       7.203   5.629   1.943  1.00  0.00    -0.303 NA
HETATM    8  H5  UNL     1       7.623   4.754   1.645  1.00  0.00     0.124 HD
HETATM    9  H6  UNL     1       6.252   5.509   2.273  1.00  0.00     0.124 HD
ENDBRANCH   6   7
BRANCH   3  10
HETATM   10  O1  UNL     1       8.133   9.566  -1.863  1.00  0.00    -0.361 OA
HETATM   11  H7  UNL     1       7.319  10.077  -1.998  1.00  0.00     0.217 HD
ENDBRANCH   3  10
TORSDOF 2
ENDMDL
MODEL 3
REMARK VINA RESULT:       2.3      4.172      4.976
REMARK  2 active torsions:
REMARK  status: ('A' for Active; 'I' for Inactive)
REMARK    1  A    between atoms: C3_3  and  O1_8 
REMARK    2  A    between atoms: C6_6  and  N1_7 
ROOT
HETATM    1  C1  UNL     1       8.354  10.747   1.240  1.00  0.00     0.026 A 
HETATM    2  C2  UNL     1       7.901  12.027   1.566  1.00  0.00     0.038 A 
HETATM    3  C3  UNL     1       6.935  12.185   2.549  1.00  0.00     0.065 A 
HETATM    4  C4  UNL     1       6.425  11.082   3.224  1.00  0.00     0.038 A 
HETATM    5  C5  UNL     1       6.881   9.803   2.891  1.00  0.00     0.026 A 
HETATM    6  C6  UNL     1       7.811   9.619   1.863  1.00  0.00     0.005 A 
ENDROOT
BRANCH   6   7
HETATM    7  N1  UNL     1       8.350   8.350   1.619  1.00  0.00    -0.303 NA
HETATM    8  H5  UNL     1       7.764   7.764   1.032  1.00  0.00     0.124 HD
HETATM    9  H6  UNL     1       8.663   7.869   2.455  1.00  0.00     0.124 HD
ENDBRANCH   6   7
BRANCH   3  10
HETATM   10  O1  UNL     1       6.521  13.451   2.840  1.00  0.00    -0.361 OA
HETATM   11  H7  UNL     1       7.021  13.771   3.609  1.00  0.00     0.217 HD
ENDBRANCH   3  10
TORSDOF 2
ENDMDL
MODEL 4
REMARK VINA RESULT:       2.3      1.665      2.400
REMARK  2 active torsions:
REMARK  status: ('A' for Active; 'I' for Inactive)
REMARK    1  A    between atoms: C3_3  and  O1_8 
REMARK    2  A    between atoms: C6_6  and  N1_7 
ROOT
HETATM    1  C1  UNL     1       6.051   5.941  -0.203  1.00  0.00     0.026 A 
HETATM    2  C2  UNL     1       6.786   5.779   0.974  1.00  0.00     0.038 A 
HETATM    3  C3  UNL     1       7.658   6.779   1.383  1.00  0.00     0.065 A 
HETATM    4  C4  UNL     1       7.794   7.947   0.641  1.00  0.00     0.038 A 
HETATM    5  C5  UNL     1       7.056   8.100  -0.537  1.00  0.00     0.026 A 
HETATM    6  C6  UNL     1       6.217   7.080  -0.996  1.00  0.00     0.005 A 
ENDROOT
BRANCH   6   7
HETATM    7  N1  UNL     1       5.394   7.291  -2.108  1.00  0.00    -0.303 NA
HETATM    8  H5  UNL     1       5.727   8.022  -2.729  1.00  0.00     0.124 HD
HETATM    9  H6  UNL     1       4.412   7.398  -1.878  1.00  0.00     0.124 HD
ENDBRANCH   6   7
BRANCH   3  10
HETATM   10  O1  UNL     1       8.355   6.585   2.538  1.00  0.00    -0.361 OA
HETATM   11  H7  UNL     1       9.039   5.915   2.378  1.00  0.00     0.217 HD
ENDBRANCH   3  10
TORSDOF 2
ENDMDL
MODEL 5
REMARK VINA RESULT:       3.1      2.688      3.163
REMARK  2 active torsions:
REMARK  status: ('A' for Active; 'I' for Inactive)
REMARK    1  A    between atoms: C3_3  and  O1_8 
REMARK    2  A    between atoms: C6_6  and  N1_7 
ROOT
HETATM    1  C1  UNL     1       7.545   7.761   0.992  1.00  0.00     0.026 A 
HETATM    2  C2  UNL     1       6.809   8.141  -0.133  1.00  0.00     0.038 A 
HETATM    3  C3  UNL     1       6.209   7.171  -0.923  1.00  0.00     0.065 A 
HETATM    4  C4  UNL     1       6.319   5.824  -0.595  1.00  0.00     0.038 A 
HETATM    5  C5  UNL     1       7.058   5.451   0.531  1.00  0.00     0.026 A 
HETATM    6  C6  UNL     1       7.719   6.410   1.306  1.00  0.00     0.005 A 
ENDROOT
BRANCH   6   7
HETATM    7  N1  UNL     1       8.355   6.038   2.496  1.00  0.00    -0.303 NA
HETATM    8  H5  UNL     1       8.382   5.035   2.648  1.00  0.00     0.124 HD
HETATM    9  H6  UNL     1       8.026   6.543   3.312  1.00  0.00     0.124 HD
ENDBRANCH   6   7
BRANCH   3  10
HETATM   10  O1  UNL     1       5.498   7.582  -2.010  1.00  0.00    -0.361 OA
HETATM   11  H7  UNL     1       4.624   7.161  -1.986  1.00  0.00     0.217 HD
ENDBRANCH   3  10
TORSDOF 2
ENDMDL
MODEL 6
REMARK VINA RESULT:       3.7      2.359      3.077
REMARK  2 active torsions:
REMARK  status: ('A' for Active; 'I' for Inactive)
REMARK    1  A    between atoms: C3_3  and  O1_8 
REMARK    2  A    between atoms: C6_6  and  N1_7 
ROOT
HETATM    1  C1  UNL     1       6.649   7.448  -1.095  1.00  0.00     0.026 A 
HETATM    2  C2  UNL     1       7.234   8.524  -0.423  1.00  0.00     0.038 A 
HETATM    3  C3  UNL     1       7.792   8.329   0.832  1.00  0.00     0.065 A 
HETATM    4  C4  UNL     1       7.790   7.069   1.420  1.00  0.00     0.038 A 
HETATM    5  C5  UNL     1       7.201   5.997   0.742  1.00  0.00     0.026 A 
HETATM    6  C6  UNL     1       6.582   6.186  -0.497  1.00  0.00     0.005 A 
ENDROOT
BRANCH   6   7
HETATM    7  N1  UNL     1       6.103   5.088  -1.220  1.00  0.00    -0.303 NA
HETATM    8  H5  UNL     1       6.713   4.801  -1.979  1.00  0.00     0.124 HD
HETATM    9  H6  UNL     1       5.137   5.180  -1.516  1.00  0.00     0.124 HD
ENDBRANCH   6   7
BRANCH   3  10
HETATM   10  O1  UNL     1       8.355   9.403   1.454  1.00  0.00    -0.361 OA
HETATM   11  H7  UNL     1       7.651  10.027   1.693  1.00  0.00     0.217 HD
ENDBRANCH   3  10
TORSDOF 2
ENDMDL
