MODEL 1
REMARK VINA RESULT:      -7.2      0.000      0.000
REMARK  27 active torsions:
REMARK  status: ('A' for Active; 'I' for Inactive)
REMARK    1  A    between atoms: C2_2  and  S1_4 
REMARK    2  A    between atoms: S1_4  and  C3_5 
REMARK    3  A    between atoms: C3_5  and  C4_6 
REMARK    4  A    between atoms: C4_6  and  N1_7 
REMARK       I    between atoms: N1_7  and  C5_8 
REMARK    5  A    between atoms: C5_8  and  C6_10 
REMARK    6  A    between atoms: C6_10  and  C7_11 
REMARK    7  A    between atoms: C7_11  and  N2_12 
REMARK       I    between atoms: N2_12  and  C8_13 
REMARK    8  A    between atoms: C8_13  and  C9_15 
REMARK    9  A    between atoms: C9_15  and  C10_16 
REMARK   10  A    between atoms: C9_15  and  O17_54 
REMARK   11  A    between atoms: C10_16  and  C13_19 
REMARK   12  A    between atoms: C13_19  and  O4_20 
REMARK   13  A    between atoms: O4_20  and  P1_21 
REMARK   14  A    between atoms: P1_21  and  O6_23 
REMARK   15  A    between atoms: P1_21  and  O7_24 
REMARK   16  A    between atoms: O7_24  and  P2_25 
REMARK   17  A    between atoms: P2_25  and  O9_27 
REMARK   18  A    between atoms: P2_25  and  O10_28 
REMARK   19  A    between atoms: O10_28  and  C14_29 
REMARK   20  A    between atoms: C14_29  and  C15_30 
REMARK   21  A    between atoms: C16_31  and  O13_49 
REMARK   22  A    between atoms: C17_32  and  O12_48 
REMARK   23  A    between atoms: C18_33  and  N3_35 
REMARK   24  A    between atoms: C21_40  and  N7_47 
REMARK   25  A    between atoms: O13_49  and  P3_50 
REMARK   26  A    between atoms: P3_50  and  O15_52 
REMARK   27  A    between atoms: P3_50  and  O16_53 
ROOT
HETATM    1  C1  UNL     1       7.517  17.434  -6.688  1.00  0.00     0.104 C 
HETATM    2  C2  UNL     1       7.112  18.850  -6.412  1.00  0.00     0.182 C 
HETATM    3  O1  UNL     1       5.950  19.244  -6.474  1.00  0.00    -0.286 OA
ENDROOT
BRANCH   2   4
HETATM    4  S1  UNL     1       8.450  19.924  -6.027  1.00  0.00    -0.091 SA
BRANCH   4   5
HETATM    5  C3  UNL     1       9.395  19.836  -7.582  1.00  0.00     0.102 C 
BRANCH   5   6
HETATM    6  C4  UNL     1       9.244  21.111  -8.414  1.00  0.00     0.133 C 
BRANCH   6   7
HETATM    7  N1  UNL     1       8.154  21.950  -7.959  1.00  0.00    -0.360 N 
HETATM    8  C5  UNL     1       6.909  21.899  -8.542  1.00  0.00     0.219 C 
HETATM    9  O2  UNL     1       6.668  21.207  -9.524  1.00  0.00    -0.274 OA
HETATM   10  H8  UNL     1       8.317  22.583  -7.188  1.00  0.00     0.162 HD
BRANCH   8  11
HETATM   11  C6  UNL     1       5.901  22.814  -7.882  1.00  0.00     0.122 C 
BRANCH  11  12
HETATM   12  C7  UNL     1       4.472  22.504  -8.325  1.00  0.00     0.132 C 
BRANCH  12  13
HETATM   13  N2  UNL     1       4.016  21.198  -7.898  1.00  0.00    -0.358 N 
HETATM   14  C8  UNL     1       2.776  20.729  -8.291  1.00  0.00     0.247 C 
HETATM   15  O3  UNL     1       1.979  21.429  -8.903  1.00  0.00    -0.271 OA
HETATM   16  H13 UNL     1       4.748  20.507  -7.745  1.00  0.00     0.162 HD
BRANCH  14  17
HETATM   17  C9  UNL     1       2.492  19.266  -7.918  1.00  0.00     0.219 C 
BRANCH  17  18
HETATM   18  C10 UNL     1       1.543  19.085  -6.704  1.00  0.00     0.009 C 
HETATM   19  C11 UNL     1       1.741  20.182  -5.647  1.00  0.00     0.020 C 
HETATM   20  C12 UNL     1       0.063  19.103  -7.136  1.00  0.00     0.020 C 
BRANCH  18  21
HETATM   21  C13 UNL     1       1.894  17.699  -6.091  1.00  0.00     0.192 C 
BRANCH  21  22
HETATM   22  O4  UNL     1       2.269  16.755  -7.074  1.00  0.00    -0.296 OA
BRANCH  22  23
HETATM   23  P1  UNL     1       3.303  15.563  -6.787  1.00  0.00     0.401 P 
HETATM   24  O5  UNL     1       4.636  15.739  -7.443  1.00  0.00    -0.631 OA
BRANCH  23  25
HETATM   25  O6  UNL     1       2.557  14.194  -7.187  1.00  0.00    -0.307 OA
HETATM   26  H23 UNL     1       3.045  13.700  -7.859  1.00  0.00     0.222 HD
ENDBRANCH  23  25
BRANCH  23  27
HETATM   27  O7  UNL     1       3.353  15.436  -5.202  1.00  0.00    -0.195 OA
BRANCH  27  28
HETATM   28  P2  UNL     1       4.130  14.205  -4.553  1.00  0.00     0.401 P 
HETATM   29  O8  UNL     1       5.573  14.054  -4.906  1.00  0.00    -0.631 OA
BRANCH  28  30
HETATM   30  O9  UNL     1       3.857  14.383  -2.990  1.00  0.00    -0.307 OA
HETATM   31  H24 UNL     1       3.765  13.532  -2.497  1.00  0.00     0.222 HD
ENDBRANCH  28  30
BRANCH  28  32
HETATM   32  O10 UNL     1       3.198  12.949  -4.872  1.00  0.00    -0.294 OA
BRANCH  32  33
HETATM   33  C14 UNL     1       2.582  12.247  -3.824  1.00  0.00     0.215 C 
BRANCH  33  34
HETATM   34  C15 UNL     1       3.177  10.840  -3.846  1.00  0.00     0.180 C 
HETATM   35  C16 UNL     1       2.512   9.983  -2.777  1.00  0.00     0.197 C 
HETATM   36  C17 UNL     1       3.638   9.605  -1.832  1.00  0.00     0.199 C 
HETATM   37  C18 UNL     1       4.866   9.699  -2.740  1.00  0.00     0.262 C 
HETATM   38  O11 UNL     1       4.588  10.826  -3.601  1.00  0.00    -0.353 OA
BRANCH  35  39
HETATM   39  O13 UNL     1       1.942   8.845  -3.415  1.00  0.00    -0.286 OA
BRANCH  39  40
HETATM   40  P3  UNL     1       0.426   8.521  -3.022  1.00  0.00     0.391 P 
HETATM   41  O14 UNL     1      -0.331   7.798  -4.088  1.00  0.00    -0.632 OA
BRANCH  40  42
HETATM   42  O15 UNL     1      -0.091   9.976  -2.602  1.00  0.00    -0.307 OA
HETATM   43  H36 UNL     1      -0.834  10.263  -3.184  1.00  0.00     0.222 HD
ENDBRANCH  40  42
BRANCH  40  44
HETATM   44  O16 UNL     1       0.613   7.787  -1.624  1.00  0.00    -0.307 OA
HETATM   45  H37 UNL     1       0.988   8.366  -0.941  1.00  0.00     0.222 HD
ENDBRANCH  40  44
ENDBRANCH  39  40
ENDBRANCH  35  39
BRANCH  36  46
HETATM   46  O12 UNL     1       3.369   8.340  -1.221  1.00  0.00    -0.388 OA
HETATM   47  H35 UNL     1       4.054   7.716  -1.560  1.00  0.00     0.210 HD
ENDBRANCH  36  46
BRANCH  37  48
HETATM   48  N3  UNL     1       6.084   9.966  -2.002  1.00  0.00    -0.297 N 
HETATM   49  C19 UNL     1       6.955   9.042  -1.473  1.00  0.00     0.188 A 
HETATM   50  N4  UNL     1       8.033   9.603  -0.971  1.00  0.00    -0.346 N 
HETATM   51  C20 UNL     1       7.856  10.958  -1.191  1.00  0.00     0.116 A 
HETATM   52  H4  UNL     1       8.824   9.143  -0.521  1.00  0.00     0.167 HD
HETATM   53  C21 UNL     1       8.662  12.079  -0.928  1.00  0.00     0.109 A 
HETATM   54  C23 UNL     1       6.635  11.200  -1.793  1.00  0.00     0.142 A 
HETATM   55  N5  UNL     1       8.193  13.307  -1.259  1.00  0.00    -0.341 N 
HETATM   56  C22 UNL     1       6.970  13.394  -1.821  1.00  0.00     0.183 A 
HETATM   57  H5  UNL     1       8.750  14.144  -1.088  1.00  0.00     0.167 HD
HETATM   58  N6  UNL     1       6.117  12.395  -2.126  1.00  0.00    -0.336 N 
HETATM   59  H6  UNL     1       5.200  12.529  -2.553  1.00  0.00     0.168 HD
BRANCH  53  60
HETATM   60  N7  UNL     1       9.913  11.998  -0.338  1.00  0.00    -0.287 NA
HETATM   61  H33 UNL     1      10.363  12.897  -0.183  1.00  0.00     0.125 HD
HETATM   62  H34 UNL     1      10.486  11.262  -0.729  1.00  0.00     0.125 HD
ENDBRANCH  53  60
ENDBRANCH  37  48
ENDBRANCH  33  34
ENDBRANCH  32  33
ENDBRANCH  28  32
ENDBRANCH  27  28
ENDBRANCH  23  27
ENDBRANCH  22  23
ENDBRANCH  21  22
ENDBRANCH  18  21
ENDBRANCH  17  18
BRANCH  17  63
HETATM   63  O17 UNL     1       1.935  18.571  -9.038  1.00  0.00    -0.385 OA
HETATM   64  H38 UNL     1       2.644  18.427  -9.688  1.00  0.00     0.210 HD
ENDBRANCH  17  63
ENDBRANCH  14  17
ENDBRANCH  12  13
ENDBRANCH  11  12
ENDBRANCH   8  11
ENDBRANCH   6   7
ENDBRANCH   5   6
ENDBRANCH   4   5
ENDBRANCH   2   4
TORSDOF 27
ENDMDL
MODEL 2
REMARK VINA RESULT:      -6.9      1.461      2.088
REMARK  27 active torsions:
REMARK  status: ('A' for Active; 'I' for Inactive)
REMARK    1  A    between atoms: C2_2  and  S1_4 
REMARK    2  A    between atoms: S1_4  and  C3_5 
REMARK    3  A    between atoms: C3_5  and  C4_6 
REMARK    4  A    between atoms: C4_6  and  N1_7 
REMARK       I    between atoms: N1_7  and  C5_8 
REMARK    5  A    between atoms: C5_8  and  C6_10 
REMARK    6  A    between atoms: C6_10  and  C7_11 
REMARK    7  A    between atoms: C7_11  and  N2_12 
REMARK       I    between atoms: N2_12  and  C8_13 
REMARK    8  A    between atoms: C8_13  and  C9_15 
REMARK    9  A    between atoms: C9_15  and  C10_16 
REMARK   10  A    between atoms: C9_15  and  O17_54 
REMARK   11  A    between atoms: C10_16  and  C13_19 
REMARK   12  A    between atoms: C13_19  and  O4_20 
REMARK   13  A    between atoms: O4_20  and  P1_21 
REMARK   14  A    between atoms: P1_21  and  O6_23 
REMARK   15  A    between atoms: P1_21  and  O7_24 
REMARK   16  A    between atoms: O7_24  and  P2_25 
REMARK   17  A    between atoms: P2_25  and  O9_27 
REMARK   18  A    between atoms: P2_25  and  O10_28 
REMARK   19  A    between atoms: O10_28  and  C14_29 
REMARK   20  A    between atoms: C14_29  and  C15_30 
REMARK   21  A    between atoms: C16_31  and  O13_49 
REMARK   22  A    between atoms: C17_32  and  O12_48 
REMARK   23  A    between atoms: C18_33  and  N3_35 
REMARK   24  A    between atoms: C21_40  and  N7_47 
REMARK   25  A    between atoms: O13_49  and  P3_50 
REMARK   26  A    between atoms: P3_50  and  O15_52 
REMARK   27  A    between atoms: P3_50  and  O16_53 
ROOT
HETATM    1  C1  UNL     1       6.560  15.369  -4.902  1.00  0.00     0.104 C 
HETATM    2  C2  UNL     1       6.521  16.015  -6.253  1.00  0.00     0.182 C 
HETATM    3  O1  UNL     1       5.864  15.574  -7.193  1.00  0.00    -0.286 OA
ENDROOT
BRANCH   2   4
HETATM    4  S1  UNL     1       7.531  17.447  -6.401  1.00  0.00    -0.091 SA
BRANCH   4   5
HETATM    5  C3  UNL     1       7.876  17.416  -8.190  1.00  0.00     0.102 C 
BRANCH   5   6
HETATM    6  C4  UNL     1       8.012  18.825  -8.769  1.00  0.00     0.133 C 
BRANCH   6   7
HETATM    7  N1  UNL     1       7.757  19.860  -7.788  1.00  0.00    -0.360 N 
HETATM    8  C5  UNL     1       6.810  20.836  -7.995  1.00  0.00     0.219 C 
HETATM    9  O2  UNL     1       6.186  20.939  -9.045  1.00  0.00    -0.274 OA
HETATM   10  H8  UNL     1       8.288  19.855  -6.927  1.00  0.00     0.162 HD
BRANCH   8  11
HETATM   11  C6  UNL     1       6.663  21.785  -6.825  1.00  0.00     0.122 C 
BRANCH  11  12
HETATM   12  C7  UNL     1       5.212  22.218  -6.620  1.00  0.00     0.132 C 
BRANCH  12  13
HETATM   13  N2  UNL     1       4.286  21.106  -6.595  1.00  0.00    -0.358 N 
HETATM   14  C8  UNL     1       3.102  21.169  -7.308  1.00  0.00     0.247 C 
HETATM   15  O3  UNL     1       2.739  22.189  -7.879  1.00  0.00    -0.271 OA
HETATM   16  H13 UNL     1       4.708  20.187  -6.473  1.00  0.00     0.162 HD
BRANCH  14  17
HETATM   17  C9  UNL     1       2.300  19.859  -7.340  1.00  0.00     0.219 C 
BRANCH  17  18
HETATM   18  C10 UNL     1       1.018  19.870  -6.466  1.00  0.00     0.009 C 
HETATM   19  C11 UNL     1       1.199  20.695  -5.183  1.00  0.00     0.020 C 
HETATM   20  C12 UNL     1      -0.186  20.449  -7.236  1.00  0.00     0.020 C 
BRANCH  18  21
HETATM   21  C13 UNL     1       0.740  18.385  -6.097  1.00  0.00     0.192 C 
BRANCH  21  22
HETATM   22  O4  UNL     1       1.311  17.484  -7.025  1.00  0.00    -0.296 OA
BRANCH  22  23
HETATM   23  P1  UNL     1       2.395  16.378  -6.610  1.00  0.00     0.401 P 
HETATM   24  O5  UNL     1       3.177  16.718  -5.381  1.00  0.00    -0.631 OA
BRANCH  23  25
HETATM   25  O6  UNL     1       3.309  16.112  -7.909  1.00  0.00    -0.307 OA
HETATM   26  H23 UNL     1       3.257  16.840  -8.542  1.00  0.00     0.222 HD
ENDBRANCH  23  25
BRANCH  23  27
HETATM   27  O7  UNL     1       1.579  15.015  -6.523  1.00  0.00    -0.195 OA
BRANCH  27  28
HETATM   28  P2  UNL     1       2.374  13.636  -6.589  1.00  0.00     0.401 P 
HETATM   29  O8  UNL     1       2.667  13.088  -7.947  1.00  0.00    -0.631 OA
BRANCH  28  30
HETATM   30  O9  UNL     1       3.674  13.920  -5.707  1.00  0.00    -0.307 OA
HETATM   31  H24 UNL     1       3.696  13.426  -4.851  1.00  0.00     0.222 HD
ENDBRANCH  28  30
BRANCH  28  32
HETATM   32  O10 UNL     1       1.558  12.673  -5.609  1.00  0.00    -0.294 OA
BRANCH  32  33
HETATM   33  C14 UNL     1       1.948  12.543  -4.267  1.00  0.00     0.215 C 
BRANCH  33  34
HETATM   34  C15 UNL     1       2.760  11.252  -4.182  1.00  0.00     0.180 C 
HETATM   35  C16 UNL     1       2.260  10.404  -3.020  1.00  0.00     0.197 C 
HETATM   36  C17 UNL     1       3.447  10.298  -2.082  1.00  0.00     0.199 C 
HETATM   37  C18 UNL     1       4.629  10.500  -3.033  1.00  0.00     0.262 C 
HETATM   38  O11 UNL     1       4.159  11.483  -3.982  1.00  0.00    -0.353 OA
BRANCH  35  39
HETATM   39  O13 UNL     1       1.868   9.136  -3.535  1.00  0.00    -0.286 OA
BRANCH  39  40
HETATM   40  P3  UNL     1       0.480   8.567  -2.982  1.00  0.00     0.391 P 
HETATM   41  O14 UNL     1      -0.277   7.751  -3.979  1.00  0.00    -0.632 OA
BRANCH  40  42
HETATM   42  O15 UNL     1      -0.205   9.911  -2.451  1.00  0.00    -0.307 OA
HETATM   43  H36 UNL     1       0.164  10.168  -1.573  1.00  0.00     0.222 HD
ENDBRANCH  40  42
BRANCH  40  44
HETATM   44  O16 UNL     1       0.947   7.846  -1.643  1.00  0.00    -0.307 OA
HETATM   45  H37 UNL     1       0.957   8.443  -0.878  1.00  0.00     0.222 HD
ENDBRANCH  40  44
ENDBRANCH  39  40
ENDBRANCH  35  39
BRANCH  36  46
HETATM   46  O12 UNL     1       3.394   9.070  -1.352  1.00  0.00    -0.388 OA
HETATM   47  H35 UNL     1       4.242   8.600  -1.536  1.00  0.00     0.210 HD
ENDBRANCH  36  46
BRANCH  37  48
HETATM   48  N3  UNL     1       5.801  11.023  -2.361  1.00  0.00    -0.297 N 
HETATM   49  C19 UNL     1       6.262  12.319  -2.382  1.00  0.00     0.188 A 
HETATM   50  N4  UNL     1       7.278  12.500  -1.567  1.00  0.00    -0.346 N 
HETATM   51  C20 UNL     1       7.484  11.261  -0.986  1.00  0.00     0.116 A 
HETATM   52  H4  UNL     1       7.799  13.361  -1.400  1.00  0.00     0.167 HD
HETATM   53  C21 UNL     1       8.385  10.805  -0.008  1.00  0.00     0.109 A 
HETATM   54  C23 UNL     1       6.602  10.328  -1.499  1.00  0.00     0.142 A 
HETATM   55  N5  UNL     1       8.345   9.499   0.352  1.00  0.00    -0.341 N 
HETATM   56  C22 UNL     1       7.445   8.698  -0.250  1.00  0.00     0.183 A 
HETATM   57  H5  UNL     1       8.981   9.132   1.061  1.00  0.00     0.167 HD
HETATM   58  N6  UNL     1       6.531   9.021  -1.188  1.00  0.00    -0.336 N 
HETATM   59  H6  UNL     1       5.874   8.363  -1.607  1.00  0.00     0.168 HD
BRANCH  53  60
HETATM   60  N7  UNL     1       9.323  11.621   0.604  1.00  0.00    -0.287 NA
HETATM   61  H33 UNL     1      10.197  11.154   0.837  1.00  0.00     0.125 HD
HETATM   62  H34 UNL     1       8.922  12.218   1.315  1.00  0.00     0.125 HD
ENDBRANCH  53  60
ENDBRANCH  37  48
ENDBRANCH  33  34
ENDBRANCH  32  33
ENDBRANCH  28  32
ENDBRANCH  27  28
ENDBRANCH  23  27
ENDBRANCH  22  23
ENDBRANCH  21  22
ENDBRANCH  18  21
ENDBRANCH  17  18
BRANCH  17  63
HETATM   63  O17 UNL     1       1.930  19.541  -8.686  1.00  0.00    -0.385 OA
HETATM   64  H38 UNL     1       1.289  20.206  -8.988  1.00  0.00     0.210 HD
ENDBRANCH  17  63
ENDBRANCH  14  17
ENDBRANCH  12  13
ENDBRANCH  11  12
ENDBRANCH   8  11
ENDBRANCH   6   7
ENDBRANCH   5   6
ENDBRANCH   4   5
ENDBRANCH   2   4
TORSDOF 27
ENDMDL
MODEL 3
REMARK VINA RESULT:      -6.9      3.200     10.857
REMARK  27 active torsions:
REMARK  status: ('A' for Active; 'I' for Inactive)
REMARK    1  A    between atoms: C2_2  and  S1_4 
REMARK    2  A    between atoms: S1_4  and  C3_5 
REMARK    3  A    between atoms: C3_5  and  C4_6 
REMARK    4  A    between atoms: C4_6  and  N1_7 
REMARK       I    between atoms: N1_7  and  C5_8 
REMARK    5  A    between atoms: C5_8  and  C6_10 
REMARK    6  A    between atoms: C6_10  and  C7_11 
REMARK    7  A    between atoms: C7_11  and  N2_12 
REMARK       I    between atoms: N2_12  and  C8_13 
REMARK    8  A    between atoms: C8_13  and  C9_15 
REMARK    9  A    between atoms: C9_15  and  C10_16 
REMARK   10  A    between atoms: C9_15  and  O17_54 
REMARK   11  A    between atoms: C10_16  and  C13_19 
REMARK   12  A    between atoms: C13_19  and  O4_20 
REMARK   13  A    between atoms: O4_20  and  P1_21 
REMARK   14  A    between atoms: P1_21  and  O6_23 
REMARK   15  A    between atoms: P1_21  and  O7_24 
REMARK   16  A    between atoms: O7_24  and  P2_25 
REMARK   17  A    between atoms: P2_25  and  O9_27 
REMARK   18  A    between atoms: P2_25  and  O10_28 
REMARK   19  A    between atoms: O10_28  and  C14_29 
REMARK   20  A    between atoms: C14_29  and  C15_30 
REMARK   21  A    between atoms: C16_31  and  O13_49 
REMARK   22  A    between atoms: C17_32  and  O12_48 
REMARK   23  A    between atoms: C18_33  and  N3_35 
REMARK   24  A    between atoms: C21_40  and  N7_47 
REMARK   25  A    between atoms: O13_49  and  P3_50 
REMARK   26  A    between atoms: P3_50  and  O15_52 
REMARK   27  A    between atoms: P3_50  and  O16_53 
ROOT
HETATM    1  C1  UNL     1       5.520   7.441  -1.181  1.00  0.00     0.104 C 
HETATM    2  C2  UNL     1       6.946   7.663  -0.778  1.00  0.00     0.182 C 
HETATM    3  O1  UNL     1       7.738   8.328  -1.441  1.00  0.00    -0.286 OA
ENDROOT
BRANCH   2   4
HETATM    4  S1  UNL     1       7.412   6.855   0.712  1.00  0.00    -0.091 SA
BRANCH   4   5
HETATM    5  C3  UNL     1       8.445   8.149   1.472  1.00  0.00     0.102 C 
BRANCH   5   6
HETATM    6  C4  UNL     1       7.687   9.469   1.622  1.00  0.00     0.133 C 
BRANCH   6   7
HETATM    7  N1  UNL     1       7.992  10.413   0.566  1.00  0.00    -0.360 N 
HETATM    8  C5  UNL     1       7.958  11.771   0.777  1.00  0.00     0.219 C 
HETATM    9  O2  UNL     1       7.592  12.266   1.837  1.00  0.00    -0.274 OA
HETATM   10  H8  UNL     1       8.244  10.057  -0.346  1.00  0.00     0.162 HD
BRANCH   8  11
HETATM   11  C6  UNL     1       8.363  12.577  -0.438  1.00  0.00     0.122 C 
BRANCH  11  12
HETATM   12  C7  UNL     1       7.152  13.017  -1.261  1.00  0.00     0.132 C 
BRANCH  12  13
HETATM   13  N2  UNL     1       6.886  12.148  -2.388  1.00  0.00    -0.358 N 
HETATM   14  C8  UNL     1       5.973  11.115  -2.270  1.00  0.00     0.247 C 
HETATM   15  O3  UNL     1       5.454  10.823  -1.201  1.00  0.00    -0.271 OA
HETATM   16  H13 UNL     1       6.989  12.576  -3.306  1.00  0.00     0.162 HD
BRANCH  14  17
HETATM   17  C9  UNL     1       5.654  10.385  -3.584  1.00  0.00     0.219 C 
BRANCH  17  18
HETATM   18  C10 UNL     1       4.142  10.146  -3.835  1.00  0.00     0.009 C 
HETATM   19  C11 UNL     1       3.880   8.820  -4.564  1.00  0.00     0.020 C 
HETATM   20  C12 UNL     1       3.345  10.128  -2.515  1.00  0.00     0.020 C 
BRANCH  18  21
HETATM   21  C13 UNL     1       3.664  11.333  -4.720  1.00  0.00     0.192 C 
BRANCH  21  22
HETATM   22  O4  UNL     1       3.526  12.532  -3.985  1.00  0.00    -0.296 OA
BRANCH  22  23
HETATM   23  P1  UNL     1       4.045  13.949  -4.525  1.00  0.00     0.401 P 
HETATM   24  O5  UNL     1       5.520  14.010  -4.765  1.00  0.00    -0.631 OA
BRANCH  23  25
HETATM   25  O6  UNL     1       3.508  15.064  -3.495  1.00  0.00    -0.307 OA
HETATM   26  H23 UNL     1       3.971  15.906  -3.599  1.00  0.00     0.222 HD
ENDBRANCH  23  25
BRANCH  23  27
HETATM   27  O7  UNL     1       3.150  14.254  -5.804  1.00  0.00    -0.195 OA
BRANCH  27  28
HETATM   28  P2  UNL     1       3.507  15.513  -6.712  1.00  0.00     0.401 P 
HETATM   29  O8  UNL     1       4.930  15.652  -7.146  1.00  0.00    -0.631 OA
BRANCH  28  30
HETATM   30  O9  UNL     1       2.466  15.404  -7.918  1.00  0.00    -0.307 OA
HETATM   31  H24 UNL     1       1.519  15.445  -7.638  1.00  0.00     0.222 HD
ENDBRANCH  28  30
BRANCH  28  32
HETATM   32  O10 UNL     1       2.899  16.753  -5.910  1.00  0.00    -0.294 OA
BRANCH  32  33
HETATM   33  C14 UNL     1       2.156  17.732  -6.588  1.00  0.00     0.215 C 
BRANCH  33  34
HETATM   34  C15 UNL     1       2.877  19.057  -6.348  1.00  0.00     0.180 C 
HETATM   35  C16 UNL     1       2.328  20.121  -7.289  1.00  0.00     0.197 C 
HETATM   36  C17 UNL     1       3.511  20.524  -8.148  1.00  0.00     0.199 C 
HETATM   37  C18 UNL     1       4.698  20.180  -7.245  1.00  0.00     0.262 C 
HETATM   38  O11 UNL     1       4.291  18.972  -6.565  1.00  0.00    -0.353 OA
BRANCH  35  39
HETATM   39  O13 UNL     1       1.846  21.203  -6.498  1.00  0.00    -0.286 OA
BRANCH  39  40
HETATM   40  P3  UNL     1       0.258  21.276  -6.325  1.00  0.00     0.391 P 
HETATM   41  O14 UNL     1      -0.261  20.467  -5.181  1.00  0.00    -0.632 OA
BRANCH  40  42
HETATM   42  O15 UNL     1      -0.222  20.872  -7.797  1.00  0.00    -0.307 OA
HETATM   43  H36 UNL     1       0.367  20.179  -8.178  1.00  0.00     0.222 HD
ENDBRANCH  40  42
BRANCH  40  44
HETATM   44  O16 UNL     1       0.018  22.848  -6.285  1.00  0.00    -0.307 OA
HETATM   45  H37 UNL     1      -0.920  23.083  -6.203  1.00  0.00     0.222 HD
ENDBRANCH  40  44
ENDBRANCH  39  40
ENDBRANCH  35  39
BRANCH  36  46
HETATM   46  O12 UNL     1       3.379  21.884  -8.569  1.00  0.00    -0.388 OA
HETATM   47  H35 UNL     1       4.281  22.279  -8.519  1.00  0.00     0.210 HD
ENDBRANCH  36  46
BRANCH  37  48
HETATM   48  N3  UNL     1       5.908  19.908  -7.994  1.00  0.00    -0.297 N 
HETATM   49  C19 UNL     1       6.353  20.562  -9.120  1.00  0.00     0.188 A 
HETATM   50  N4  UNL     1       7.550  20.162  -9.488  1.00  0.00    -0.346 N 
HETATM   51  C20 UNL     1       7.901  19.205  -8.552  1.00  0.00     0.116 A 
HETATM   52  H4  UNL     1       8.098  20.485 -10.285  1.00  0.00     0.167 HD
HETATM   53  C21 UNL     1       9.063  18.436  -8.365  1.00  0.00     0.109 A 
HETATM   54  C23 UNL     1       6.877  19.010  -7.644  1.00  0.00     0.142 A 
HETATM   55  N5  UNL     1       9.100  17.554  -7.336  1.00  0.00    -0.341 N 
HETATM   56  C22 UNL     1       8.014  17.454  -6.543  1.00  0.00     0.183 A 
HETATM   57  H5  UNL     1       9.927  16.982  -7.167  1.00  0.00     0.167 HD
HETATM   58  N6  UNL     1       6.855  18.140  -6.619  1.00  0.00    -0.336 N 
HETATM   59  H6  UNL     1       6.067  18.015  -5.983  1.00  0.00     0.168 HD
BRANCH  53  60
HETATM   60  N7  UNL     1      10.176  18.525  -9.186  1.00  0.00    -0.287 NA
HETATM   61  H33 UNL     1       9.988  18.336 -10.168  1.00  0.00     0.125 HD
HETATM   62  H34 UNL     1      10.997  18.089  -8.787  1.00  0.00     0.125 HD
ENDBRANCH  53  60
ENDBRANCH  37  48
ENDBRANCH  33  34
ENDBRANCH  32  33
ENDBRANCH  28  32
ENDBRANCH  27  28
ENDBRANCH  23  27
ENDBRANCH  22  23
ENDBRANCH  21  22
ENDBRANCH  18  21
ENDBRANCH  17  18
BRANCH  17  63
HETATM   63  O17 UNL     1       6.190  11.112  -4.695  1.00  0.00    -0.385 OA
HETATM   64  H38 UNL     1       5.942  10.644  -5.509  1.00  0.00     0.210 HD
ENDBRANCH  17  63
ENDBRANCH  14  17
ENDBRANCH  12  13
ENDBRANCH  11  12
ENDBRANCH   8  11
ENDBRANCH   6   7
ENDBRANCH   5   6
ENDBRANCH   4   5
ENDBRANCH   2   4
TORSDOF 27
ENDMDL
MODEL 4
REMARK VINA RESULT:      -6.8      3.001      4.851
REMARK  27 active torsions:
REMARK  status: ('A' for Active; 'I' for Inactive)
REMARK    1  A    between atoms: C2_2  and  S1_4 
REMARK    2  A    between atoms: S1_4  and  C3_5 
REMARK    3  A    between atoms: C3_5  and  C4_6 
REMARK    4  A    between atoms: C4_6  and  N1_7 
REMARK       I    between atoms: N1_7  and  C5_8 
REMARK    5  A    between atoms: C5_8  and  C6_10 
REMARK    6  A    between atoms: C6_10  and  C7_11 
REMARK    7  A    between atoms: C7_11  and  N2_12 
REMARK       I    between atoms: N2_12  and  C8_13 
REMARK    8  A    between atoms: C8_13  and  C9_15 
REMARK    9  A    between atoms: C9_15  and  C10_16 
REMARK   10  A    between atoms: C9_15  and  O17_54 
REMARK   11  A    between atoms: C10_16  and  C13_19 
REMARK   12  A    between atoms: C13_19  and  O4_20 
REMARK   13  A    between atoms: O4_20  and  P1_21 
REMARK   14  A    between atoms: P1_21  and  O6_23 
REMARK   15  A    between atoms: P1_21  and  O7_24 
REMARK   16  A    between atoms: O7_24  and  P2_25 
REMARK   17  A    between atoms: P2_25  and  O9_27 
REMARK   18  A    between atoms: P2_25  and  O10_28 
REMARK   19  A    between atoms: O10_28  and  C14_29 
REMARK   20  A    between atoms: C14_29  and  C15_30 
REMARK   21  A    between atoms: C16_31  and  O13_49 
REMARK   22  A    between atoms: C17_32  and  O12_48 
REMARK   23  A    between atoms: C18_33  and  N3_35 
REMARK   24  A    between atoms: C21_40  and  N7_47 
REMARK   25  A    between atoms: O13_49  and  P3_50 
REMARK   26  A    between atoms: P3_50  and  O15_52 
REMARK   27  A    between atoms: P3_50  and  O16_53 
ROOT
HETATM    1  C1  UNL     1       7.889  18.774 -10.014  1.00  0.00     0.104 C 
HETATM    2  C2  UNL     1       8.649  17.939  -9.030  1.00  0.00     0.182 C 
HETATM    3  O1  UNL     1       8.664  16.711  -9.057  1.00  0.00    -0.286 OA
ENDROOT
BRANCH   2   4
HETATM    4  S1  UNL     1       9.495  18.862  -7.795  1.00  0.00    -0.091 SA
BRANCH   4   5
HETATM    5  C3  UNL     1       8.374  20.290  -7.635  1.00  0.00     0.102 C 
BRANCH   5   6
HETATM    6  C4  UNL     1       8.287  20.787  -6.190  1.00  0.00     0.133 C 
BRANCH   6   7
HETATM    7  N1  UNL     1       6.933  20.780  -5.677  1.00  0.00    -0.360 N 
HETATM    8  C5  UNL     1       6.139  21.903  -5.715  1.00  0.00     0.219 C 
HETATM    9  O2  UNL     1       6.550  22.989  -6.106  1.00  0.00    -0.274 OA
HETATM   10  H8  UNL     1       6.564  19.923  -5.288  1.00  0.00     0.162 HD
BRANCH   8  11
HETATM   11  C6  UNL     1       4.743  21.668  -5.180  1.00  0.00     0.122 C 
BRANCH  11  12
HETATM   12  C7  UNL     1       3.673  22.249  -6.103  1.00  0.00     0.132 C 
BRANCH  12  13
HETATM   13  N2  UNL     1       2.660  21.284  -6.476  1.00  0.00    -0.358 N 
HETATM   14  C8  UNL     1       2.748  20.613  -7.682  1.00  0.00     0.247 C 
HETATM   15  O3  UNL     1       3.599  20.886  -8.520  1.00  0.00    -0.271 OA
HETATM   16  H13 UNL     1       2.215  20.794  -5.703  1.00  0.00     0.162 HD
BRANCH  14  17
HETATM   17  C9  UNL     1       1.714  19.494  -7.874  1.00  0.00     0.219 C 
BRANCH  17  18
HETATM   18  C10 UNL     1       1.984  18.218  -7.035  1.00  0.00     0.009 C 
HETATM   19  C11 UNL     1       1.229  18.234  -5.697  1.00  0.00     0.020 C 
HETATM   20  C12 UNL     1       1.572  16.942  -7.797  1.00  0.00     0.020 C 
BRANCH  18  21
HETATM   21  C13 UNL     1       3.517  18.198  -6.769  1.00  0.00     0.192 C 
BRANCH  21  22
HETATM   22  O4  UNL     1       4.042  16.886  -6.746  1.00  0.00    -0.296 OA
BRANCH  22  23
HETATM   23  P1  UNL     1       5.605  16.578  -6.561  1.00  0.00     0.401 P 
HETATM   24  O5  UNL     1       6.425  17.772  -6.188  1.00  0.00    -0.631 OA
BRANCH  23  25
HETATM   25  O6  UNL     1       6.097  15.848  -7.909  1.00  0.00    -0.307 OA
HETATM   26  H23 UNL     1       5.400  15.308  -8.303  1.00  0.00     0.222 HD
ENDBRANCH  23  25
BRANCH  23  27
HETATM   27  O7  UNL     1       5.666  15.377  -5.519  1.00  0.00    -0.195 OA
BRANCH  27  28
HETATM   28  P2  UNL     1       4.329  14.578  -5.185  1.00  0.00     0.401 P 
HETATM   29  O8  UNL     1       3.383  15.215  -4.221  1.00  0.00    -0.631 OA
BRANCH  28  30
HETATM   30  O9  UNL     1       3.700  14.299  -6.626  1.00  0.00    -0.307 OA
HETATM   31  H24 UNL     1       3.821  13.371  -6.946  1.00  0.00     0.222 HD
ENDBRANCH  28  30
BRANCH  28  32
HETATM   32  O10 UNL     1       4.840  13.115  -4.799  1.00  0.00    -0.294 OA
BRANCH  32  33
HETATM   33  C14 UNL     1       6.053  12.954  -4.112  1.00  0.00     0.215 C 
BRANCH  33  34
HETATM   34  C15 UNL     1       5.685  12.582  -2.677  1.00  0.00     0.180 C 
HETATM   35  C16 UNL     1       6.754  11.669  -2.091  1.00  0.00     0.197 C 
HETATM   36  C17 UNL     1       6.029  10.371  -1.790  1.00  0.00     0.199 C 
HETATM   37  C18 UNL     1       4.584  10.844  -1.608  1.00  0.00     0.262 C 
HETATM   38  O11 UNL     1       4.429  11.901  -2.580  1.00  0.00    -0.353 OA
BRANCH  35  39
HETATM   39  O13 UNL     1       7.263  12.285  -0.912  1.00  0.00    -0.286 OA
BRANCH  39  40
HETATM   40  P3  UNL     1       8.830  12.098  -0.659  1.00  0.00     0.391 P 
HETATM   41  O14 UNL     1       9.206  12.055   0.787  1.00  0.00    -0.632 OA
BRANCH  40  42
HETATM   42  O15 UNL     1       9.421  13.293  -1.542  1.00  0.00    -0.307 OA
HETATM   43  H36 UNL     1       9.577  14.094  -0.987  1.00  0.00     0.222 HD
ENDBRANCH  40  42
BRANCH  40  44
HETATM   44  O16 UNL     1       9.140  10.810  -1.538  1.00  0.00    -0.307 OA
HETATM   45  H37 UNL     1       8.385  10.204  -1.598  1.00  0.00     0.222 HD
ENDBRANCH  40  44
ENDBRANCH  39  40
ENDBRANCH  35  39
BRANCH  36  46
HETATM   46  O12 UNL     1       6.645   9.702  -0.687  1.00  0.00    -0.388 OA
HETATM   47  H35 UNL     1       6.109   9.928   0.110  1.00  0.00     0.210 HD
ENDBRANCH  36  46
BRANCH  37  48
HETATM   48  N3  UNL     1       3.618   9.802  -1.893  1.00  0.00    -0.297 N 
HETATM   49  C19 UNL     1       3.716   8.467  -1.575  1.00  0.00     0.188 A 
HETATM   50  N4  UNL     1       2.615   7.805  -1.858  1.00  0.00    -0.346 N 
HETATM   51  C20 UNL     1       1.759   8.759  -2.380  1.00  0.00     0.116 A 
HETATM   52  H4  UNL     1       2.433   6.811  -1.722  1.00  0.00     0.167 HD
HETATM   53  C21 UNL     1       0.429   8.701  -2.830  1.00  0.00     0.109 A 
HETATM   54  C23 UNL     1       2.382   9.992  -2.444  1.00  0.00     0.142 A 
HETATM   55  N5  UNL     1      -0.145   9.832  -3.307  1.00  0.00    -0.341 N 
HETATM   56  C22 UNL     1       0.592  10.960  -3.331  1.00  0.00     0.183 A 
HETATM   57  H5  UNL     1      -1.110   9.830  -3.639  1.00  0.00     0.167 HD
HETATM   58  N6  UNL     1       1.865  11.138  -2.922  1.00  0.00    -0.336 N 
HETATM   59  H6  UNL     1       2.369  12.024  -2.968  1.00  0.00     0.168 HD
BRANCH  53  60
HETATM   60  N7  UNL     1      -0.329   7.540  -2.821  1.00  0.00    -0.287 NA
HETATM   61  H33 UNL     1      -0.769   7.321  -3.712  1.00  0.00     0.125 HD
HETATM   62  H34 UNL     1      -0.904   7.451  -1.994  1.00  0.00     0.125 HD
ENDBRANCH  53  60
ENDBRANCH  37  48
ENDBRANCH  33  34
ENDBRANCH  32  33
ENDBRANCH  28  32
ENDBRANCH  27  28
ENDBRANCH  23  27
ENDBRANCH  22  23
ENDBRANCH  21  22
ENDBRANCH  18  21
ENDBRANCH  17  18
BRANCH  17  63
HETATM   63  O17 UNL     1       0.403  19.976  -7.559  1.00  0.00    -0.385 OA
HETATM   64  H38 UNL     1       0.498  20.787  -7.033  1.00  0.00     0.210 HD
ENDBRANCH  17  63
ENDBRANCH  14  17
ENDBRANCH  12  13
ENDBRANCH  11  12
ENDBRANCH   8  11
ENDBRANCH   6   7
ENDBRANCH   5   6
ENDBRANCH   4   5
ENDBRANCH   2   4
TORSDOF 27
ENDMDL
MODEL 5
REMARK VINA RESULT:      -6.1      4.151     11.014
REMARK  27 active torsions:
REMARK  status: ('A' for Active; 'I' for Inactive)
REMARK    1  A    between atoms: C2_2  and  S1_4 
REMARK    2  A    between atoms: S1_4  and  C3_5 
REMARK    3  A    between atoms: C3_5  and  C4_6 
REMARK    4  A    between atoms: C4_6  and  N1_7 
REMARK       I    between atoms: N1_7  and  C5_8 
REMARK    5  A    between atoms: C5_8  and  C6_10 
REMARK    6  A    between atoms: C6_10  and  C7_11 
REMARK    7  A    between atoms: C7_11  and  N2_12 
REMARK       I    between atoms: N2_12  and  C8_13 
REMARK    8  A    between atoms: C8_13  and  C9_15 
REMARK    9  A    between atoms: C9_15  and  C10_16 
REMARK   10  A    between atoms: C9_15  and  O17_54 
REMARK   11  A    between atoms: C10_16  and  C13_19 
REMARK   12  A    between atoms: C13_19  and  O4_20 
REMARK   13  A    between atoms: O4_20  and  P1_21 
REMARK   14  A    between atoms: P1_21  and  O6_23 
REMARK   15  A    between atoms: P1_21  and  O7_24 
REMARK   16  A    between atoms: O7_24  and  P2_25 
REMARK   17  A    between atoms: P2_25  and  O9_27 
REMARK   18  A    between atoms: P2_25  and  O10_28 
REMARK   19  A    between atoms: O10_28  and  C14_29 
REMARK   20  A    between atoms: C14_29  and  C15_30 
REMARK   21  A    between atoms: C16_31  and  O13_49 
REMARK   22  A    between atoms: C17_32  and  O12_48 
REMARK   23  A    between atoms: C18_33  and  N3_35 
REMARK   24  A    between atoms: C21_40  and  N7_47 
REMARK   25  A    between atoms: O13_49  and  P3_50 
REMARK   26  A    between atoms: P3_50  and  O15_52 
REMARK   27  A    between atoms: P3_50  and  O16_53 
ROOT
HETATM    1  C1  UNL     1       0.161   8.120  -3.126  1.00  0.00     0.104 C 
HETATM    2  C2  UNL     1       0.902   8.846  -2.045  1.00  0.00     0.182 C 
HETATM    3  O1  UNL     1       0.378   9.683  -1.314  1.00  0.00    -0.286 OA
ENDROOT
BRANCH   2   4
HETATM    4  S1  UNL     1       2.606   8.431  -1.930  1.00  0.00    -0.091 SA
BRANCH   4   5
HETATM    5  C3  UNL     1       3.356  10.078  -2.145  1.00  0.00     0.102 C 
BRANCH   5   6
HETATM    6  C4  UNL     1       3.532  10.435  -3.622  1.00  0.00     0.133 C 
BRANCH   6   7
HETATM    7  N1  UNL     1       3.397  11.855  -3.875  1.00  0.00    -0.360 N 
HETATM    8  C5  UNL     1       4.483  12.699  -3.865  1.00  0.00     0.219 C 
HETATM    9  O2  UNL     1       5.610  12.321  -3.565  1.00  0.00    -0.274 OA
HETATM   10  H8  UNL     1       2.478  12.229  -4.070  1.00  0.00     0.162 HD
BRANCH   8  11
HETATM   11  C6  UNL     1       4.133  14.131  -4.206  1.00  0.00     0.122 C 
BRANCH  11  12
HETATM   12  C7  UNL     1       3.478  14.246  -5.583  1.00  0.00     0.132 C 
BRANCH  12  13
HETATM   13  N2  UNL     1       3.318  15.616  -6.022  1.00  0.00    -0.358 N 
HETATM   14  C8  UNL     1       2.643  15.896  -7.196  1.00  0.00     0.247 C 
HETATM   15  O3  UNL     1       2.266  15.014  -7.958  1.00  0.00    -0.271 OA
HETATM   16  H13 UNL     1       3.270  16.311  -5.281  1.00  0.00     0.162 HD
BRANCH  14  17
HETATM   17  C9  UNL     1       2.391  17.389  -7.453  1.00  0.00     0.219 C 
BRANCH  17  18
HETATM   18  C10 UNL     1       1.123  17.955  -6.761  1.00  0.00     0.009 C 
HETATM   19  C11 UNL     1      -0.010  16.921  -6.693  1.00  0.00     0.020 C 
HETATM   20  C12 UNL     1       1.426  18.424  -5.323  1.00  0.00     0.020 C 
BRANCH  18  21
HETATM   21  C13 UNL     1       0.672  19.169  -7.624  1.00  0.00     0.192 C 
BRANCH  21  22
HETATM   22  O4  UNL     1       1.761  19.832  -8.233  1.00  0.00    -0.296 OA
BRANCH  22  23
HETATM   23  P1  UNL     1       2.192  21.329  -7.853  1.00  0.00     0.401 P 
HETATM   24  O5  UNL     1       1.041  22.246  -7.582  1.00  0.00    -0.631 OA
BRANCH  23  25
HETATM   25  O6  UNL     1       3.170  21.842  -9.024  1.00  0.00    -0.307 OA
HETATM   26  H23 UNL     1       3.057  21.335  -9.838  1.00  0.00     0.222 HD
ENDBRANCH  23  25
BRANCH  23  27
HETATM   27  O7  UNL     1       3.213  21.169  -6.644  1.00  0.00    -0.195 OA
BRANCH  27  28
HETATM   28  P2  UNL     1       4.726  21.624  -6.849  1.00  0.00     0.401 P 
HETATM   29  O8  UNL     1       4.960  23.058  -7.195  1.00  0.00    -0.631 OA
BRANCH  28  30
HETATM   30  O9  UNL     1       5.436  21.157  -5.498  1.00  0.00    -0.307 OA
HETATM   31  H24 UNL     1       5.278  20.209  -5.266  1.00  0.00     0.222 HD
ENDBRANCH  28  30
BRANCH  28  32
HETATM   32  O10 UNL     1       5.316  20.553  -7.876  1.00  0.00    -0.294 OA
BRANCH  32  33
HETATM   33  C14 UNL     1       6.477  20.848  -8.609  1.00  0.00     0.215 C 
BRANCH  33  34
HETATM   34  C15 UNL     1       6.908  19.540  -9.270  1.00  0.00     0.180 C 
HETATM   35  C16 UNL     1       7.949  18.843  -8.405  1.00  0.00     0.197 C 
HETATM   36  C17 UNL     1       9.194  18.788  -9.270  1.00  0.00     0.199 C 
HETATM   37  C18 UNL     1       8.607  18.837 -10.683  1.00  0.00     0.262 C 
HETATM   38  O11 UNL     1       7.479  19.733 -10.570  1.00  0.00    -0.353 OA
BRANCH  35  39
HETATM   39  O13 UNL     1       7.459  17.545  -8.085  1.00  0.00    -0.286 OA
BRANCH  39  40
HETATM   40  P3  UNL     1       7.203  17.269  -6.531  1.00  0.00     0.391 P 
HETATM   41  O14 UNL     1       6.539  15.959  -6.254  1.00  0.00    -0.632 OA
BRANCH  40  42
HETATM   42  O15 UNL     1       6.419  18.599  -6.116  1.00  0.00    -0.307 OA
HETATM   43  H36 UNL     1       7.052  19.329  -5.916  1.00  0.00     0.222 HD
ENDBRANCH  40  42
BRANCH  40  44
HETATM   44  O16 UNL     1       8.656  17.501  -5.926  1.00  0.00    -0.307 OA
HETATM   45  H37 UNL     1       8.669  17.469  -4.957  1.00  0.00     0.222 HD
ENDBRANCH  40  44
ENDBRANCH  39  40
ENDBRANCH  35  39
BRANCH  36  46
HETATM   46  O12 UNL     1       9.986  17.648  -8.927  1.00  0.00    -0.388 OA
HETATM   47  H35 UNL     1      10.413  17.345  -9.764  1.00  0.00     0.210 HD
ENDBRANCH  36  46
BRANCH  37  48
HETATM   48  N3  UNL     1       9.537  19.380 -11.653  1.00  0.00    -0.297 N 
HETATM   49  C19 UNL     1      10.865  19.678 -11.455  1.00  0.00     0.188 A 
HETATM   50  N4  UNL     1      11.467  20.036 -12.568  1.00  0.00    -0.346 N 
HETATM   51  C20 UNL     1      10.482  19.961 -13.537  1.00  0.00     0.116 A 
HETATM   52  H4  UNL     1      12.442  20.308 -12.690  1.00  0.00     0.167 HD
HETATM   53  C21 UNL     1      10.494  20.174 -14.926  1.00  0.00     0.109 A 
HETATM   54  C23 UNL     1       9.272  19.593 -12.977  1.00  0.00     0.142 A 
HETATM   55  N5  UNL     1       9.336  20.028 -15.615  1.00  0.00    -0.341 N 
HETATM   56  C22 UNL     1       8.225  19.689 -14.932  1.00  0.00     0.183 A 
HETATM   57  H5  UNL     1       9.306  20.171 -16.625  1.00  0.00     0.167 HD
HETATM   58  N6  UNL     1       8.095  19.451 -13.611  1.00  0.00    -0.336 N 
HETATM   59  H6  UNL     1       7.219  19.196 -13.153  1.00  0.00     0.168 HD
BRANCH  53  60
HETATM   60  N7  UNL     1      11.630  20.538 -15.632  1.00  0.00    -0.287 NA
HETATM   61  H33 UNL     1      12.321  19.796 -15.725  1.00  0.00     0.125 HD
HETATM   62  H34 UNL     1      11.976  21.454 -15.378  1.00  0.00     0.125 HD
ENDBRANCH  53  60
ENDBRANCH  37  48
ENDBRANCH  33  34
ENDBRANCH  32  33
ENDBRANCH  28  32
ENDBRANCH  27  28
ENDBRANCH  23  27
ENDBRANCH  22  23
ENDBRANCH  21  22
ENDBRANCH  18  21
ENDBRANCH  17  18
BRANCH  17  63
HETATM   63  O17 UNL     1       3.522  18.160  -7.032  1.00  0.00    -0.385 OA
HETATM   64  H38 UNL     1       4.092  17.588  -6.491  1.00  0.00     0.210 HD
ENDBRANCH  17  63
ENDBRANCH  14  17
ENDBRANCH  12  13
ENDBRANCH  11  12
ENDBRANCH   8  11
ENDBRANCH   6   7
ENDBRANCH   5   6
ENDBRANCH   4   5
ENDBRANCH   2   4
TORSDOF 27
ENDMDL
MODEL 6
REMARK VINA RESULT:      -5.9      3.170     11.041
REMARK  27 active torsions:
REMARK  status: ('A' for Active; 'I' for Inactive)
REMARK    1  A    between atoms: C2_2  and  S1_4 
REMARK    2  A    between atoms: S1_4  and  C3_5 
REMARK    3  A    between atoms: C3_5  and  C4_6 
REMARK    4  A    between atoms: C4_6  and  N1_7 
REMARK       I    between atoms: N1_7  and  C5_8 
REMARK    5  A    between atoms: C5_8  and  C6_10 
REMARK    6  A    between atoms: C6_10  and  C7_11 
REMARK    7  A    between atoms: C7_11  and  N2_12 
REMARK       I    between atoms: N2_12  and  C8_13 
REMARK    8  A    between atoms: C8_13  and  C9_15 
REMARK    9  A    between atoms: C9_15  and  C10_16 
REMARK   10  A    between atoms: C9_15  and  O17_54 
REMARK   11  A    between atoms: C10_16  and  C13_19 
REMARK   12  A    between atoms: C13_19  and  O4_20 
REMARK   13  A    between atoms: O4_20  and  P1_21 
REMARK   14  A    between atoms: P1_21  and  O6_23 
REMARK   15  A    between atoms: P1_21  and  O7_24 
REMARK   16  A    between atoms: O7_24  and  P2_25 
REMARK   17  A    between atoms: P2_25  and  O9_27 
REMARK   18  A    between atoms: P2_25  and  O10_28 
REMARK   19  A    between atoms: O10_28  and  C14_29 
REMARK   20  A    between atoms: C14_29  and  C15_30 
REMARK   21  A    between atoms: C16_31  and  O13_49 
REMARK   22  A    between atoms: C17_32  and  O12_48 
REMARK   23  A    between atoms: C18_33  and  N3_35 
REMARK   24  A    between atoms: C21_40  and  N7_47 
REMARK   25  A    between atoms: O13_49  and  P3_50 
REMARK   26  A    between atoms: P3_50  and  O15_52 
REMARK   27  A    between atoms: P3_50  and  O16_53 
ROOT
HETATM    1  C1  UNL     1       7.130   5.997   0.965  1.00  0.00     0.104 C 
HETATM    2  C2  UNL     1       6.748   6.645  -0.331  1.00  0.00     0.182 C 
HETATM    3  O1  UNL     1       6.015   6.113  -1.161  1.00  0.00    -0.286 OA
ENDROOT
BRANCH   2   4
HETATM    4  S1  UNL     1       7.471   8.227  -0.592  1.00  0.00    -0.091 SA
BRANCH   4   5
HETATM    5  C3  UNL     1       8.222   8.513   1.044  1.00  0.00     0.102 C 
BRANCH   5   6
HETATM    6  C4  UNL     1       7.846   9.883   1.612  1.00  0.00     0.133 C 
BRANCH   6   7
HETATM    7  N1  UNL     1       8.091  10.962   0.678  1.00  0.00    -0.360 N 
HETATM    8  C5  UNL     1       7.141  11.920   0.413  1.00  0.00     0.219 C 
HETATM    9  O2  UNL     1       6.010  11.876   0.883  1.00  0.00    -0.274 OA
HETATM   10  H8  UNL     1       8.990  11.012   0.217  1.00  0.00     0.162 HD
BRANCH   8  11
HETATM   11  C6  UNL     1       7.618  12.988  -0.548  1.00  0.00     0.122 C 
BRANCH  11  12
HETATM   12  C7  UNL     1       7.003  12.823  -1.937  1.00  0.00     0.132 C 
BRANCH  12  13
HETATM   13  N2  UNL     1       5.760  12.081  -1.922  1.00  0.00    -0.358 N 
HETATM   14  C8  UNL     1       5.560  11.038  -2.809  1.00  0.00     0.247 C 
HETATM   15  O3  UNL     1       6.357  10.781  -3.703  1.00  0.00    -0.271 OA
HETATM   16  H13 UNL     1       5.298  12.017  -1.017  1.00  0.00     0.162 HD
BRANCH  14  17
HETATM   17  C9  UNL     1       4.279  10.226  -2.570  1.00  0.00     0.219 C 
BRANCH  17  18
HETATM   18  C10 UNL     1       3.372  10.073  -3.819  1.00  0.00     0.009 C 
HETATM   19  C11 UNL     1       4.138   9.511  -5.025  1.00  0.00     0.020 C 
HETATM   20  C12 UNL     1       2.176   9.141  -3.539  1.00  0.00     0.020 C 
BRANCH  18  21
HETATM   21  C13 UNL     1       2.856  11.503  -4.149  1.00  0.00     0.192 C 
BRANCH  21  22
HETATM   22  O4  UNL     1       3.440  12.029  -5.324  1.00  0.00    -0.296 OA
BRANCH  22  23
HETATM   23  P1  UNL     1       2.878  13.334  -6.067  1.00  0.00     0.401 P 
HETATM   24  O5  UNL     1       1.602  13.864  -5.492  1.00  0.00    -0.631 OA
BRANCH  23  25
HETATM   25  O6  UNL     1       2.784  12.973  -7.633  1.00  0.00    -0.307 OA
HETATM   26  H23 UNL     1       2.616  13.755  -8.175  1.00  0.00     0.222 HD
ENDBRANCH  23  25
BRANCH  23  27
HETATM   27  O7  UNL     1       4.089  14.365  -6.059  1.00  0.00    -0.195 OA
BRANCH  27  28
HETATM   28  P2  UNL     1       4.886  14.607  -4.701  1.00  0.00     0.401 P 
HETATM   29  O8  UNL     1       4.115  14.461  -3.429  1.00  0.00    -0.631 OA
BRANCH  28  30
HETATM   30  O9  UNL     1       6.131  13.615  -4.825  1.00  0.00    -0.307 OA
HETATM   31  H24 UNL     1       6.213  13.179  -5.708  1.00  0.00     0.222 HD
ENDBRANCH  28  30
BRANCH  28  32
HETATM   32  O10 UNL     1       5.607  16.014  -4.922  1.00  0.00    -0.294 OA
BRANCH  32  33
HETATM   33  C14 UNL     1       6.762  16.094  -5.716  1.00  0.00     0.215 C 
BRANCH  33  34
HETATM   34  C15 UNL     1       6.451  17.101  -6.822  1.00  0.00     0.180 C 
HETATM   35  C16 UNL     1       7.331  18.333  -6.661  1.00  0.00     0.197 C 
HETATM   36  C17 UNL     1       6.358  19.471  -6.419  1.00  0.00     0.199 C 
HETATM   37  C18 UNL     1       5.083  18.954  -7.088  1.00  0.00     0.262 C 
HETATM   38  O11 UNL     1       5.086  17.536  -6.814  1.00  0.00    -0.353 OA
BRANCH  35  39
HETATM   39  O13 UNL     1       8.072  18.507  -7.864  1.00  0.00    -0.286 OA
BRANCH  39  40
HETATM   40  P3  UNL     1       9.657  18.620  -7.688  1.00  0.00     0.391 P 
HETATM   41  O14 UNL     1      10.432  18.061  -8.837  1.00  0.00    -0.632 OA
BRANCH  40  42
HETATM   42  O15 UNL     1       9.849  17.928  -6.258  1.00  0.00    -0.307 OA
HETATM   43  H36 UNL     1       9.193  18.279  -5.610  1.00  0.00     0.222 HD
ENDBRANCH  40  42
BRANCH  40  44
HETATM   44  O16 UNL     1       9.828  20.167  -7.366  1.00  0.00    -0.307 OA
HETATM   45  H37 UNL     1       9.035  20.685  -7.574  1.00  0.00     0.222 HD
ENDBRANCH  40  44
ENDBRANCH  39  40
ENDBRANCH  35  39
BRANCH  36  46
HETATM   46  O12 UNL     1       6.903  20.701  -6.905  1.00  0.00    -0.388 OA
HETATM   47  H35 UNL     1       6.178  21.148  -7.403  1.00  0.00     0.210 HD
ENDBRANCH  36  46
BRANCH  37  48
HETATM   48  N3  UNL     1       3.882  19.535  -6.523  1.00  0.00    -0.297 N 
HETATM   49  C19 UNL     1       3.706  20.832  -6.099  1.00  0.00     0.188 A 
HETATM   50  N4  UNL     1       2.462  21.079  -5.754  1.00  0.00    -0.346 N 
HETATM   51  C20 UNL     1       1.796  19.885  -5.968  1.00  0.00     0.116 A 
HETATM   52  H4  UNL     1       2.073  21.956  -5.405  1.00  0.00     0.167 HD
HETATM   53  C21 UNL     1       0.449  19.507  -5.832  1.00  0.00     0.109 A 
HETATM   54  C23 UNL     1       2.672  18.909  -6.407  1.00  0.00     0.142 A 
HETATM   55  N5  UNL     1       0.102  18.228  -6.117  1.00  0.00    -0.341 N 
HETATM   56  C22 UNL     1       1.070  17.378  -6.513  1.00  0.00     0.183 A 
HETATM   57  H5  UNL     1      -0.866  17.918  -6.034  1.00  0.00     0.167 HD
HETATM   58  N6  UNL     1       2.384  17.626  -6.687  1.00  0.00    -0.336 N 
HETATM   59  H6  UNL     1       3.068  16.933  -6.990  1.00  0.00     0.168 HD
BRANCH  53  60
HETATM   60  N7  UNL     1      -0.547  20.374  -5.411  1.00  0.00    -0.287 NA
HETATM   61  H33 UNL     1      -0.456  20.678  -4.444  1.00  0.00     0.125 HD
HETATM   62  H34 UNL     1      -1.469  20.093  -5.716  1.00  0.00     0.125 HD
ENDBRANCH  53  60
ENDBRANCH  37  48
ENDBRANCH  33  34
ENDBRANCH  32  33
ENDBRANCH  28  32
ENDBRANCH  27  28
ENDBRANCH  23  27
ENDBRANCH  22  23
ENDBRANCH  21  22
ENDBRANCH  18  21
ENDBRANCH  17  18
BRANCH  17  63
HETATM   63  O17 UNL     1       4.607   8.919  -2.084  1.00  0.00    -0.385 OA
HETATM   64  H38 UNL     1       4.136   8.782  -1.246  1.00  0.00     0.210 HD
ENDBRANCH  17  63
ENDBRANCH  14  17
ENDBRANCH  12  13
ENDBRANCH  11  12
ENDBRANCH   8  11
ENDBRANCH   6   7
ENDBRANCH   5   6
ENDBRANCH   4   5
ENDBRANCH   2   4
TORSDOF 27
ENDMDL
MODEL 7
REMARK VINA RESULT:      -5.7      2.381      3.632
REMARK  27 active torsions:
REMARK  status: ('A' for Active; 'I' for Inactive)
REMARK    1  A    between atoms: C2_2  and  S1_4 
REMARK    2  A    between atoms: S1_4  and  C3_5 
REMARK    3  A    between atoms: C3_5  and  C4_6 
REMARK    4  A    between atoms: C4_6  and  N1_7 
REMARK       I    between atoms: N1_7  and  C5_8 
REMARK    5  A    between atoms: C5_8  and  C6_10 
REMARK    6  A    between atoms: C6_10  and  C7_11 
REMARK    7  A    between atoms: C7_11  and  N2_12 
REMARK       I    between atoms: N2_12  and  C8_13 
REMARK    8  A    between atoms: C8_13  and  C9_15 
REMARK    9  A    between atoms: C9_15  and  C10_16 
REMARK   10  A    between atoms: C9_15  and  O17_54 
REMARK   11  A    between atoms: C10_16  and  C13_19 
REMARK   12  A    between atoms: C13_19  and  O4_20 
REMARK   13  A    between atoms: O4_20  and  P1_21 
REMARK   14  A    between atoms: P1_21  and  O6_23 
REMARK   15  A    between atoms: P1_21  and  O7_24 
REMARK   16  A    between atoms: O7_24  and  P2_25 
REMARK   17  A    between atoms: P2_25  and  O9_27 
REMARK   18  A    between atoms: P2_25  and  O10_28 
REMARK   19  A    between atoms: O10_28  and  C14_29 
REMARK   20  A    between atoms: C14_29  and  C15_30 
REMARK   21  A    between atoms: C16_31  and  O13_49 
REMARK   22  A    between atoms: C17_32  and  O12_48 
REMARK   23  A    between atoms: C18_33  and  N3_35 
REMARK   24  A    between atoms: C21_40  and  N7_47 
REMARK   25  A    between atoms: O13_49  and  P3_50 
REMARK   26  A    between atoms: P3_50  and  O15_52 
REMARK   27  A    between atoms: P3_50  and  O16_53 
ROOT
HETATM    1  C1  UNL     1       8.251  18.287 -11.323  1.00  0.00     0.104 C 
HETATM    2  C2  UNL     1       8.413  19.710 -10.882  1.00  0.00     0.182 C 
HETATM    3  O1  UNL     1       7.484  20.398 -10.467  1.00  0.00    -0.286 OA
ENDROOT
BRANCH   2   4
HETATM    4  S1  UNL     1      10.048  20.338 -11.046  1.00  0.00    -0.091 SA
BRANCH   4   5
HETATM    5  C3  UNL     1      10.556  20.379  -9.297  1.00  0.00     0.102 C 
BRANCH   5   6
HETATM    6  C4  UNL     1      10.200  21.709  -8.631  1.00  0.00     0.133 C 
BRANCH   6   7
HETATM    7  N1  UNL     1       9.573  21.537  -7.336  1.00  0.00    -0.360 N 
HETATM    8  C5  UNL     1       8.285  21.954  -7.095  1.00  0.00     0.219 C 
HETATM    9  O2  UNL     1       7.622  22.565  -7.925  1.00  0.00    -0.274 OA
HETATM   10  H8  UNL     1      10.098  21.090  -6.597  1.00  0.00     0.162 HD
BRANCH   8  11
HETATM   11  C6  UNL     1       7.802  21.630  -5.697  1.00  0.00     0.122 C 
BRANCH  11  12
HETATM   12  C7  UNL     1       6.318  21.264  -5.676  1.00  0.00     0.132 C 
BRANCH  12  13
HETATM   13  N2  UNL     1       6.081  19.846  -5.849  1.00  0.00    -0.358 N 
HETATM   14  C8  UNL     1       5.556  19.367  -7.035  1.00  0.00     0.247 C 
HETATM   15  O3  UNL     1       5.166  20.114  -7.924  1.00  0.00    -0.271 OA
HETATM   16  H13 UNL     1       6.710  19.231  -5.336  1.00  0.00     0.162 HD
BRANCH  14  17
HETATM   17  C9  UNL     1       5.521  17.836  -7.152  1.00  0.00     0.219 C 
BRANCH  17  18
HETATM   18  C10 UNL     1       6.916  17.157  -7.121  1.00  0.00     0.009 C 
HETATM   19  C11 UNL     1       7.006  15.976  -8.098  1.00  0.00     0.020 C 
HETATM   20  C12 UNL     1       8.038  18.154  -7.476  1.00  0.00     0.020 C 
BRANCH  18  21
HETATM   21  C13 UNL     1       7.110  16.646  -5.665  1.00  0.00     0.192 C 
BRANCH  21  22
HETATM   22  O4  UNL     1       6.567  15.356  -5.470  1.00  0.00    -0.296 OA
BRANCH  22  23
HETATM   23  P1  UNL     1       6.561  14.619  -4.046  1.00  0.00     0.401 P 
HETATM   24  O5  UNL     1       7.771  14.895  -3.209  1.00  0.00    -0.631 OA
BRANCH  23  25
HETATM   25  O6  UNL     1       6.313  13.054  -4.332  1.00  0.00    -0.307 OA
HETATM   26  H23 UNL     1       5.403  12.792  -4.143  1.00  0.00     0.222 HD
ENDBRANCH  23  25
BRANCH  23  27
HETATM   27  O7  UNL     1       5.180  15.033  -3.374  1.00  0.00    -0.195 OA
BRANCH  27  28
HETATM   28  P2  UNL     1       3.824  14.469  -3.992  1.00  0.00     0.401 P 
HETATM   29  O8  UNL     1       2.593  15.288  -3.783  1.00  0.00    -0.631 OA
BRANCH  28  30
HETATM   30  O9  UNL     1       4.192  14.227  -5.526  1.00  0.00    -0.307 OA
HETATM   31  H24 UNL     1       3.623  14.726  -6.162  1.00  0.00     0.222 HD
ENDBRANCH  28  30
BRANCH  28  32
HETATM   32  O10 UNL     1       3.757  12.963  -3.465  1.00  0.00    -0.294 OA
BRANCH  32  33
HETATM   33  C14 UNL     1       2.611  12.187  -3.698  1.00  0.00     0.215 C 
BRANCH  33  34
HETATM   34  C15 UNL     1       3.088  10.739  -3.795  1.00  0.00     0.180 C 
HETATM   35  C16 UNL     1       2.269   9.863  -2.856  1.00  0.00     0.197 C 
HETATM   36  C17 UNL     1       3.278   9.314  -1.865  1.00  0.00     0.199 C 
HETATM   37  C18 UNL     1       4.581   9.370  -2.666  1.00  0.00     0.262 C 
HETATM   38  O11 UNL     1       4.468  10.581  -3.446  1.00  0.00    -0.353 OA
BRANCH  35  39
HETATM   39  O13 UNL     1       1.662   8.834  -3.630  1.00  0.00    -0.286 OA
BRANCH  39  40
HETATM   40  P3  UNL     1       0.120   8.554  -3.317  1.00  0.00     0.391 P 
HETATM   41  O14 UNL     1      -0.551   7.678  -4.325  1.00  0.00    -0.632 OA
BRANCH  40  42
HETATM   42  O15 UNL     1      -0.428  10.049  -3.153  1.00  0.00    -0.307 OA
HETATM   43  H36 UNL     1       0.316  10.697  -3.172  1.00  0.00     0.222 HD
ENDBRANCH  40  42
BRANCH  40  44
HETATM   44  O16 UNL     1       0.192   8.030  -1.818  1.00  0.00    -0.307 OA
HETATM   45  H37 UNL     1       0.663   7.185  -1.737  1.00  0.00     0.222 HD
ENDBRANCH  40  44
ENDBRANCH  39  40
ENDBRANCH  35  39
BRANCH  36  46
HETATM   46  O12 UNL     1       2.856   8.034  -1.386  1.00  0.00    -0.388 OA
HETATM   47  H35 UNL     1       3.673   7.566  -1.089  1.00  0.00     0.210 HD
ENDBRANCH  36  46
BRANCH  37  48
HETATM   48  N3  UNL     1       5.752   9.469  -1.818  1.00  0.00    -0.297 N 
HETATM   49  C19 UNL     1       6.469  10.604  -1.520  1.00  0.00     0.188 A 
HETATM   50  N4  UNL     1       7.401  10.383  -0.620  1.00  0.00    -0.346 N 
HETATM   51  C20 UNL     1       7.280   9.039  -0.315  1.00  0.00     0.116 A 
HETATM   52  H4  UNL     1       8.066  11.053  -0.232  1.00  0.00     0.167 HD
HETATM   53  C21 UNL     1       7.950   8.204   0.597  1.00  0.00     0.109 A 
HETATM   54  C23 UNL     1       6.288   8.452  -1.079  1.00  0.00     0.142 A 
HETATM   55  N5  UNL     1       7.601   6.896   0.656  1.00  0.00    -0.341 N 
HETATM   56  C22 UNL     1       6.629   6.457  -0.168  1.00  0.00     0.183 A 
HETATM   57  H5  UNL     1       8.062   6.261   1.308  1.00  0.00     0.167 HD
HETATM   58  N6  UNL     1       5.915   7.160  -1.070  1.00  0.00    -0.336 N 
HETATM   59  H6  UNL     1       5.188   6.764  -1.667  1.00  0.00     0.168 HD
BRANCH  53  60
HETATM   60  N7  UNL     1       8.960   8.648   1.436  1.00  0.00    -0.287 NA
HETATM   61  H33 UNL     1       8.639   9.228   2.208  1.00  0.00     0.125 HD
HETATM   62  H34 UNL     1       9.777   8.968   0.934  1.00  0.00     0.125 HD
ENDBRANCH  53  60
ENDBRANCH  37  48
ENDBRANCH  33  34
ENDBRANCH  32  33
ENDBRANCH  28  32
ENDBRANCH  27  28
ENDBRANCH  23  27
ENDBRANCH  22  23
ENDBRANCH  21  22
ENDBRANCH  18  21
ENDBRANCH  17  18
BRANCH  17  63
HETATM   63  O17 UNL     1       4.722  17.279  -6.103  1.00  0.00    -0.385 OA
HETATM   64  H38 UNL     1       4.028  16.733  -6.509  1.00  0.00     0.210 HD
ENDBRANCH  17  63
ENDBRANCH  14  17
ENDBRANCH  12  13
ENDBRANCH  11  12
ENDBRANCH   8  11
ENDBRANCH   6   7
ENDBRANCH   5   6
ENDBRANCH   4   5
ENDBRANCH   2   4
TORSDOF 27
ENDMDL
MODEL 8
REMARK VINA RESULT:      -5.7      4.197     11.394
REMARK  27 active torsions:
REMARK  status: ('A' for Active; 'I' for Inactive)
REMARK    1  A    between atoms: C2_2  and  S1_4 
REMARK    2  A    between atoms: S1_4  and  C3_5 
REMARK    3  A    between atoms: C3_5  and  C4_6 
REMARK    4  A    between atoms: C4_6  and  N1_7 
REMARK       I    between atoms: N1_7  and  C5_8 
REMARK    5  A    between atoms: C5_8  and  C6_10 
REMARK    6  A    between atoms: C6_10  and  C7_11 
REMARK    7  A    between atoms: C7_11  and  N2_12 
REMARK       I    between atoms: N2_12  and  C8_13 
REMARK    8  A    between atoms: C8_13  and  C9_15 
REMARK    9  A    between atoms: C9_15  and  C10_16 
REMARK   10  A    between atoms: C9_15  and  O17_54 
REMARK   11  A    between atoms: C10_16  and  C13_19 
REMARK   12  A    between atoms: C13_19  and  O4_20 
REMARK   13  A    between atoms: O4_20  and  P1_21 
REMARK   14  A    between atoms: P1_21  and  O6_23 
REMARK   15  A    between atoms: P1_21  and  O7_24 
REMARK   16  A    between atoms: O7_24  and  P2_25 
REMARK   17  A    between atoms: P2_25  and  O9_27 
REMARK   18  A    between atoms: P2_25  and  O10_28 
REMARK   19  A    between atoms: O10_28  and  C14_29 
REMARK   20  A    between atoms: C14_29  and  C15_30 
REMARK   21  A    between atoms: C16_31  and  O13_49 
REMARK   22  A    between atoms: C17_32  and  O12_48 
REMARK   23  A    between atoms: C18_33  and  N3_35 
REMARK   24  A    between atoms: C21_40  and  N7_47 
REMARK   25  A    between atoms: O13_49  and  P3_50 
REMARK   26  A    between atoms: P3_50  and  O15_52 
REMARK   27  A    between atoms: P3_50  and  O16_53 
ROOT
HETATM    1  C1  UNL     1       0.433   8.302  -3.000  1.00  0.00     0.104 C 
HETATM    2  C2  UNL     1       1.483   9.247  -2.502  1.00  0.00     0.182 C 
HETATM    3  O1  UNL     1       1.310  10.010  -1.554  1.00  0.00    -0.286 OA
ENDROOT
BRANCH   2   4
HETATM    4  S1  UNL     1       2.986   9.207  -3.414  1.00  0.00    -0.091 SA
BRANCH   4   5
HETATM    5  C3  UNL     1       4.118   9.971  -2.207  1.00  0.00     0.102 C 
BRANCH   5   6
HETATM    6  C4  UNL     1       5.335  10.600  -2.887  1.00  0.00     0.133 C 
BRANCH   6   7
HETATM    7  N1  UNL     1       5.383  12.039  -2.728  1.00  0.00    -0.360 N 
HETATM    8  C5  UNL     1       6.367  12.653  -1.987  1.00  0.00     0.219 C 
HETATM    9  O2  UNL     1       7.208  12.024  -1.356  1.00  0.00    -0.274 OA
HETATM   10  H8  UNL     1       4.676  12.603  -3.181  1.00  0.00     0.162 HD
BRANCH   8  11
HETATM   11  C6  UNL     1       6.267  14.164  -1.994  1.00  0.00     0.122 C 
BRANCH  11  12
HETATM   12  C7  UNL     1       7.090  14.785  -3.122  1.00  0.00     0.132 C 
BRANCH  12  13
HETATM   13  N2  UNL     1       6.274  15.387  -4.155  1.00  0.00    -0.358 N 
HETATM   14  C8  UNL     1       5.801  14.621  -5.204  1.00  0.00     0.247 C 
HETATM   15  O3  UNL     1       6.142  13.456  -5.366  1.00  0.00    -0.271 OA
HETATM   16  H13 UNL     1       5.701  16.174  -3.857  1.00  0.00     0.162 HD
BRANCH  14  17
HETATM   17  C9  UNL     1       4.806  15.339  -6.129  1.00  0.00     0.219 C 
BRANCH  17  18
HETATM   18  C10 UNL     1       3.314  15.093  -5.782  1.00  0.00     0.009 C 
HETATM   19  C11 UNL     1       2.599  14.266  -6.861  1.00  0.00     0.020 C 
HETATM   20  C12 UNL     1       3.160  14.354  -4.438  1.00  0.00     0.020 C 
BRANCH  18  21
HETATM   21  C13 UNL     1       2.661  16.501  -5.685  1.00  0.00     0.192 C 
BRANCH  21  22
HETATM   22  O4  UNL     1       2.006  16.875  -6.881  1.00  0.00    -0.296 OA
BRANCH  22  23
HETATM   23  P1  UNL     1       1.877  18.399  -7.363  1.00  0.00     0.401 P 
HETATM   24  O5  UNL     1       0.530  19.005  -7.121  1.00  0.00    -0.631 OA
BRANCH  23  25
HETATM   25  O6  UNL     1       2.340  18.440  -8.904  1.00  0.00    -0.307 OA
HETATM   26  H23 UNL     1       1.620  18.704  -9.491  1.00  0.00     0.222 HD
ENDBRANCH  23  25
BRANCH  23  27
HETATM   27  O7  UNL     1       3.084  19.157  -6.657  1.00  0.00    -0.195 OA
BRANCH  27  28
HETATM   28  P2  UNL     1       3.910  20.234  -7.491  1.00  0.00     0.401 P 
HETATM   29  O8  UNL     1       3.178  20.957  -8.575  1.00  0.00    -0.631 OA
BRANCH  28  30
HETATM   30  O9  UNL     1       4.511  21.190  -6.362  1.00  0.00    -0.307 OA
HETATM   31  H24 UNL     1       4.455  22.153  -6.577  1.00  0.00     0.222 HD
ENDBRANCH  28  30
BRANCH  28  32
HETATM   32  O10 UNL     1       5.225  19.448  -7.941  1.00  0.00    -0.294 OA
BRANCH  32  33
HETATM   33  C14 UNL     1       6.411  20.153  -8.199  1.00  0.00     0.215 C 
BRANCH  33  34
HETATM   34  C15 UNL     1       7.343  19.174  -8.911  1.00  0.00     0.180 C 
HETATM   35  C16 UNL     1       8.782  19.425  -8.478  1.00  0.00     0.197 C 
HETATM   36  C17 UNL     1       9.501  19.830  -9.751  1.00  0.00     0.199 C 
HETATM   37  C18 UNL     1       8.643  19.167 -10.831  1.00  0.00     0.262 C 
HETATM   38  O11 UNL     1       7.291  19.289 -10.337  1.00  0.00    -0.353 OA
BRANCH  35  39
HETATM   39  O13 UNL     1       9.296  18.215  -7.932  1.00  0.00    -0.286 OA
BRANCH  39  40
HETATM   40  P3  UNL     1       9.107  18.036  -6.355  1.00  0.00     0.391 P 
HETATM   41  O14 UNL     1       7.910  17.223  -5.980  1.00  0.00    -0.632 OA
BRANCH  40  42
HETATM   42  O15 UNL     1       9.147  19.561  -5.873  1.00  0.00    -0.307 OA
HETATM   43  H36 UNL     1       9.788  20.081  -6.414  1.00  0.00     0.222 HD
ENDBRANCH  40  42
BRANCH  40  44
HETATM   44  O16 UNL     1      10.536  17.484  -5.927  1.00  0.00    -0.307 OA
HETATM   45  H37 UNL     1      10.583  16.514  -5.937  1.00  0.00     0.222 HD
ENDBRANCH  40  44
ENDBRANCH  39  40
ENDBRANCH  35  39
BRANCH  36  46
HETATM   46  O12 UNL     1      10.879  19.452  -9.684  1.00  0.00    -0.388 OA
HETATM   47  H35 UNL     1      10.912  18.612  -9.167  1.00  0.00     0.210 HD
ENDBRANCH  36  46
BRANCH  37  48
HETATM   48  N3  UNL     1       8.735  19.844 -12.109  1.00  0.00    -0.297 N 
HETATM   49  C19 UNL     1       8.677  21.199 -12.338  1.00  0.00     0.188 A 
HETATM   50  N4  UNL     1       8.920  21.503 -13.594  1.00  0.00    -0.346 N 
HETATM   51  C20 UNL     1       9.152  20.286 -14.209  1.00  0.00     0.116 A 
HETATM   52  H4  UNL     1       8.935  22.430 -14.020  1.00  0.00     0.167 HD
HETATM   53  C21 UNL     1       9.505  19.934 -15.524  1.00  0.00     0.109 A 
HETATM   54  C23 UNL     1       9.002  19.246 -13.309  1.00  0.00     0.142 A 
HETATM   55  N5  UNL     1       9.654  18.622 -15.827  1.00  0.00    -0.341 N 
HETATM   56  C22 UNL     1       9.452  17.714 -14.851  1.00  0.00     0.183 A 
HETATM   57  H5  UNL     1       9.913  18.329 -16.769  1.00  0.00     0.167 HD
HETATM   58  N6  UNL     1       9.123  17.931 -13.561  1.00  0.00    -0.336 N 
HETATM   59  H6  UNL     1       8.984  17.195 -12.868  1.00  0.00     0.168 HD
BRANCH  53  60
HETATM   60  N7  UNL     1       9.699  20.862 -16.535  1.00  0.00    -0.287 NA
HETATM   61  H33 UNL     1       9.157  21.717 -16.428  1.00  0.00     0.125 HD
HETATM   62  H34 UNL     1       9.714  20.445 -17.456  1.00  0.00     0.125 HD
ENDBRANCH  53  60
ENDBRANCH  37  48
ENDBRANCH  33  34
ENDBRANCH  32  33
ENDBRANCH  28  32
ENDBRANCH  27  28
ENDBRANCH  23  27
ENDBRANCH  22  23
ENDBRANCH  21  22
ENDBRANCH  18  21
ENDBRANCH  17  18
BRANCH  17  63
HETATM   63  O17 UNL     1       5.049  16.750  -6.114  1.00  0.00    -0.385 OA
HETATM   64  H38 UNL     1       5.543  16.962  -5.304  1.00  0.00     0.210 HD
ENDBRANCH  17  63
ENDBRANCH  14  17
ENDBRANCH  12  13
ENDBRANCH  11  12
ENDBRANCH   8  11
ENDBRANCH   6   7
ENDBRANCH   5   6
ENDBRANCH   4   5
ENDBRANCH   2   4
TORSDOF 27
ENDMDL
MODEL 9
REMARK VINA RESULT:      -5.4      1.857      3.554
REMARK  27 active torsions:
REMARK  status: ('A' for Active; 'I' for Inactive)
REMARK    1  A    between atoms: C2_2  and  S1_4 
REMARK    2  A    between atoms: S1_4  and  C3_5 
REMARK    3  A    between atoms: C3_5  and  C4_6 
REMARK    4  A    between atoms: C4_6  and  N1_7 
REMARK       I    between atoms: N1_7  and  C5_8 
REMARK    5  A    between atoms: C5_8  and  C6_10 
REMARK    6  A    between atoms: C6_10  and  C7_11 
REMARK    7  A    between atoms: C7_11  and  N2_12 
REMARK       I    between atoms: N2_12  and  C8_13 
REMARK    8  A    between atoms: C8_13  and  C9_15 
REMARK    9  A    between atoms: C9_15  and  C10_16 
REMARK   10  A    between atoms: C9_15  and  O17_54 
REMARK   11  A    between atoms: C10_16  and  C13_19 
REMARK   12  A    between atoms: C13_19  and  O4_20 
REMARK   13  A    between atoms: O4_20  and  P1_21 
REMARK   14  A    between atoms: P1_21  and  O6_23 
REMARK   15  A    between atoms: P1_21  and  O7_24 
REMARK   16  A    between atoms: O7_24  and  P2_25 
REMARK   17  A    between atoms: P2_25  and  O9_27 
REMARK   18  A    between atoms: P2_25  and  O10_28 
REMARK   19  A    between atoms: O10_28  and  C14_29 
REMARK   20  A    between atoms: C14_29  and  C15_30 
REMARK   21  A    between atoms: C16_31  and  O13_49 
REMARK   22  A    between atoms: C17_32  and  O12_48 
REMARK   23  A    between atoms: C18_33  and  N3_35 
REMARK   24  A    between atoms: C21_40  and  N7_47 
REMARK   25  A    between atoms: O13_49  and  P3_50 
REMARK   26  A    between atoms: P3_50  and  O15_52 
REMARK   27  A    between atoms: P3_50  and  O16_53 
ROOT
HETATM    1  C1  UNL     1       7.309  21.439  -8.981  1.00  0.00     0.104 C 
HETATM    2  C2  UNL     1       6.281  22.037  -8.069  1.00  0.00     0.182 C 
HETATM    3  O1  UNL     1       5.126  22.271  -8.416  1.00  0.00    -0.286 OA
ENDROOT
BRANCH   2   4
HETATM    4  S1  UNL     1       6.875  22.418  -6.458  1.00  0.00    -0.091 SA
BRANCH   4   5
HETATM    5  C3  UNL     1       5.357  23.085  -5.703  1.00  0.00     0.102 C 
BRANCH   5   6
HETATM    6  C4  UNL     1       4.582  22.012  -4.937  1.00  0.00     0.133 C 
BRANCH   6   7
HETATM    7  N1  UNL     1       3.514  21.426  -5.720  1.00  0.00    -0.360 N 
HETATM    8  C5  UNL     1       2.244  21.274  -5.214  1.00  0.00     0.219 C 
HETATM    9  O2  UNL     1       1.959  21.547  -4.053  1.00  0.00    -0.274 OA
HETATM   10  H8  UNL     1       3.711  21.129  -6.667  1.00  0.00     0.162 HD
BRANCH   8  11
HETATM   11  C6  UNL     1       1.266  20.694  -6.212  1.00  0.00     0.122 C 
BRANCH  11  12
HETATM   12  C7  UNL     1       1.328  19.167  -6.252  1.00  0.00     0.132 C 
BRANCH  12  13
HETATM   13  N2  UNL     1       2.532  18.664  -6.879  1.00  0.00    -0.358 N 
HETATM   14  C8  UNL     1       3.054  17.440  -6.503  1.00  0.00     0.247 C 
HETATM   15  O3  UNL     1       2.601  16.799  -5.563  1.00  0.00    -0.271 OA
HETATM   16  H13 UNL     1       2.679  18.957  -7.842  1.00  0.00     0.162 HD
BRANCH  14  17
HETATM   17  C9  UNL     1       4.225  16.947  -7.366  1.00  0.00     0.219 C 
BRANCH  17  18
HETATM   18  C10 UNL     1       5.628  17.245  -6.777  1.00  0.00     0.009 C 
HETATM   19  C11 UNL     1       6.752  16.611  -7.609  1.00  0.00     0.020 C 
HETATM   20  C12 UNL     1       5.896  18.762  -6.695  1.00  0.00     0.020 C 
BRANCH  18  21
HETATM   21  C13 UNL     1       5.629  16.634  -5.346  1.00  0.00     0.192 C 
BRANCH  21  22
HETATM   22  O4  UNL     1       5.707  15.223  -5.364  1.00  0.00    -0.296 OA
BRANCH  22  23
HETATM   23  P1  UNL     1       5.986  14.350  -4.048  1.00  0.00     0.401 P 
HETATM   24  O5  UNL     1       6.983  14.956  -3.111  1.00  0.00    -0.631 OA
BRANCH  23  25
HETATM   25  O6  UNL     1       6.377  12.870  -4.545  1.00  0.00    -0.307 OA
HETATM   26  H23 UNL     1       6.034  12.683  -5.429  1.00  0.00     0.222 HD
ENDBRANCH  23  25
BRANCH  23  27
HETATM   27  O7  UNL     1       4.549  14.093  -3.414  1.00  0.00    -0.195 OA
BRANCH  27  28
HETATM   28  P2  UNL     1       3.532  13.132  -4.176  1.00  0.00     0.401 P 
HETATM   29  O8  UNL     1       2.199  12.915  -3.537  1.00  0.00    -0.631 OA
BRANCH  28  30
HETATM   30  O9  UNL     1       3.456  13.765  -5.640  1.00  0.00    -0.307 OA
HETATM   31  H24 UNL     1       3.647  13.124  -6.367  1.00  0.00     0.222 HD
ENDBRANCH  28  30
BRANCH  28  32
HETATM   32  O10 UNL     1       4.389  11.817  -4.468  1.00  0.00    -0.294 OA
BRANCH  32  33
HETATM   33  C14 UNL     1       3.864  10.805  -5.287  1.00  0.00     0.215 C 
BRANCH  33  34
HETATM   34  C15 UNL     1       3.849   9.534  -4.438  1.00  0.00     0.180 C 
HETATM   35  C16 UNL     1       2.722   9.611  -3.416  1.00  0.00     0.197 C 
HETATM   36  C17 UNL     1       3.421   9.572  -2.070  1.00  0.00     0.199 C 
HETATM   37  C18 UNL     1       4.726   8.846  -2.405  1.00  0.00     0.262 C 
HETATM   38  O11 UNL     1       5.072   9.325  -3.723  1.00  0.00    -0.353 OA
BRANCH  35  39
HETATM   39  O13 UNL     1       1.872   8.486  -3.612  1.00  0.00    -0.286 OA
BRANCH  39  40
HETATM   40  P3  UNL     1       0.375   8.652  -3.076  1.00  0.00     0.391 P 
HETATM   41  O14 UNL     1      -0.033  10.073  -2.859  1.00  0.00    -0.632 OA
BRANCH  40  42
HETATM   42  O15 UNL     1       0.404   7.686  -1.801  1.00  0.00    -0.307 OA
HETATM   43  H36 UNL     1      -0.398   7.113  -1.780  1.00  0.00     0.222 HD
ENDBRANCH  40  42
BRANCH  40  44
HETATM   44  O16 UNL     1      -0.440   7.809  -4.150  1.00  0.00    -0.307 OA
HETATM   45  H37 UNL     1      -0.235   8.064  -5.064  1.00  0.00     0.222 HD
ENDBRANCH  40  44
ENDBRANCH  39  40
ENDBRANCH  35  39
BRANCH  36  46
HETATM   46  O12 UNL     1       2.571   8.975  -1.087  1.00  0.00    -0.388 OA
HETATM   47  H35 UNL     1       1.802   9.584  -0.978  1.00  0.00     0.210 HD
ENDBRANCH  36  46
BRANCH  37  48
HETATM   48  N3  UNL     1       5.799   9.182  -1.490  1.00  0.00    -0.297 N 
HETATM   49  C19 UNL     1       6.655   8.311  -0.858  1.00  0.00     0.188 A 
HETATM   50  N4  UNL     1       7.601   8.937  -0.192  1.00  0.00    -0.346 N 
HETATM   51  C20 UNL     1       7.349  10.280  -0.408  1.00  0.00     0.116 A 
HETATM   52  H4  UNL     1       8.353   8.524   0.360  1.00  0.00     0.167 HD
HETATM   53  C21 UNL     1       8.016  11.451  -0.007  1.00  0.00     0.109 A 
HETATM   54  C23 UNL     1       6.213  10.447  -1.178  1.00  0.00     0.142 A 
HETATM   55  N5  UNL     1       7.504  12.649  -0.379  1.00  0.00    -0.341 N 
HETATM   56  C22 UNL     1       6.373  12.660  -1.112  1.00  0.00     0.183 A 
HETATM   57  H5  UNL     1       7.962  13.520  -0.110  1.00  0.00     0.167 HD
HETATM   58  N6  UNL     1       5.655  11.609  -1.559  1.00  0.00    -0.336 N 
HETATM   59  H6  UNL     1       4.801  11.686  -2.114  1.00  0.00     0.168 HD
BRANCH  53  60
HETATM   60  N7  UNL     1       9.171  11.446   0.759  1.00  0.00    -0.287 NA
HETATM   61  H33 UNL     1       9.786  10.653   0.585  1.00  0.00     0.125 HD
HETATM   62  H34 UNL     1       9.004  11.690   1.726  1.00  0.00     0.125 HD
ENDBRANCH  53  60
ENDBRANCH  37  48
ENDBRANCH  33  34
ENDBRANCH  32  33
ENDBRANCH  28  32
ENDBRANCH  27  28
ENDBRANCH  23  27
ENDBRANCH  22  23
ENDBRANCH  21  22
ENDBRANCH  18  21
ENDBRANCH  17  18
BRANCH  17  63
HETATM   63  O17 UNL     1       4.115  15.536  -7.586  1.00  0.00    -0.385 OA
HETATM   64  H38 UNL     1       3.492  15.393  -8.319  1.00  0.00     0.210 HD
ENDBRANCH  17  63
ENDBRANCH  14  17
ENDBRANCH  12  13
ENDBRANCH  11  12
ENDBRANCH   8  11
ENDBRANCH   6   7
ENDBRANCH   5   6
ENDBRANCH   4   5
ENDBRANCH   2   4
TORSDOF 27
ENDMDL
MODEL 10
REMARK VINA RESULT:      -5.4      3.111     10.319
REMARK  27 active torsions:
REMARK  status: ('A' for Active; 'I' for Inactive)
REMARK    1  A    between atoms: C2_2  and  S1_4 
REMARK    2  A    between atoms: S1_4  and  C3_5 
REMARK    3  A    between atoms: C3_5  and  C4_6 
REMARK    4  A    between atoms: C4_6  and  N1_7 
REMARK       I    between atoms: N1_7  and  C5_8 
REMARK    5  A    between atoms: C5_8  and  C6_10 
REMARK    6  A    between atoms: C6_10  and  C7_11 
REMARK    7  A    between atoms: C7_11  and  N2_12 
REMARK       I    between atoms: N2_12  and  C8_13 
REMARK    8  A    between atoms: C8_13  and  C9_15 
REMARK    9  A    between atoms: C9_15  and  C10_16 
REMARK   10  A    between atoms: C9_15  and  O17_54 
REMARK   11  A    between atoms: C10_16  and  C13_19 
REMARK   12  A    between atoms: C13_19  and  O4_20 
REMARK   13  A    between atoms: O4_20  and  P1_21 
REMARK   14  A    between atoms: P1_21  and  O6_23 
REMARK   15  A    between atoms: P1_21  and  O7_24 
REMARK   16  A    between atoms: O7_24  and  P2_25 
REMARK   17  A    between atoms: P2_25  and  O9_27 
REMARK   18  A    between atoms: P2_25  and  O10_28 
REMARK   19  A    between atoms: O10_28  and  C14_29 
REMARK   20  A    between atoms: C14_29  and  C15_30 
REMARK   21  A    between atoms: C16_31  and  O13_49 
REMARK   22  A    between atoms: C17_32  and  O12_48 
REMARK   23  A    between atoms: C18_33  and  N3_35 
REMARK   24  A    between atoms: C21_40  and  N7_47 
REMARK   25  A    between atoms: O13_49  and  P3_50 
REMARK   26  A    between atoms: P3_50  and  O15_52 
REMARK   27  A    between atoms: P3_50  and  O16_53 
ROOT
HETATM    1  C1  UNL     1       7.853   8.583   0.844  1.00  0.00     0.104 C 
HETATM    2  C2  UNL     1       7.602   9.342  -0.424  1.00  0.00     0.182 C 
HETATM    3  O1  UNL     1       8.258   9.179  -1.449  1.00  0.00    -0.286 OA
ENDROOT
BRANCH   2   4
HETATM    4  S1  UNL     1       6.306  10.526  -0.315  1.00  0.00    -0.091 SA
BRANCH   4   5
HETATM    5  C3  UNL     1       6.724  11.319   1.271  1.00  0.00     0.102 C 
BRANCH   5   6
HETATM    6  C4  UNL     1       7.927  12.255   1.141  1.00  0.00     0.133 C 
BRANCH   6   7
HETATM    7  N1  UNL     1       7.812  13.160   0.015  1.00  0.00    -0.360 N 
HETATM    8  C5  UNL     1       8.639  13.062  -1.080  1.00  0.00     0.219 C 
HETATM    9  O2  UNL     1       9.567  12.264  -1.137  1.00  0.00    -0.274 OA
HETATM   10  H8  UNL     1       7.098  13.876   0.038  1.00  0.00     0.162 HD
BRANCH   8  11
HETATM   11  C6  UNL     1       8.316  14.065  -2.166  1.00  0.00     0.122 C 
BRANCH  11  12
HETATM   12  C7  UNL     1       6.857  14.518  -2.109  1.00  0.00     0.132 C 
BRANCH  12  13
HETATM   13  N2  UNL     1       5.918  13.421  -2.213  1.00  0.00    -0.358 N 
HETATM   14  C8  UNL     1       5.569  12.917  -3.452  1.00  0.00     0.247 C 
HETATM   15  O3  UNL     1       5.938  13.441  -4.496  1.00  0.00    -0.271 OA
HETATM   16  H13 UNL     1       5.913  12.773  -1.429  1.00  0.00     0.162 HD
BRANCH  14  17
HETATM   17  C9  UNL     1       4.707  11.647  -3.412  1.00  0.00     0.219 C 
BRANCH  17  18
HETATM   18  C10 UNL     1       3.466  11.682  -4.342  1.00  0.00     0.009 C 
HETATM   19  C11 UNL     1       3.754  11.060  -5.716  1.00  0.00     0.020 C 
HETATM   20  C12 UNL     1       2.272  10.929  -3.720  1.00  0.00     0.020 C 
BRANCH  18  21
HETATM   21  C13 UNL     1       3.105  13.186  -4.515  1.00  0.00     0.192 C 
BRANCH  21  22
HETATM   22  O4  UNL     1       2.988  13.559  -5.873  1.00  0.00    -0.296 OA
BRANCH  22  23
HETATM   23  P1  UNL     1       3.082  15.080  -6.369  1.00  0.00     0.401 P 
HETATM   24  O5  UNL     1       4.124  15.320  -7.415  1.00  0.00    -0.631 OA
BRANCH  23  25
HETATM   25  O6  UNL     1       3.262  15.989  -5.052  1.00  0.00    -0.307 OA
HETATM   26  H23 UNL     1       4.154  16.354  -4.985  1.00  0.00     0.222 HD
ENDBRANCH  23  25
BRANCH  23  27
HETATM   27  O7  UNL     1       1.600  15.461  -6.807  1.00  0.00    -0.195 OA
BRANCH  27  28
HETATM   28  P2  UNL     1       1.347  16.856  -7.533  1.00  0.00     0.401 P 
HETATM   29  O8  UNL     1       1.448  16.871  -9.024  1.00  0.00    -0.631 OA
BRANCH  28  30
HETATM   30  O9  UNL     1      -0.079  17.308  -6.973  1.00  0.00    -0.307 OA
HETATM   31  H24 UNL     1      -0.717  16.564  -6.846  1.00  0.00     0.222 HD
ENDBRANCH  28  30
BRANCH  28  32
HETATM   32  O10 UNL     1       2.303  17.874  -6.759  1.00  0.00    -0.294 OA
BRANCH  32  33
HETATM   33  C14 UNL     1       2.868  18.964  -7.440  1.00  0.00     0.215 C 
BRANCH  33  34
HETATM   34  C15 UNL     1       3.896  19.575  -6.490  1.00  0.00     0.180 C 
HETATM   35  C16 UNL     1       3.750  21.091  -6.478  1.00  0.00     0.197 C 
HETATM   36  C17 UNL     1       5.076  21.609  -7.003  1.00  0.00     0.199 C 
HETATM   37  C18 UNL     1       6.031  20.465  -6.651  1.00  0.00     0.262 C 
HETATM   38  O11 UNL     1       5.246  19.270  -6.856  1.00  0.00    -0.353 OA
BRANCH  35  39
HETATM   39  O13 UNL     1       3.507  21.500  -5.136  1.00  0.00    -0.286 OA
BRANCH  39  40
HETATM   40  P3  UNL     1       1.972  21.733  -4.754  1.00  0.00     0.391 P 
HETATM   41  O14 UNL     1       1.120  20.516  -4.915  1.00  0.00    -0.632 OA
BRANCH  40  42
HETATM   42  O15 UNL     1       1.628  23.005  -5.662  1.00  0.00    -0.307 OA
HETATM   43  H36 UNL     1       0.790  22.859  -6.163  1.00  0.00     0.222 HD
ENDBRANCH  40  42
BRANCH  40  44
HETATM   44  O16 UNL     1       2.101  22.354  -3.296  1.00  0.00    -0.307 OA
HETATM   45  H37 UNL     1       2.921  22.858  -3.172  1.00  0.00     0.222 HD
ENDBRANCH  40  44
ENDBRANCH  39  40
ENDBRANCH  35  39
BRANCH  36  46
HETATM   46  O12 UNL     1       5.360  22.896  -6.448  1.00  0.00    -0.388 OA
HETATM   47  H35 UNL     1       4.832  23.546  -6.970  1.00  0.00     0.210 HD
ENDBRANCH  36  46
BRANCH  37  48
HETATM   48  N3  UNL     1       7.188  20.419  -7.523  1.00  0.00    -0.297 N 
HETATM   49  C19 UNL     1       7.755  21.468  -8.208  1.00  0.00     0.188 A 
HETATM   50  N4  UNL     1       8.872  21.124  -8.811  1.00  0.00    -0.346 N 
HETATM   51  C20 UNL     1       9.040  19.787  -8.498  1.00  0.00     0.116 A 
HETATM   52  H4  UNL     1       9.479  21.711  -9.383  1.00  0.00     0.167 HD
HETATM   53  C21 UNL     1      10.050  18.857  -8.799  1.00  0.00     0.109 A 
HETATM   54  C23 UNL     1       7.983  19.327  -7.733  1.00  0.00     0.142 A 
HETATM   55  N5  UNL     1       9.920  17.587  -8.345  1.00  0.00    -0.341 N 
HETATM   56  C22 UNL     1       8.821  17.275  -7.629  1.00  0.00     0.183 A 
HETATM   57  H5  UNL     1      10.634  16.885  -8.541  1.00  0.00     0.167 HD
HETATM   58  N6  UNL     1       7.798  18.077  -7.272  1.00  0.00    -0.336 N 
HETATM   59  H6  UNL     1       6.991  17.777  -6.726  1.00  0.00     0.168 HD
BRANCH  53  60
HETATM   60  N7  UNL     1      11.174  19.169  -9.548  1.00  0.00    -0.287 NA
HETATM   61  H33 UNL     1      12.002  18.628  -9.306  1.00  0.00     0.125 HD
HETATM   62  H34 UNL     1      11.301  20.164  -9.674  1.00  0.00     0.125 HD
ENDBRANCH  53  60
ENDBRANCH  37  48
ENDBRANCH  33  34
ENDBRANCH  32  33
ENDBRANCH  28  32
ENDBRANCH  27  28
ENDBRANCH  23  27
ENDBRANCH  22  23
ENDBRANCH  21  22
ENDBRANCH  18  21
ENDBRANCH  17  18
BRANCH  17  63
HETATM   63  O17 UNL     1       5.498  10.503  -3.754  1.00  0.00    -0.385 OA
HETATM   64  H38 UNL     1       6.102  10.322  -3.014  1.00  0.00     0.210 HD
ENDBRANCH  17  63
ENDBRANCH  14  17
ENDBRANCH  12  13
ENDBRANCH  11  12
ENDBRANCH   8  11
ENDBRANCH   6   7
ENDBRANCH   5   6
ENDBRANCH   4   5
ENDBRANCH   2   4
TORSDOF 27
ENDMDL
MODEL 11
REMARK VINA RESULT:      -5.3      3.269     11.488
REMARK  27 active torsions:
REMARK  status: ('A' for Active; 'I' for Inactive)
REMARK    1  A    between atoms: C2_2  and  S1_4 
REMARK    2  A    between atoms: S1_4  and  C3_5 
REMARK    3  A    between atoms: C3_5  and  C4_6 
REMARK    4  A    between atoms: C4_6  and  N1_7 
REMARK       I    between atoms: N1_7  and  C5_8 
REMARK    5  A    between atoms: C5_8  and  C6_10 
REMARK    6  A    between atoms: C6_10  and  C7_11 
REMARK    7  A    between atoms: C7_11  and  N2_12 
REMARK       I    between atoms: N2_12  and  C8_13 
REMARK    8  A    between atoms: C8_13  and  C9_15 
REMARK    9  A    between atoms: C9_15  and  C10_16 
REMARK   10  A    between atoms: C9_15  and  O17_54 
REMARK   11  A    between atoms: C10_16  and  C13_19 
REMARK   12  A    between atoms: C13_19  and  O4_20 
REMARK   13  A    between atoms: O4_20  and  P1_21 
REMARK   14  A    between atoms: P1_21  and  O6_23 
REMARK   15  A    between atoms: P1_21  and  O7_24 
REMARK   16  A    between atoms: O7_24  and  P2_25 
REMARK   17  A    between atoms: P2_25  and  O9_27 
REMARK   18  A    between atoms: P2_25  and  O10_28 
REMARK   19  A    between atoms: O10_28  and  C14_29 
REMARK   20  A    between atoms: C14_29  and  C15_30 
REMARK   21  A    between atoms: C16_31  and  O13_49 
REMARK   22  A    between atoms: C17_32  and  O12_48 
REMARK   23  A    between atoms: C18_33  and  N3_35 
REMARK   24  A    between atoms: C21_40  and  N7_47 
REMARK   25  A    between atoms: O13_49  and  P3_50 
REMARK   26  A    between atoms: P3_50  and  O15_52 
REMARK   27  A    between atoms: P3_50  and  O16_53 
ROOT
HETATM    1  C1  UNL     1       7.491   6.126   1.086  1.00  0.00     0.104 C 
HETATM    2  C2  UNL     1       6.806   6.578  -0.168  1.00  0.00     0.182 C 
HETATM    3  O1  UNL     1       6.019   5.875  -0.797  1.00  0.00    -0.286 OA
ENDROOT
BRANCH   2   4
HETATM    4  S1  UNL     1       7.254   8.194  -0.696  1.00  0.00    -0.091 SA
BRANCH   4   5
HETATM    5  C3  UNL     1       7.891   8.880   0.866  1.00  0.00     0.102 C 
BRANCH   5   6
HETATM    6  C4  UNL     1       7.462  10.335   1.067  1.00  0.00     0.133 C 
BRANCH   6   7
HETATM    7  N1  UNL     1       7.733  11.163  -0.090  1.00  0.00    -0.360 N 
HETATM    8  C5  UNL     1       7.979  12.511   0.026  1.00  0.00     0.219 C 
HETATM    9  O2  UNL     1       7.905  13.106   1.095  1.00  0.00    -0.274 OA
HETATM   10  H8  UNL     1       7.748  10.731  -1.005  1.00  0.00     0.162 HD
BRANCH   8  11
HETATM   11  C6  UNL     1       8.293  13.179  -1.295  1.00  0.00     0.122 C 
BRANCH  11  12
HETATM   12  C7  UNL     1       7.063  13.852  -1.902  1.00  0.00     0.132 C 
BRANCH  12  13
HETATM   13  N2  UNL     1       5.905  12.983  -1.947  1.00  0.00    -0.358 N 
HETATM   14  C8  UNL     1       5.674  12.188  -3.055  1.00  0.00     0.247 C 
HETATM   15  O3  UNL     1       6.354  12.270  -4.070  1.00  0.00    -0.271 OA
HETATM   16  H13 UNL     1       5.586  12.632  -1.047  1.00  0.00     0.162 HD
BRANCH  14  17
HETATM   17  C9  UNL     1       4.517  11.189  -2.900  1.00  0.00     0.219 C 
BRANCH  17  18
HETATM   18  C10 UNL     1       3.408  11.317  -3.976  1.00  0.00     0.009 C 
HETATM   19  C11 UNL     1       3.811  10.657  -5.303  1.00  0.00     0.020 C 
HETATM   20  C12 UNL     1       2.087  10.674  -3.507  1.00  0.00     0.020 C 
BRANCH  18  21
HETATM   21  C13 UNL     1       3.200  12.844  -4.194  1.00  0.00     0.192 C 
BRANCH  21  22
HETATM   22  O4  UNL     1       3.418  13.231  -5.535  1.00  0.00    -0.296 OA
BRANCH  22  23
HETATM   23  P1  UNL     1       2.356  14.085  -6.380  1.00  0.00     0.401 P 
HETATM   24  O5  UNL     1       0.928  13.793  -6.040  1.00  0.00    -0.631 OA
BRANCH  23  25
HETATM   25  O6  UNL     1       2.712  13.865  -7.934  1.00  0.00    -0.307 OA
HETATM   26  H23 UNL     1       3.289  13.102  -8.068  1.00  0.00     0.222 HD
ENDBRANCH  23  25
BRANCH  23  27
HETATM   27  O7  UNL     1       2.791  15.601  -6.175  1.00  0.00    -0.195 OA
BRANCH  27  28
HETATM   28  P2  UNL     1       4.343  15.951  -6.084  1.00  0.00     0.401 P 
HETATM   29  O8  UNL     1       5.051  15.566  -4.826  1.00  0.00    -0.631 OA
BRANCH  28  30
HETATM   30  O9  UNL     1       4.947  15.283  -7.402  1.00  0.00    -0.307 OA
HETATM   31  H24 UNL     1       5.499  15.896  -7.948  1.00  0.00     0.222 HD
ENDBRANCH  28  30
BRANCH  28  32
HETATM   32  O10 UNL     1       4.413  17.497  -6.478  1.00  0.00    -0.294 OA
BRANCH  32  33
HETATM   33  C14 UNL     1       5.655  18.146  -6.555  1.00  0.00     0.215 C 
BRANCH  33  34
HETATM   34  C15 UNL     1       5.429  19.402  -7.395  1.00  0.00     0.180 C 
HETATM   35  C16 UNL     1       5.765  20.639  -6.573  1.00  0.00     0.197 C 
HETATM   36  C17 UNL     1       4.459  21.406  -6.481  1.00  0.00     0.199 C 
HETATM   37  C18 UNL     1       3.716  20.928  -7.731  1.00  0.00     0.262 C 
HETATM   38  O11 UNL     1       4.078  19.534  -7.850  1.00  0.00    -0.353 OA
BRANCH  35  39
HETATM   39  O13 UNL     1       6.770  21.371  -7.268  1.00  0.00    -0.286 OA
BRANCH  39  40
HETATM   40  P3  UNL     1       8.118  21.637  -6.450  1.00  0.00     0.391 P 
HETATM   41  O14 UNL     1       9.349  21.619  -7.297  1.00  0.00    -0.632 OA
BRANCH  40  42
HETATM   42  O15 UNL     1       7.993  20.533  -5.300  1.00  0.00    -0.307 OA
HETATM   43  H36 UNL     1       8.371  19.672  -5.600  1.00  0.00     0.222 HD
ENDBRANCH  40  42
BRANCH  40  44
HETATM   44  O16 UNL     1       7.765  22.990  -5.693  1.00  0.00    -0.307 OA
HETATM   45  H37 UNL     1       8.366  23.717  -5.921  1.00  0.00     0.222 HD
ENDBRANCH  40  44
ENDBRANCH  39  40
ENDBRANCH  35  39
BRANCH  36  46
HETATM   46  O12 UNL     1       4.715  22.808  -6.365  1.00  0.00    -0.388 OA
HETATM   47  H35 UNL     1       4.834  22.990  -5.403  1.00  0.00     0.210 HD
ENDBRANCH  36  46
BRANCH  37  48
HETATM   48  N3  UNL     1       2.277  21.026  -7.594  1.00  0.00    -0.297 N 
HETATM   49  C19 UNL     1       1.445  21.945  -8.190  1.00  0.00     0.188 A 
HETATM   50  N4  UNL     1       0.175  21.688  -7.966  1.00  0.00    -0.346 N 
HETATM   51  C20 UNL     1       0.183  20.543  -7.189  1.00  0.00     0.116 A 
HETATM   52  H4  UNL     1      -0.635  22.215  -8.291  1.00  0.00     0.167 HD
HETATM   53  C21 UNL     1      -0.845  19.745  -6.658  1.00  0.00     0.109 A 
HETATM   54  C23 UNL     1       1.479  20.144  -6.919  1.00  0.00     0.142 A 
HETATM   55  N5  UNL     1      -0.509  18.665  -5.911  1.00  0.00    -0.341 N 
HETATM   56  C22 UNL     1       0.800  18.411  -5.710  1.00  0.00     0.183 A 
HETATM   57  H5  UNL     1      -1.227  18.061  -5.512  1.00  0.00     0.167 HD
HETATM   58  N6  UNL     1       1.867  19.094  -6.173  1.00  0.00    -0.336 N 
HETATM   59  H6  UNL     1       2.838  18.848  -5.983  1.00  0.00     0.168 HD
BRANCH  53  60
HETATM   60  N7  UNL     1      -2.192  20.011  -6.849  1.00  0.00    -0.287 NA
HETATM   61  H33 UNL     1      -2.471  20.081  -7.825  1.00  0.00     0.125 HD
HETATM   62  H34 UNL     1      -2.547  20.720  -6.222  1.00  0.00     0.125 HD
ENDBRANCH  53  60
ENDBRANCH  37  48
ENDBRANCH  33  34
ENDBRANCH  32  33
ENDBRANCH  28  32
ENDBRANCH  27  28
ENDBRANCH  23  27
ENDBRANCH  22  23
ENDBRANCH  21  22
ENDBRANCH  18  21
ENDBRANCH  17  18
BRANCH  17  63
HETATM   63  O17 UNL     1       5.018   9.848  -2.921  1.00  0.00    -0.385 OA
HETATM   64  H38 UNL     1       4.324   9.272  -3.283  1.00  0.00     0.210 HD
ENDBRANCH  17  63
ENDBRANCH  14  17
ENDBRANCH  12  13
ENDBRANCH  11  12
ENDBRANCH   8  11
ENDBRANCH   6   7
ENDBRANCH   5   6
ENDBRANCH   4   5
ENDBRANCH   2   4
TORSDOF 27
ENDMDL
MODEL 12
REMARK VINA RESULT:      -4.8     13.473     17.613
REMARK  27 active torsions:
REMARK  status: ('A' for Active; 'I' for Inactive)
REMARK    1  A    between atoms: C2_2  and  S1_4 
REMARK    2  A    between atoms: S1_4  and  C3_5 
REMARK    3  A    between atoms: C3_5  and  C4_6 
REMARK    4  A    between atoms: C4_6  and  N1_7 
REMARK       I    between atoms: N1_7  and  C5_8 
REMARK    5  A    between atoms: C5_8  and  C6_10 
REMARK    6  A    between atoms: C6_10  and  C7_11 
REMARK    7  A    between atoms: C7_11  and  N2_12 
REMARK       I    between atoms: N2_12  and  C8_13 
REMARK    8  A    between atoms: C8_13  and  C9_15 
REMARK    9  A    between atoms: C9_15  and  C10_16 
REMARK   10  A    between atoms: C9_15  and  O17_54 
REMARK   11  A    between atoms: C10_16  and  C13_19 
REMARK   12  A    between atoms: C13_19  and  O4_20 
REMARK   13  A    between atoms: O4_20  and  P1_21 
REMARK   14  A    between atoms: P1_21  and  O6_23 
REMARK   15  A    between atoms: P1_21  and  O7_24 
REMARK   16  A    between atoms: O7_24  and  P2_25 
REMARK   17  A    between atoms: P2_25  and  O9_27 
REMARK   18  A    between atoms: P2_25  and  O10_28 
REMARK   19  A    between atoms: O10_28  and  C14_29 
REMARK   20  A    between atoms: C14_29  and  C15_30 
REMARK   21  A    between atoms: C16_31  and  O13_49 
REMARK   22  A    between atoms: C17_32  and  O12_48 
REMARK   23  A    between atoms: C18_33  and  N3_35 
REMARK   24  A    between atoms: C21_40  and  N7_47 
REMARK   25  A    between atoms: O13_49  and  P3_50 
REMARK   26  A    between atoms: P3_50  and  O15_52 
REMARK   27  A    between atoms: P3_50  and  O16_53 
ROOT
HETATM    1  C1  UNL     1      -3.452  21.279   4.720  1.00  0.00     0.104 C 
HETATM    2  C2  UNL     1      -3.745  21.953   3.415  1.00  0.00     0.182 C 
HETATM    3  O1  UNL     1      -2.946  21.994   2.482  1.00  0.00    -0.286 OA
ENDROOT
BRANCH   2   4
HETATM    4  S1  UNL     1      -5.322  22.725   3.336  1.00  0.00    -0.091 SA
BRANCH   4   5
HETATM    5  C3  UNL     1      -5.994  22.257   4.964  1.00  0.00     0.102 C 
BRANCH   5   6
HETATM    6  C4  UNL     1      -7.134  21.244   4.840  1.00  0.00     0.133 C 
BRANCH   6   7
HETATM    7  N1  UNL     1      -8.378  21.852   4.413  1.00  0.00    -0.360 N 
HETATM    8  C5  UNL     1      -9.411  21.103   3.899  1.00  0.00     0.219 C 
HETATM    9  O2  UNL     1      -9.316  19.899   3.696  1.00  0.00    -0.274 OA
HETATM   10  H8  UNL     1      -8.487  22.853   4.505  1.00  0.00     0.162 HD
BRANCH   8  11
HETATM   11  C6  UNL     1     -10.639  21.924   3.568  1.00  0.00     0.122 C 
BRANCH  11  12
HETATM   12  C7  UNL     1     -10.666  22.344   2.099  1.00  0.00     0.132 C 
BRANCH  12  13
HETATM   13  N2  UNL     1     -10.292  21.275   1.196  1.00  0.00    -0.358 N 
HETATM   14  C8  UNL     1     -11.258  20.438   0.669  1.00  0.00     0.247 C 
HETATM   15  O3  UNL     1     -12.428  20.486   1.028  1.00  0.00    -0.271 OA
HETATM   16  H13 UNL     1      -9.468  21.452   0.626  1.00  0.00     0.162 HD
BRANCH  14  17
HETATM   17  C9  UNL     1     -10.751  19.466  -0.406  1.00  0.00     0.219 C 
BRANCH  17  18
HETATM   18  C10 UNL     1     -11.561  19.492  -1.729  1.00  0.00     0.009 C 
HETATM   19  C11 UNL     1     -12.750  18.520  -1.699  1.00  0.00     0.020 C 
HETATM   20  C12 UNL     1     -12.107  20.902  -2.030  1.00  0.00     0.020 C 
BRANCH  18  21
HETATM   21  C13 UNL     1     -10.566  19.065  -2.847  1.00  0.00     0.192 C 
BRANCH  21  22
HETATM   22  O4  UNL     1     -11.196  18.331  -3.877  1.00  0.00    -0.296 OA
BRANCH  22  23
HETATM   23  P1  UNL     1     -11.634  18.989  -5.272  1.00  0.00     0.401 P 
HETATM   24  O5  UNL     1     -13.004  19.592  -5.261  1.00  0.00    -0.631 OA
BRANCH  23  25
HETATM   25  O6  UNL     1     -11.430  17.861  -6.402  1.00  0.00    -0.307 OA
HETATM   26  H23 UNL     1     -11.363  16.976  -6.022  1.00  0.00     0.222 HD
ENDBRANCH  23  25
BRANCH  23  27
HETATM   27  O7  UNL     1     -10.464  20.004  -5.633  1.00  0.00    -0.195 OA
BRANCH  27  28
HETATM   28  P2  UNL     1      -9.010  19.426  -5.938  1.00  0.00     0.401 P 
HETATM   29  O8  UNL     1      -7.860  20.097  -5.260  1.00  0.00    -0.631 OA
BRANCH  28  30
HETATM   30  O9  UNL     1      -9.153  17.874  -5.594  1.00  0.00    -0.307 OA
HETATM   31  H24 UNL     1      -8.901  17.640  -4.667  1.00  0.00     0.222 HD
ENDBRANCH  28  30
BRANCH  28  32
HETATM   32  O10 UNL     1      -8.943  19.369  -7.532  1.00  0.00    -0.294 OA
BRANCH  32  33
HETATM   33  C14 UNL     1      -8.267  20.372  -8.243  1.00  0.00     0.215 C 
BRANCH  33  34
HETATM   34  C15 UNL     1      -7.329  19.652  -9.210  1.00  0.00     0.180 C 
HETATM   35  C16 UNL     1      -6.271  20.621  -9.721  1.00  0.00     0.197 C 
HETATM   36  C17 UNL     1      -6.504  20.688 -11.219  1.00  0.00     0.199 C 
HETATM   37  C18 UNL     1      -7.173  19.341 -11.503  1.00  0.00     0.262 C 
HETATM   38  O11 UNL     1      -8.008  19.108 -10.347  1.00  0.00    -0.353 OA
BRANCH  35  39
HETATM   39  O13 UNL     1      -4.991  20.087  -9.401  1.00  0.00    -0.286 OA
BRANCH  39  40
HETATM   40  P3  UNL     1      -4.037  21.048  -8.551  1.00  0.00     0.391 P 
HETATM   41  O14 UNL     1      -2.987  20.322  -7.774  1.00  0.00    -0.632 OA
BRANCH  40  42
HETATM   42  O15 UNL     1      -5.118  21.891  -7.727  1.00  0.00    -0.307 OA
HETATM   43  H36 UNL     1      -5.285  21.478  -6.846  1.00  0.00     0.222 HD
ENDBRANCH  40  42
BRANCH  40  44
HETATM   44  O16 UNL     1      -3.551  22.074  -9.664  1.00  0.00    -0.307 OA
HETATM   45  H37 UNL     1      -3.305  22.939  -9.298  1.00  0.00     0.222 HD
ENDBRANCH  40  44
ENDBRANCH  39  40
ENDBRANCH  35  39
BRANCH  36  46
HETATM   46  O12 UNL     1      -5.278  20.969 -11.899  1.00  0.00    -0.388 OA
HETATM   47  H35 UNL     1      -4.928  20.100 -12.211  1.00  0.00     0.210 HD
ENDBRANCH  36  46
BRANCH  37  48
HETATM   48  N3  UNL     1      -8.011  19.374 -12.685  1.00  0.00    -0.297 N 
HETATM   49  C19 UNL     1      -9.288  19.876 -12.785  1.00  0.00     0.188 A 
HETATM   50  N4  UNL     1      -9.728  19.874 -14.024  1.00  0.00    -0.346 N 
HETATM   51  C20 UNL     1      -8.684  19.348 -14.764  1.00  0.00     0.116 A 
HETATM   52  H4  UNL     1     -10.637  20.189 -14.363  1.00  0.00     0.167 HD
HETATM   53  C21 UNL     1      -8.511  19.124 -16.141  1.00  0.00     0.109 A 
HETATM   54  C23 UNL     1      -7.629  18.998 -13.942  1.00  0.00     0.142 A 
HETATM   55  N5  UNL     1      -7.349  18.572 -16.568  1.00  0.00    -0.341 N 
HETATM   56  C22 UNL     1      -6.416  18.259 -15.647  1.00  0.00     0.183 A 
HETATM   57  H5  UNL     1      -7.186  18.398 -17.559  1.00  0.00     0.167 HD
HETATM   58  N6  UNL     1      -6.465  18.434 -14.311  1.00  0.00    -0.336 N 
HETATM   59  H6  UNL     1      -5.720  18.173 -13.665  1.00  0.00     0.168 HD
BRANCH  53  60
HETATM   60  N7  UNL     1      -9.473  19.430 -17.090  1.00  0.00    -0.287 NA
HETATM   61  H33 UNL     1     -10.093  20.194 -16.828  1.00  0.00     0.125 HD
HETATM   62  H34 UNL     1      -9.906  18.610 -17.492  1.00  0.00     0.125 HD
ENDBRANCH  53  60
ENDBRANCH  37  48
ENDBRANCH  33  34
ENDBRANCH  32  33
ENDBRANCH  28  32
ENDBRANCH  27  28
ENDBRANCH  23  27
ENDBRANCH  22  23
ENDBRANCH  21  22
ENDBRANCH  18  21
ENDBRANCH  17  18
BRANCH  17  63
HETATM   63  O17 UNL     1      -9.378  19.737  -0.708  1.00  0.00    -0.385 OA
HETATM   64  H38 UNL     1      -8.923  19.949   0.124  1.00  0.00     0.210 HD
ENDBRANCH  17  63
ENDBRANCH  14  17
ENDBRANCH  12  13
ENDBRANCH  11  12
ENDBRANCH   8  11
ENDBRANCH   6   7
ENDBRANCH   5   6
ENDBRANCH   4   5
ENDBRANCH   2   4
TORSDOF 27
ENDMDL
MODEL 13
REMARK VINA RESULT:      -4.8      3.711     12.136
REMARK  27 active torsions:
REMARK  status: ('A' for Active; 'I' for Inactive)
REMARK    1  A    between atoms: C2_2  and  S1_4 
REMARK    2  A    between atoms: S1_4  and  C3_5 
REMARK    3  A    between atoms: C3_5  and  C4_6 
REMARK    4  A    between atoms: C4_6  and  N1_7 
REMARK       I    between atoms: N1_7  and  C5_8 
REMARK    5  A    between atoms: C5_8  and  C6_10 
REMARK    6  A    between atoms: C6_10  and  C7_11 
REMARK    7  A    between atoms: C7_11  and  N2_12 
REMARK       I    between atoms: N2_12  and  C8_13 
REMARK    8  A    between atoms: C8_13  and  C9_15 
REMARK    9  A    between atoms: C9_15  and  C10_16 
REMARK   10  A    between atoms: C9_15  and  O17_54 
REMARK   11  A    between atoms: C10_16  and  C13_19 
REMARK   12  A    between atoms: C13_19  and  O4_20 
REMARK   13  A    between atoms: O4_20  and  P1_21 
REMARK   14  A    between atoms: P1_21  and  O6_23 
REMARK   15  A    between atoms: P1_21  and  O7_24 
REMARK   16  A    between atoms: O7_24  and  P2_25 
REMARK   17  A    between atoms: P2_25  and  O9_27 
REMARK   18  A    between atoms: P2_25  and  O10_28 
REMARK   19  A    between atoms: O10_28  and  C14_29 
REMARK   20  A    between atoms: C14_29  and  C15_30 
REMARK   21  A    between atoms: C16_31  and  O13_49 
REMARK   22  A    between atoms: C17_32  and  O12_48 
REMARK   23  A    between atoms: C18_33  and  N3_35 
REMARK   24  A    between atoms: C21_40  and  N7_47 
REMARK   25  A    between atoms: O13_49  and  P3_50 
REMARK   26  A    between atoms: P3_50  and  O15_52 
REMARK   27  A    between atoms: P3_50  and  O16_53 
ROOT
HETATM    1  C1  UNL     1       8.634   8.112   1.809  1.00  0.00     0.104 C 
HETATM    2  C2  UNL     1       8.598   6.616   1.876  1.00  0.00     0.182 C 
HETATM    3  O1  UNL     1       9.330   5.956   2.609  1.00  0.00    -0.286 OA
ENDROOT
BRANCH   2   4
HETATM    4  S1  UNL     1       7.441   5.869   0.783  1.00  0.00    -0.091 SA
BRANCH   4   5
HETATM    5  C3  UNL     1       6.750   7.352  -0.020  1.00  0.00     0.102 C 
BRANCH   5   6
HETATM    6  C4  UNL     1       5.538   7.016  -0.891  1.00  0.00     0.133 C 
BRANCH   6   7
HETATM    7  N1  UNL     1       5.271   8.028  -1.892  1.00  0.00    -0.360 N 
HETATM    8  C5  UNL     1       4.007   8.533  -2.092  1.00  0.00     0.219 C 
HETATM    9  O2  UNL     1       3.024   8.104  -1.499  1.00  0.00    -0.274 OA
HETATM   10  H8  UNL     1       6.039   8.374  -2.451  1.00  0.00     0.162 HD
BRANCH   8  11
HETATM   11  C6  UNL     1       3.955   9.619  -3.145  1.00  0.00     0.122 C 
BRANCH  11  12
HETATM   12  C7  UNL     1       5.338   9.920  -3.722  1.00  0.00     0.132 C 
BRANCH  12  13
HETATM   13  N2  UNL     1       6.070  10.907  -2.957  1.00  0.00    -0.358 N 
HETATM   14  C8  UNL     1       7.268  10.573  -2.354  1.00  0.00     0.247 C 
HETATM   15  O3  UNL     1       7.692   9.424  -2.339  1.00  0.00    -0.271 OA
HETATM   16  H13 UNL     1       5.956  11.872  -3.263  1.00  0.00     0.162 HD
BRANCH  14  17
HETATM   17  C9  UNL     1       8.025  11.753  -1.726  1.00  0.00     0.219 C 
BRANCH  17  18
HETATM   18  C10 UNL     1       7.297  12.421  -0.530  1.00  0.00     0.009 C 
HETATM   19  C11 UNL     1       6.153  11.550   0.010  1.00  0.00     0.020 C 
HETATM   20  C12 UNL     1       8.267  12.706   0.634  1.00  0.00     0.020 C 
BRANCH  18  21
HETATM   21  C13 UNL     1       6.722  13.760  -1.074  1.00  0.00     0.192 C 
BRANCH  21  22
HETATM   22  O4  UNL     1       7.063  13.982  -2.428  1.00  0.00    -0.296 OA
BRANCH  22  23
HETATM   23  P1  UNL     1       5.975  14.330  -3.554  1.00  0.00     0.401 P 
HETATM   24  O5  UNL     1       4.588  14.520  -3.026  1.00  0.00    -0.631 OA
BRANCH  23  25
HETATM   25  O6  UNL     1       6.090  13.188  -4.682  1.00  0.00    -0.307 OA
HETATM   26  H23 UNL     1       5.236  12.997  -5.092  1.00  0.00     0.222 HD
ENDBRANCH  23  25
BRANCH  23  27
HETATM   27  O7  UNL     1       6.570  15.588  -4.325  1.00  0.00    -0.195 OA
BRANCH  27  28
HETATM   28  P2  UNL     1       5.948  15.992  -5.734  1.00  0.00     0.401 P 
HETATM   29  O8  UNL     1       6.310  15.137  -6.905  1.00  0.00    -0.631 OA
BRANCH  28  30
HETATM   30  O9  UNL     1       4.380  16.059  -5.437  1.00  0.00    -0.307 OA
HETATM   31  H24 UNL     1       4.039  15.302  -4.902  1.00  0.00     0.222 HD
ENDBRANCH  28  30
BRANCH  28  32
HETATM   32  O10 UNL     1       6.286  17.547  -5.874  1.00  0.00    -0.294 OA
BRANCH  32  33
HETATM   33  C14 UNL     1       7.077  18.000  -6.942  1.00  0.00     0.215 C 
BRANCH  33  34
HETATM   34  C15 UNL     1       6.533  19.377  -7.321  1.00  0.00     0.180 C 
HETATM   35  C16 UNL     1       7.018  20.415  -6.318  1.00  0.00     0.197 C 
HETATM   36  C17 UNL     1       5.751  20.950  -5.676  1.00  0.00     0.199 C 
HETATM   37  C18 UNL     1       4.704  20.687  -6.761  1.00  0.00     0.262 C 
HETATM   38  O11 UNL     1       5.102  19.426  -7.343  1.00  0.00    -0.353 OA
BRANCH  35  39
HETATM   39  O13 UNL     1       7.724  21.424  -7.033  1.00  0.00    -0.286 OA
BRANCH  39  40
HETATM   40  P3  UNL     1       9.229  21.679  -6.560  1.00  0.00     0.391 P 
HETATM   41  O14 UNL     1      10.221  21.679  -7.678  1.00  0.00    -0.632 OA
BRANCH  40  42
HETATM   42  O15 UNL     1       9.384  20.553  -5.433  1.00  0.00    -0.307 OA
HETATM   43  H36 UNL     1      10.336  20.380  -5.241  1.00  0.00     0.222 HD
ENDBRANCH  40  42
BRANCH  40  44
HETATM   44  O16 UNL     1       9.072  23.016  -5.714  1.00  0.00    -0.307 OA
HETATM   45  H37 UNL     1       8.162  23.164  -5.409  1.00  0.00     0.222 HD
ENDBRANCH  40  44
ENDBRANCH  39  40
ENDBRANCH  35  39
BRANCH  36  46
HETATM   46  O12 UNL     1       5.940  22.305  -5.260  1.00  0.00    -0.388 OA
HETATM   47  H35 UNL     1       5.884  22.857  -6.076  1.00  0.00     0.210 HD
ENDBRANCH  36  46
BRANCH  37  48
HETATM   48  N3  UNL     1       3.366  20.550  -6.221  1.00  0.00    -0.297 N 
HETATM   49  C19 UNL     1       2.659  21.486  -5.503  1.00  0.00     0.188 A 
HETATM   50  N4  UNL     1       1.424  21.104  -5.266  1.00  0.00    -0.346 N 
HETATM   51  C20 UNL     1       1.323  19.860  -5.863  1.00  0.00     0.116 A 
HETATM   52  H4  UNL     1       0.701  21.611  -4.756  1.00  0.00     0.167 HD
HETATM   53  C21 UNL     1       0.258  18.952  -6.001  1.00  0.00     0.109 A 
HETATM   54  C23 UNL     1       2.531  19.487  -6.424  1.00  0.00     0.142 A 
HETATM   55  N5  UNL     1       0.482  17.782  -6.647  1.00  0.00    -0.341 N 
HETATM   56  C22 UNL     1       1.720  17.543  -7.123  1.00  0.00     0.183 A 
HETATM   57  H5  UNL     1      -0.267  17.101  -6.770  1.00  0.00     0.167 HD
HETATM   58  N6  UNL     1       2.809  18.335  -7.060  1.00  0.00    -0.336 N 
HETATM   59  H6  UNL     1       3.724  18.093  -7.442  1.00  0.00     0.168 HD
BRANCH  53  60
HETATM   60  N7  UNL     1      -1.013  19.187  -5.501  1.00  0.00    -0.287 NA
HETATM   61  H33 UNL     1      -1.255  20.172  -5.416  1.00  0.00     0.125 HD
HETATM   62  H34 UNL     1      -1.244  18.592  -4.716  1.00  0.00     0.125 HD
ENDBRANCH  53  60
ENDBRANCH  37  48
ENDBRANCH  33  34
ENDBRANCH  32  33
ENDBRANCH  28  32
ENDBRANCH  27  28
ENDBRANCH  23  27
ENDBRANCH  22  23
ENDBRANCH  21  22
ENDBRANCH  18  21
ENDBRANCH  17  18
BRANCH  17  63
HETATM   63  O17 UNL     1       9.322  11.331  -1.291  1.00  0.00    -0.385 OA
HETATM   64  H38 UNL     1       9.365  11.436  -0.325  1.00  0.00     0.210 HD
ENDBRANCH  17  63
ENDBRANCH  14  17
ENDBRANCH  12  13
ENDBRANCH  11  12
ENDBRANCH   8  11
ENDBRANCH   6   7
ENDBRANCH   5   6
ENDBRANCH   4   5
ENDBRANCH   2   4
TORSDOF 27
ENDMDL
MODEL 14
REMARK VINA RESULT:      -4.7      3.934     11.260
REMARK  27 active torsions:
REMARK  status: ('A' for Active; 'I' for Inactive)
REMARK    1  A    between atoms: C2_2  and  S1_4 
REMARK    2  A    between atoms: S1_4  and  C3_5 
REMARK    3  A    between atoms: C3_5  and  C4_6 
REMARK    4  A    between atoms: C4_6  and  N1_7 
REMARK       I    between atoms: N1_7  and  C5_8 
REMARK    5  A    between atoms: C5_8  and  C6_10 
REMARK    6  A    between atoms: C6_10  and  C7_11 
REMARK    7  A    between atoms: C7_11  and  N2_12 
REMARK       I    between atoms: N2_12  and  C8_13 
REMARK    8  A    between atoms: C8_13  and  C9_15 
REMARK    9  A    between atoms: C9_15  and  C10_16 
REMARK   10  A    between atoms: C9_15  and  O17_54 
REMARK   11  A    between atoms: C10_16  and  C13_19 
REMARK   12  A    between atoms: C13_19  and  O4_20 
REMARK   13  A    between atoms: O4_20  and  P1_21 
REMARK   14  A    between atoms: P1_21  and  O6_23 
REMARK   15  A    between atoms: P1_21  and  O7_24 
REMARK   16  A    between atoms: O7_24  and  P2_25 
REMARK   17  A    between atoms: P2_25  and  O9_27 
REMARK   18  A    between atoms: P2_25  and  O10_28 
REMARK   19  A    between atoms: O10_28  and  C14_29 
REMARK   20  A    between atoms: C14_29  and  C15_30 
REMARK   21  A    between atoms: C16_31  and  O13_49 
REMARK   22  A    between atoms: C17_32  and  O12_48 
REMARK   23  A    between atoms: C18_33  and  N3_35 
REMARK   24  A    between atoms: C21_40  and  N7_47 
REMARK   25  A    between atoms: O13_49  and  P3_50 
REMARK   26  A    between atoms: P3_50  and  O15_52 
REMARK   27  A    between atoms: P3_50  and  O16_53 
ROOT
HETATM    1  C1  UNL     1       8.176   8.529   1.461  1.00  0.00     0.104 C 
HETATM    2  C2  UNL     1       7.509   7.404   0.730  1.00  0.00     0.182 C 
HETATM    3  O1  UNL     1       7.502   6.245   1.137  1.00  0.00    -0.286 OA
ENDROOT
BRANCH   2   4
HETATM    4  S1  UNL     1       6.764   7.870  -0.793  1.00  0.00    -0.091 SA
BRANCH   4   5
HETATM    5  C3  UNL     1       6.780   9.684  -0.619  1.00  0.00     0.102 C 
BRANCH   5   6
HETATM    6  C4  UNL     1       7.404  10.367  -1.837  1.00  0.00     0.133 C 
BRANCH   6   7
HETATM    7  N1  UNL     1       6.711  11.582  -2.213  1.00  0.00    -0.360 N 
HETATM    8  C5  UNL     1       7.044  12.803  -1.675  1.00  0.00     0.219 C 
HETATM    9  O2  UNL     1       7.886  12.927  -0.792  1.00  0.00    -0.274 OA
HETATM   10  H8  UNL     1       5.967  11.526  -2.896  1.00  0.00     0.162 HD
BRANCH   8  11
HETATM   11  C6  UNL     1       6.237  13.949  -2.243  1.00  0.00     0.122 C 
BRANCH  11  12
HETATM   12  C7  UNL     1       6.452  14.109  -3.748  1.00  0.00     0.132 C 
BRANCH  12  13
HETATM   13  N2  UNL     1       5.606  15.125  -4.337  1.00  0.00    -0.358 N 
HETATM   14  C8  UNL     1       4.270  14.866  -4.578  1.00  0.00     0.247 C 
HETATM   15  O3  UNL     1       3.782  13.754  -4.419  1.00  0.00    -0.271 OA
HETATM   16  H13 UNL     1       5.863  16.087  -4.123  1.00  0.00     0.162 HD
BRANCH  14  17
HETATM   17  C9  UNL     1       3.450  16.081  -5.038  1.00  0.00     0.219 C 
BRANCH  17  18
HETATM   18  C10 UNL     1       3.071  16.069  -6.542  1.00  0.00     0.009 C 
HETATM   19  C11 UNL     1       2.064  14.958  -6.875  1.00  0.00     0.020 C 
HETATM   20  C12 UNL     1       2.458  17.414  -6.982  1.00  0.00     0.020 C 
BRANCH  18  21
HETATM   21  C13 UNL     1       4.398  15.820  -7.315  1.00  0.00     0.192 C 
BRANCH  21  22
HETATM   22  O4  UNL     1       5.358  16.829  -7.077  1.00  0.00    -0.296 OA
BRANCH  22  23
HETATM   23  P1  UNL     1       6.900  16.679  -7.488  1.00  0.00     0.401 P 
HETATM   24  O5  UNL     1       7.194  15.480  -8.332  1.00  0.00    -0.631 OA
BRANCH  23  25
HETATM   25  O6  UNL     1       7.753  16.737  -6.123  1.00  0.00    -0.307 OA
HETATM   26  H23 UNL     1       8.182  17.594  -6.002  1.00  0.00     0.222 HD
ENDBRANCH  23  25
BRANCH  23  27
HETATM   27  O7  UNL     1       7.286  18.072  -8.153  1.00  0.00    -0.195 OA
BRANCH  27  28
HETATM   28  P2  UNL     1       8.631  18.174  -9.000  1.00  0.00     0.401 P 
HETATM   29  O8  UNL     1       9.830  17.469  -8.454  1.00  0.00    -0.631 OA
BRANCH  28  30
HETATM   30  O9  UNL     1       8.189  17.678 -10.452  1.00  0.00    -0.307 OA
HETATM   31  H24 UNL     1       7.766  16.785 -10.461  1.00  0.00     0.222 HD
ENDBRANCH  28  30
BRANCH  28  32
HETATM   32  O10 UNL     1       8.803  19.739  -9.264  1.00  0.00    -0.294 OA
BRANCH  32  33
HETATM   33  C14 UNL     1       7.788  20.457  -9.916  1.00  0.00     0.215 C 
BRANCH  33  34
HETATM   34  C15 UNL     1       7.365  21.567  -8.955  1.00  0.00     0.180 C 
HETATM   35  C16 UNL     1       7.746  21.188  -7.530  1.00  0.00     0.197 C 
HETATM   36  C17 UNL     1       6.426  21.106  -6.788  1.00  0.00     0.199 C 
HETATM   37  C18 UNL     1       5.534  22.037  -7.612  1.00  0.00     0.262 C 
HETATM   38  O11 UNL     1       5.956  21.819  -8.977  1.00  0.00    -0.353 OA
BRANCH  35  39
HETATM   39  O13 UNL     1       8.591  22.210  -7.012  1.00  0.00    -0.286 OA
BRANCH  39  40
HETATM   40  P3  UNL     1       9.925  21.702  -6.291  1.00  0.00     0.391 P 
HETATM   41  O14 UNL     1      11.036  22.702  -6.306  1.00  0.00    -0.632 OA
BRANCH  40  42
HETATM   42  O15 UNL     1      10.166  20.315  -7.051  1.00  0.00    -0.307 OA
HETATM   43  H36 UNL     1      10.941  19.838  -6.668  1.00  0.00     0.222 HD
ENDBRANCH  40  42
BRANCH  40  44
HETATM   44  O16 UNL     1       9.364  21.246  -4.875  1.00  0.00    -0.307 OA
HETATM   45  H37 UNL     1       9.768  21.728  -4.137  1.00  0.00     0.222 HD
ENDBRANCH  40  44
ENDBRANCH  39  40
ENDBRANCH  35  39
BRANCH  36  46
HETATM   46  O12 UNL     1       6.612  21.428  -5.407  1.00  0.00    -0.388 OA
HETATM   47  H35 UNL     1       7.302  20.810  -5.068  1.00  0.00     0.210 HD
ENDBRANCH  36  46
BRANCH  37  48
HETATM   48  N3  UNL     1       4.128  21.705  -7.500  1.00  0.00    -0.297 N 
HETATM   49  C19 UNL     1       3.312  21.199  -8.485  1.00  0.00     0.188 A 
HETATM   50  N4  UNL     1       2.119  20.884  -8.031  1.00  0.00    -0.346 N 
HETATM   51  C20 UNL     1       2.164  21.198  -6.684  1.00  0.00     0.116 A 
HETATM   52  H4  UNL     1       1.334  20.496  -8.554  1.00  0.00     0.167 HD
HETATM   53  C21 UNL     1       1.231  21.060  -5.641  1.00  0.00     0.109 A 
HETATM   54  C23 UNL     1       3.390  21.744  -6.350  1.00  0.00     0.142 A 
HETATM   55  N5  UNL     1       1.578  21.480  -4.400  1.00  0.00    -0.341 N 
HETATM   56  C22 UNL     1       2.803  22.016  -4.227  1.00  0.00     0.183 A 
HETATM   57  H5  UNL     1       0.929  21.393  -3.618  1.00  0.00     0.167 HD
HETATM   58  N6  UNL     1       3.778  22.190  -5.142  1.00  0.00    -0.336 N 
HETATM   59  H6  UNL     1       4.689  22.605  -4.945  1.00  0.00     0.168 HD
BRANCH  53  60
HETATM   60  N7  UNL     1      -0.035  20.524  -5.817  1.00  0.00    -0.287 NA
HETATM   61  H33 UNL     1      -0.256  20.280  -6.780  1.00  0.00     0.125 HD
HETATM   62  H34 UNL     1      -0.748  21.017  -5.297  1.00  0.00     0.125 HD
ENDBRANCH  53  60
ENDBRANCH  37  48
ENDBRANCH  33  34
ENDBRANCH  32  33
ENDBRANCH  28  32
ENDBRANCH  27  28
ENDBRANCH  23  27
ENDBRANCH  22  23
ENDBRANCH  21  22
ENDBRANCH  18  21
ENDBRANCH  17  18
BRANCH  17  63
HETATM   63  O17 UNL     1       2.249  16.186  -4.267  1.00  0.00    -0.385 OA
HETATM   64  H38 UNL     1       2.457  16.663  -3.447  1.00  0.00     0.210 HD
ENDBRANCH  17  63
ENDBRANCH  14  17
ENDBRANCH  12  13
ENDBRANCH  11  12
ENDBRANCH   8  11
ENDBRANCH   6   7
ENDBRANCH   5   6
ENDBRANCH   4   5
ENDBRANCH   2   4
TORSDOF 27
ENDMDL
MODEL 15
REMARK VINA RESULT:      -4.2      3.465     10.986
REMARK  27 active torsions:
REMARK  status: ('A' for Active; 'I' for Inactive)
REMARK    1  A    between atoms: C2_2  and  S1_4 
REMARK    2  A    between atoms: S1_4  and  C3_5 
REMARK    3  A    between atoms: C3_5  and  C4_6 
REMARK    4  A    between atoms: C4_6  and  N1_7 
REMARK       I    between atoms: N1_7  and  C5_8 
REMARK    5  A    between atoms: C5_8  and  C6_10 
REMARK    6  A    between atoms: C6_10  and  C7_11 
REMARK    7  A    between atoms: C7_11  and  N2_12 
REMARK       I    between atoms: N2_12  and  C8_13 
REMARK    8  A    between atoms: C8_13  and  C9_15 
REMARK    9  A    between atoms: C9_15  and  C10_16 
REMARK   10  A    between atoms: C9_15  and  O17_54 
REMARK   11  A    between atoms: C10_16  and  C13_19 
REMARK   12  A    between atoms: C13_19  and  O4_20 
REMARK   13  A    between atoms: O4_20  and  P1_21 
REMARK   14  A    between atoms: P1_21  and  O6_23 
REMARK   15  A    between atoms: P1_21  and  O7_24 
REMARK   16  A    between atoms: O7_24  and  P2_25 
REMARK   17  A    between atoms: P2_25  and  O9_27 
REMARK   18  A    between atoms: P2_25  and  O10_28 
REMARK   19  A    between atoms: O10_28  and  C14_29 
REMARK   20  A    between atoms: C14_29  and  C15_30 
REMARK   21  A    between atoms: C16_31  and  O13_49 
REMARK   22  A    between atoms: C17_32  and  O12_48 
REMARK   23  A    between atoms: C18_33  and  N3_35 
REMARK   24  A    between atoms: C21_40  and  N7_47 
REMARK   25  A    between atoms: O13_49  and  P3_50 
REMARK   26  A    between atoms: P3_50  and  O15_52 
REMARK   27  A    between atoms: P3_50  and  O16_53 
ROOT
HETATM    1  C1  UNL     1       6.018   5.911  -0.864  1.00  0.00     0.104 C 
HETATM    2  C2  UNL     1       6.872   7.065  -0.436  1.00  0.00     0.182 C 
HETATM    3  O1  UNL     1       7.018   8.082  -1.110  1.00  0.00    -0.286 OA
ENDROOT
BRANCH   2   4
HETATM    4  S1  UNL     1       7.688   6.832   1.104  1.00  0.00    -0.091 SA
BRANCH   4   5
HETATM    5  C3  UNL     1       8.476   8.462   1.303  1.00  0.00     0.102 C 
BRANCH   5   6
HETATM    6  C4  UNL     1       7.445   9.592   1.343  1.00  0.00     0.133 C 
BRANCH   6   7
HETATM    7  N1  UNL     1       7.568  10.502   0.222  1.00  0.00    -0.360 N 
HETATM    8  C5  UNL     1       8.122  11.753   0.363  1.00  0.00     0.219 C 
HETATM    9  O2  UNL     1       8.468  12.203   1.449  1.00  0.00    -0.274 OA
HETATM   10  H8  UNL     1       7.244  10.200  -0.687  1.00  0.00     0.162 HD
BRANCH   8  11
HETATM   11  C6  UNL     1       8.208  12.520  -0.939  1.00  0.00     0.122 C 
BRANCH  11  12
HETATM   12  C7  UNL     1       7.130  13.600  -1.037  1.00  0.00     0.132 C 
BRANCH  12  13
HETATM   13  N2  UNL     1       6.575  13.728  -2.368  1.00  0.00    -0.358 N 
HETATM   14  C8  UNL     1       5.769  12.730  -2.885  1.00  0.00     0.247 C 
HETATM   15  O3  UNL     1       5.591  11.668  -2.303  1.00  0.00    -0.271 OA
HETATM   16  H13 UNL     1       6.393  14.680  -2.677  1.00  0.00     0.162 HD
BRANCH  14  17
HETATM   17  C9  UNL     1       5.104  13.070  -4.228  1.00  0.00     0.219 C 
BRANCH  17  18
HETATM   18  C10 UNL     1       3.864  12.204  -4.569  1.00  0.00     0.009 C 
HETATM   19  C11 UNL     1       4.193  10.703  -4.583  1.00  0.00     0.020 C 
HETATM   20  C12 UNL     1       2.721  12.430  -3.559  1.00  0.00     0.020 C 
BRANCH  18  21
HETATM   21  C13 UNL     1       3.407  12.652  -5.987  1.00  0.00     0.192 C 
BRANCH  21  22
HETATM   22  O4  UNL     1       3.541  14.045  -6.181  1.00  0.00    -0.296 OA
BRANCH  22  23
HETATM   23  P1  UNL     1       2.340  14.971  -6.701  1.00  0.00     0.401 P 
HETATM   24  O5  UNL     1       1.008  14.638  -6.105  1.00  0.00    -0.631 OA
BRANCH  23  25
HETATM   25  O6  UNL     1       2.365  14.906  -8.309  1.00  0.00    -0.307 OA
HETATM   26  H23 UNL     1       2.572  15.764  -8.702  1.00  0.00     0.222 HD
ENDBRANCH  23  25
BRANCH  23  27
HETATM   27  O7  UNL     1       2.829  16.463  -6.444  1.00  0.00    -0.195 OA
BRANCH  27  28
HETATM   28  P2  UNL     1       1.783  17.654  -6.600  1.00  0.00     0.401 P 
HETATM   29  O8  UNL     1       1.250  17.911  -7.971  1.00  0.00    -0.631 OA
BRANCH  28  30
HETATM   30  O9  UNL     1       0.661  17.301  -5.520  1.00  0.00    -0.307 OA
HETATM   31  H24 UNL     1       0.037  18.042  -5.329  1.00  0.00     0.222 HD
ENDBRANCH  28  30
BRANCH  28  32
HETATM   32  O10 UNL     1       2.498  18.891  -5.886  1.00  0.00    -0.294 OA
BRANCH  32  33
HETATM   33  C14 UNL     1       1.728  19.866  -5.234  1.00  0.00     0.215 C 
BRANCH  33  34
HETATM   34  C15 UNL     1       2.281  21.218  -5.682  1.00  0.00     0.180 C 
HETATM   35  C16 UNL     1       2.063  21.393  -7.180  1.00  0.00     0.197 C 
HETATM   36  C17 UNL     1       3.459  21.501  -7.761  1.00  0.00     0.199 C 
HETATM   37  C18 UNL     1       4.266  22.024  -6.570  1.00  0.00     0.262 C 
HETATM   38  O11 UNL     1       3.683  21.361  -5.427  1.00  0.00    -0.353 OA
BRANCH  35  39
HETATM   39  O13 UNL     1       1.304  22.581  -7.379  1.00  0.00    -0.286 OA
BRANCH  39  40
HETATM   40  P3  UNL     1      -0.177  22.366  -7.942  1.00  0.00     0.391 P 
HETATM   41  O14 UNL     1      -1.224  23.117  -7.184  1.00  0.00    -0.632 OA
BRANCH  40  42
HETATM   42  O15 UNL     1      -0.268  20.769  -7.944  1.00  0.00    -0.307 OA
HETATM   43  H36 UNL     1      -0.213  20.415  -7.025  1.00  0.00     0.222 HD
ENDBRANCH  40  42
BRANCH  40  44
HETATM   44  O16 UNL     1       0.016  22.720  -9.480  1.00  0.00    -0.307 OA
HETATM   45  H37 UNL     1       0.777  22.269  -9.877  1.00  0.00     0.222 HD
ENDBRANCH  40  44
ENDBRANCH  39  40
ENDBRANCH  35  39
BRANCH  36  46
HETATM   46  O12 UNL     1       3.442  22.303  -8.945  1.00  0.00    -0.388 OA
HETATM   47  H35 UNL     1       4.385  22.489  -9.169  1.00  0.00     0.210 HD
ENDBRANCH  36  46
BRANCH  37  48
HETATM   48  N3  UNL     1       5.669  21.670  -6.649  1.00  0.00    -0.297 N 
HETATM   49  C19 UNL     1       6.743  22.528  -6.658  1.00  0.00     0.188 A 
HETATM   50  N4  UNL     1       7.892  21.889  -6.609  1.00  0.00    -0.346 N 
HETATM   51  C20 UNL     1       7.545  20.551  -6.562  1.00  0.00     0.116 A 
HETATM   52  H4  UNL     1       8.829  22.291  -6.607  1.00  0.00     0.167 HD
HETATM   53  C21 UNL     1       8.304  19.373  -6.458  1.00  0.00     0.109 A 
HETATM   54  C23 UNL     1       6.172  20.399  -6.626  1.00  0.00     0.142 A 
HETATM   55  N5  UNL     1       7.657  18.182  -6.446  1.00  0.00    -0.341 N 
HETATM   56  C22 UNL     1       6.312  18.186  -6.539  1.00  0.00     0.183 A 
HETATM   57  H5  UNL     1       8.174  17.306  -6.368  1.00  0.00     0.167 HD
HETATM   58  N6  UNL     1       5.482  19.245  -6.634  1.00  0.00    -0.336 N 
HETATM   59  H6  UNL     1       4.466  19.179  -6.702  1.00  0.00     0.168 HD
BRANCH  53  60
HETATM   60  N7  UNL     1       9.688  19.362  -6.377  1.00  0.00    -0.287 NA
HETATM   61  H33 UNL     1      10.055  19.605  -5.459  1.00  0.00     0.125 HD
HETATM   62  H34 UNL     1      10.133  19.795  -7.175  1.00  0.00     0.125 HD
ENDBRANCH  53  60
ENDBRANCH  37  48
ENDBRANCH  33  34
ENDBRANCH  32  33
ENDBRANCH  28  32
ENDBRANCH  27  28
ENDBRANCH  23  27
ENDBRANCH  22  23
ENDBRANCH  21  22
ENDBRANCH  18  21
ENDBRANCH  17  18
BRANCH  17  63
HETATM   63  O17 UNL     1       4.716  14.448  -4.251  1.00  0.00    -0.385 OA
HETATM   64  H38 UNL     1       3.902  14.541  -3.729  1.00  0.00     0.210 HD
ENDBRANCH  17  63
ENDBRANCH  14  17
ENDBRANCH  12  13
ENDBRANCH  11  12
ENDBRANCH   8  11
ENDBRANCH   6   7
ENDBRANCH   5   6
ENDBRANCH   4   5
ENDBRANCH   2   4
TORSDOF 27
ENDMDL
MODEL 16
REMARK VINA RESULT:      -4.1      2.263      4.292
REMARK  27 active torsions:
REMARK  status: ('A' for Active; 'I' for Inactive)
REMARK    1  A    between atoms: C2_2  and  S1_4 
REMARK    2  A    between atoms: S1_4  and  C3_5 
REMARK    3  A    between atoms: C3_5  and  C4_6 
REMARK    4  A    between atoms: C4_6  and  N1_7 
REMARK       I    between atoms: N1_7  and  C5_8 
REMARK    5  A    between atoms: C5_8  and  C6_10 
REMARK    6  A    between atoms: C6_10  and  C7_11 
REMARK    7  A    between atoms: C7_11  and  N2_12 
REMARK       I    between atoms: N2_12  and  C8_13 
REMARK    8  A    between atoms: C8_13  and  C9_15 
REMARK    9  A    between atoms: C9_15  and  C10_16 
REMARK   10  A    between atoms: C9_15  and  O17_54 
REMARK   11  A    between atoms: C10_16  and  C13_19 
REMARK   12  A    between atoms: C13_19  and  O4_20 
REMARK   13  A    between atoms: O4_20  and  P1_21 
REMARK   14  A    between atoms: P1_21  and  O6_23 
REMARK   15  A    between atoms: P1_21  and  O7_24 
REMARK   16  A    between atoms: O7_24  and  P2_25 
REMARK   17  A    between atoms: P2_25  and  O9_27 
REMARK   18  A    between atoms: P2_25  and  O10_28 
REMARK   19  A    between atoms: O10_28  and  C14_29 
REMARK   20  A    between atoms: C14_29  and  C15_30 
REMARK   21  A    between atoms: C16_31  and  O13_49 
REMARK   22  A    between atoms: C17_32  and  O12_48 
REMARK   23  A    between atoms: C18_33  and  N3_35 
REMARK   24  A    between atoms: C21_40  and  N7_47 
REMARK   25  A    between atoms: O13_49  and  P3_50 
REMARK   26  A    between atoms: P3_50  and  O15_52 
REMARK   27  A    between atoms: P3_50  and  O16_53 
ROOT
HETATM    1  C1  UNL     1       7.442  20.923  -6.137  1.00  0.00     0.104 C 
HETATM    2  C2  UNL     1       6.063  21.463  -6.360  1.00  0.00     0.182 C 
HETATM    3  O1  UNL     1       5.542  21.544  -7.470  1.00  0.00    -0.286 OA
ENDROOT
BRANCH   2   4
HETATM    4  S1  UNL     1       5.254  22.013  -4.899  1.00  0.00    -0.091 SA
BRANCH   4   5
HETATM    5  C3  UNL     1       3.673  22.585  -5.600  1.00  0.00     0.102 C 
BRANCH   5   6
HETATM    6  C4  UNL     1       2.602  21.493  -5.558  1.00  0.00     0.133 C 
BRANCH   6   7
HETATM    7  N1  UNL     1       2.771  20.505  -6.604  1.00  0.00    -0.360 N 
HETATM    8  C5  UNL     1       1.872  20.386  -7.639  1.00  0.00     0.219 C 
HETATM    9  O2  UNL     1       0.842  21.046  -7.697  1.00  0.00    -0.274 OA
HETATM   10  H8  UNL     1       3.576  19.894  -6.571  1.00  0.00     0.162 HD
BRANCH   8  11
HETATM   11  C6  UNL     1       2.262  19.332  -8.653  1.00  0.00     0.122 C 
BRANCH  11  12
HETATM   12  C7  UNL     1       1.723  17.952  -8.278  1.00  0.00     0.132 C 
BRANCH  12  13
HETATM   13  N2  UNL     1       2.728  17.088  -7.697  1.00  0.00    -0.358 N 
HETATM   14  C8  UNL     1       2.855  16.993  -6.323  1.00  0.00     0.247 C 
HETATM   15  O3  UNL     1       2.220  17.708  -5.559  1.00  0.00    -0.271 OA
HETATM   16  H13 UNL     1       2.968  16.265  -8.245  1.00  0.00     0.162 HD
BRANCH  14  17
HETATM   17  C9  UNL     1       3.835  15.913  -5.840  1.00  0.00     0.219 C 
BRANCH  17  18
HETATM   18  C10 UNL     1       5.332  16.288  -5.996  1.00  0.00     0.009 C 
HETATM   19  C11 UNL     1       5.941  15.713  -7.283  1.00  0.00     0.020 C 
HETATM   20  C12 UNL     1       5.534  17.816  -6.016  1.00  0.00     0.020 C 
BRANCH  18  21
HETATM   21  C13 UNL     1       6.055  15.679  -4.760  1.00  0.00     0.192 C 
BRANCH  21  22
HETATM   22  O4  UNL     1       6.031  14.266  -4.763  1.00  0.00    -0.296 OA
BRANCH  22  23
HETATM   23  P1  UNL     1       5.475  13.402  -3.533  1.00  0.00     0.401 P 
HETATM   24  O5  UNL     1       5.340  14.171  -2.256  1.00  0.00    -0.631 OA
BRANCH  23  25
HETATM   25  O6  UNL     1       6.419  12.104  -3.412  1.00  0.00    -0.307 OA
HETATM   26  H23 UNL     1       7.356  12.332  -3.466  1.00  0.00     0.222 HD
ENDBRANCH  23  25
BRANCH  23  27
HETATM   27  O7  UNL     1       4.123  12.753  -4.064  1.00  0.00    -0.195 OA
BRANCH  27  28
HETATM   28  P2  UNL     1       4.052  12.251  -5.575  1.00  0.00     0.401 P 
HETATM   29  O8  UNL     1       3.441  13.184  -6.569  1.00  0.00    -0.631 OA
BRANCH  28  30
HETATM   30  O9  UNL     1       5.563  11.851  -5.900  1.00  0.00    -0.307 OA
HETATM   31  H24 UNL     1       6.236  12.382  -5.408  1.00  0.00     0.222 HD
ENDBRANCH  28  30
BRANCH  28  32
HETATM   32  O10 UNL     1       3.381  10.806  -5.471  1.00  0.00    -0.294 OA
BRANCH  32  33
HETATM   33  C14 UNL     1       4.187   9.658  -5.443  1.00  0.00     0.215 C 
BRANCH  33  34
HETATM   34  C15 UNL     1       3.787   8.885  -4.188  1.00  0.00     0.180 C 
HETATM   35  C16 UNL     1       2.871   9.742  -3.324  1.00  0.00     0.197 C 
HETATM   36  C17 UNL     1       3.632   9.930  -2.026  1.00  0.00     0.199 C 
HETATM   37  C18 UNL     1       4.540   8.698  -2.002  1.00  0.00     0.262 C 
HETATM   38  O11 UNL     1       4.910   8.502  -3.385  1.00  0.00    -0.353 OA
BRANCH  35  39
HETATM   39  O13 UNL     1       1.652   9.033  -3.134  1.00  0.00    -0.286 OA
BRANCH  39  40
HETATM   40  P3  UNL     1       0.326   9.925  -3.147  1.00  0.00     0.391 P 
HETATM   41  O14 UNL     1       0.489  11.237  -3.846  1.00  0.00    -0.632 OA
BRANCH  40  42
HETATM   42  O15 UNL     1      -0.030   9.956  -1.588  1.00  0.00    -0.307 OA
HETATM   43  H36 UNL     1      -0.529  10.776  -1.360  1.00  0.00     0.222 HD
ENDBRANCH  40  42
BRANCH  40  44
HETATM   44  O16 UNL     1      -0.737   8.902  -3.741  1.00  0.00    -0.307 OA
HETATM   45  H37 UNL     1      -1.301   8.506  -3.058  1.00  0.00     0.222 HD
ENDBRANCH  40  44
ENDBRANCH  39  40
ENDBRANCH  35  39
BRANCH  36  46
HETATM   46  O12 UNL     1       2.721  10.095  -0.936  1.00  0.00    -0.388 OA
HETATM   47  H35 UNL     1       1.814  10.025  -1.319  1.00  0.00     0.210 HD
ENDBRANCH  36  46
BRANCH  37  48
HETATM   48  N3  UNL     1       5.744   8.909  -1.224  1.00  0.00    -0.297 N 
HETATM   49  C19 UNL     1       6.365  10.108  -0.961  1.00  0.00     0.188 A 
HETATM   50  N4  UNL     1       7.366   9.977  -0.118  1.00  0.00    -0.346 N 
HETATM   51  C20 UNL     1       7.393   8.627   0.185  1.00  0.00     0.116 A 
HETATM   52  H4  UNL     1       7.985  10.707   0.234  1.00  0.00     0.167 HD
HETATM   53  C21 UNL     1       8.192   7.860   1.050  1.00  0.00     0.109 A 
HETATM   54  C23 UNL     1       6.418   7.947  -0.524  1.00  0.00     0.142 A 
HETATM   55  N5  UNL     1       7.975   6.524   1.121  1.00  0.00    -0.341 N 
HETATM   56  C22 UNL     1       7.003   5.994   0.352  1.00  0.00     0.183 A 
HETATM   57  H5  UNL     1       8.533   5.935   1.739  1.00  0.00     0.167 HD
HETATM   58  N6  UNL     1       6.172   6.625  -0.502  1.00  0.00    -0.336 N 
HETATM   59  H6  UNL     1       5.453   6.163  -1.059  1.00  0.00     0.168 HD
BRANCH  53  60
HETATM   60  N7  UNL     1       9.203   8.397   1.831  1.00  0.00    -0.287 NA
HETATM   61  H33 UNL     1      10.099   8.482   1.357  1.00  0.00     0.125 HD
HETATM   62  H34 UNL     1       9.218   8.022   2.770  1.00  0.00     0.125 HD
ENDBRANCH  53  60
ENDBRANCH  37  48
ENDBRANCH  33  34
ENDBRANCH  32  33
ENDBRANCH  28  32
ENDBRANCH  27  28
ENDBRANCH  23  27
ENDBRANCH  22  23
ENDBRANCH  21  22
ENDBRANCH  18  21
ENDBRANCH  17  18
BRANCH  17  63
HETATM   63  O17 UNL     1       3.585  15.600  -4.465  1.00  0.00    -0.385 OA
HETATM   64  H38 UNL     1       2.624  15.621  -4.321  1.00  0.00     0.210 HD
ENDBRANCH  17  63
ENDBRANCH  14  17
ENDBRANCH  12  13
ENDBRANCH  11  12
ENDBRANCH   8  11
ENDBRANCH   6   7
ENDBRANCH   5   6
ENDBRANCH   4   5
ENDBRANCH   2   4
TORSDOF 27
ENDMDL
MODEL 17
REMARK VINA RESULT:      -3.8     14.229     18.190
REMARK  27 active torsions:
REMARK  status: ('A' for Active; 'I' for Inactive)
REMARK    1  A    between atoms: C2_2  and  S1_4 
REMARK    2  A    between atoms: S1_4  and  C3_5 
REMARK    3  A    between atoms: C3_5  and  C4_6 
REMARK    4  A    between atoms: C4_6  and  N1_7 
REMARK       I    between atoms: N1_7  and  C5_8 
REMARK    5  A    between atoms: C5_8  and  C6_10 
REMARK    6  A    between atoms: C6_10  and  C7_11 
REMARK    7  A    between atoms: C7_11  and  N2_12 
REMARK       I    between atoms: N2_12  and  C8_13 
REMARK    8  A    between atoms: C8_13  and  C9_15 
REMARK    9  A    between atoms: C9_15  and  C10_16 
REMARK   10  A    between atoms: C9_15  and  O17_54 
REMARK   11  A    between atoms: C10_16  and  C13_19 
REMARK   12  A    between atoms: C13_19  and  O4_20 
REMARK   13  A    between atoms: O4_20  and  P1_21 
REMARK   14  A    between atoms: P1_21  and  O6_23 
REMARK   15  A    between atoms: P1_21  and  O7_24 
REMARK   16  A    between atoms: O7_24  and  P2_25 
REMARK   17  A    between atoms: P2_25  and  O9_27 
REMARK   18  A    between atoms: P2_25  and  O10_28 
REMARK   19  A    between atoms: O10_28  and  C14_29 
REMARK   20  A    between atoms: C14_29  and  C15_30 
REMARK   21  A    between atoms: C16_31  and  O13_49 
REMARK   22  A    between atoms: C17_32  and  O12_48 
REMARK   23  A    between atoms: C18_33  and  N3_35 
REMARK   24  A    between atoms: C21_40  and  N7_47 
REMARK   25  A    between atoms: O13_49  and  P3_50 
REMARK   26  A    between atoms: P3_50  and  O15_52 
REMARK   27  A    between atoms: P3_50  and  O16_53 
ROOT
HETATM    1  C1  UNL     1      -5.542  20.426   5.590  1.00  0.00     0.104 C 
HETATM    2  C2  UNL     1      -5.077  21.610   4.798  1.00  0.00     0.182 C 
HETATM    3  O1  UNL     1      -4.192  21.547   3.948  1.00  0.00    -0.286 OA
ENDROOT
BRANCH   2   4
HETATM    4  S1  UNL     1      -5.878  23.119   5.213  1.00  0.00    -0.091 SA
BRANCH   4   5
HETATM    5  C3  UNL     1      -7.609  22.676   4.856  1.00  0.00     0.102 C 
BRANCH   5   6
HETATM    6  C4  UNL     1      -7.842  22.447   3.361  1.00  0.00     0.133 C 
BRANCH   6   7
HETATM    7  N1  UNL     1      -9.228  22.626   2.978  1.00  0.00    -0.360 N 
HETATM    8  C5  UNL     1     -10.117  21.576   2.966  1.00  0.00     0.219 C 
HETATM    9  O2  UNL     1      -9.778  20.422   3.198  1.00  0.00    -0.274 OA
HETATM   10  H8  UNL     1      -9.546  23.550   2.719  1.00  0.00     0.162 HD
BRANCH   8  11
HETATM   11  C6  UNL     1     -11.524  21.987   2.590  1.00  0.00     0.122 C 
BRANCH  11  12
HETATM   12  C7  UNL     1     -11.647  22.304   1.100  1.00  0.00     0.132 C 
BRANCH  12  13
HETATM   13  N2  UNL     1     -11.222  21.211   0.250  1.00  0.00    -0.358 N 
HETATM   14  C8  UNL     1     -12.105  20.198  -0.076  1.00  0.00     0.247 C 
HETATM   15  O3  UNL     1     -13.220  20.120   0.425  1.00  0.00    -0.271 OA
HETATM   16  H13 UNL     1     -10.505  21.442  -0.435  1.00  0.00     0.162 HD
BRANCH  14  17
HETATM   17  C9  UNL     1     -11.584  19.202  -1.122  1.00  0.00     0.219 C 
BRANCH  17  18
HETATM   18  C10 UNL     1     -12.274  19.305  -2.508  1.00  0.00     0.009 C 
HETATM   19  C11 UNL     1     -12.885  17.967  -2.951  1.00  0.00     0.020 C 
HETATM   20  C12 UNL     1     -13.396  20.362  -2.503  1.00  0.00     0.020 C 
BRANCH  18  21
HETATM   21  C13 UNL     1     -11.160  19.727  -3.508  1.00  0.00     0.192 C 
BRANCH  21  22
HETATM   22  O4  UNL     1     -11.425  19.289  -4.825  1.00  0.00    -0.296 OA
BRANCH  22  23
HETATM   23  P1  UNL     1     -11.554  20.294  -6.068  1.00  0.00     0.401 P 
HETATM   24  O5  UNL     1     -12.693  21.258  -5.959  1.00  0.00    -0.631 OA
BRANCH  23  25
HETATM   25  O6  UNL     1     -11.595  19.387  -7.397  1.00  0.00    -0.307 OA
HETATM   26  H23 UNL     1     -10.741  18.977  -7.582  1.00  0.00     0.222 HD
ENDBRANCH  23  25
BRANCH  23  27
HETATM   27  O7  UNL     1     -10.120  20.970  -6.200  1.00  0.00    -0.195 OA
BRANCH  27  28
HETATM   28  P2  UNL     1      -8.872  20.060  -6.589  1.00  0.00     0.401 P 
HETATM   29  O8  UNL     1      -7.541  20.470  -6.049  1.00  0.00    -0.631 OA
BRANCH  28  30
HETATM   30  O9  UNL     1      -9.332  18.597  -6.143  1.00  0.00    -0.307 OA
HETATM   31  H24 UNL     1      -8.766  18.191  -5.443  1.00  0.00     0.222 HD
ENDBRANCH  28  30
BRANCH  28  32
HETATM   32  O10 UNL     1      -8.970  19.928  -8.177  1.00  0.00    -0.294 OA
BRANCH  32  33
HETATM   33  C14 UNL     1      -8.339  20.874  -9.000  1.00  0.00     0.215 C 
BRANCH  33  34
HETATM   34  C15 UNL     1      -7.306  20.104  -9.821  1.00  0.00     0.180 C 
HETATM   35  C16 UNL     1      -6.418  21.081 -10.580  1.00  0.00     0.197 C 
HETATM   36  C17 UNL     1      -6.668  20.771 -12.043  1.00  0.00     0.199 C 
HETATM   37  C18 UNL     1      -7.118  19.309 -11.991  1.00  0.00     0.262 C 
HETATM   38  O11 UNL     1      -7.899  19.219 -10.779  1.00  0.00    -0.353 OA
BRANCH  35  39
HETATM   39  O13 UNL     1      -5.067  20.835 -10.202  1.00  0.00    -0.286 OA
BRANCH  39  40
HETATM   40  P3  UNL     1      -4.376  21.981  -9.328  1.00  0.00     0.391 P 
HETATM   41  O14 UNL     1      -5.329  22.729  -8.453  1.00  0.00    -0.632 OA
BRANCH  40  42
HETATM   42  O15 UNL     1      -3.613  22.806 -10.466  1.00  0.00    -0.307 OA
HETATM   43  H36 UNL     1      -4.206  22.967 -11.238  1.00  0.00     0.222 HD
ENDBRANCH  40  42
BRANCH  40  44
HETATM   44  O16 UNL     1      -3.204  21.173  -8.619  1.00  0.00    -0.307 OA
HETATM   45  H37 UNL     1      -3.289  21.158  -7.653  1.00  0.00     0.222 HD
ENDBRANCH  40  44
ENDBRANCH  39  40
ENDBRANCH  35  39
BRANCH  36  46
HETATM   46  O12 UNL     1      -5.506  21.073 -12.820  1.00  0.00    -0.388 OA
HETATM   47  H35 UNL     1      -4.922  20.279 -12.766  1.00  0.00     0.210 HD
ENDBRANCH  36  46
BRANCH  37  48
HETATM   48  N3  UNL     1      -7.959  18.946 -13.115  1.00  0.00    -0.297 N 
HETATM   49  C19 UNL     1      -7.657  18.066 -14.128  1.00  0.00     0.188 A 
HETATM   50  N4  UNL     1      -8.680  17.856 -14.927  1.00  0.00    -0.346 N 
HETATM   51  C20 UNL     1      -9.697  18.634 -14.403  1.00  0.00     0.116 A 
HETATM   52  H4  UNL     1      -8.716  17.254 -15.750  1.00  0.00     0.167 HD
HETATM   53  C21 UNL     1     -11.042  18.817 -14.769  1.00  0.00     0.109 A 
HETATM   54  C23 UNL     1      -9.252  19.345 -13.303  1.00  0.00     0.142 A 
HETATM   55  N5  UNL     1     -11.801  19.677 -14.046  1.00  0.00    -0.341 N 
HETATM   56  C22 UNL     1     -11.225  20.320 -13.011  1.00  0.00     0.183 A 
HETATM   57  H5  UNL     1     -12.781  19.833 -14.279  1.00  0.00     0.167 HD
HETATM   58  N6  UNL     1      -9.956  20.220 -12.563  1.00  0.00    -0.336 N 
HETATM   59  H6  UNL     1      -9.581  20.738 -11.769  1.00  0.00     0.168 HD
BRANCH  53  60
HETATM   60  N7  UNL     1     -11.635  18.170 -15.842  1.00  0.00    -0.287 NA
HETATM   61  H33 UNL     1     -10.977  17.736 -16.485  1.00  0.00     0.125 HD
HETATM   62  H34 UNL     1     -12.392  18.699 -16.253  1.00  0.00     0.125 HD
ENDBRANCH  53  60
ENDBRANCH  37  48
ENDBRANCH  33  34
ENDBRANCH  32  33
ENDBRANCH  28  32
ENDBRANCH  27  28
ENDBRANCH  23  27
ENDBRANCH  22  23
ENDBRANCH  21  22
ENDBRANCH  18  21
ENDBRANCH  17  18
BRANCH  17  63
HETATM   63  O17 UNL     1     -10.174  19.369  -1.302  1.00  0.00    -0.385 OA
HETATM   64  H38 UNL     1     -10.014  19.603  -2.232  1.00  0.00     0.210 HD
ENDBRANCH  17  63
ENDBRANCH  14  17
ENDBRANCH  12  13
ENDBRANCH  11  12
ENDBRANCH   8  11
ENDBRANCH   6   7
ENDBRANCH   5   6
ENDBRANCH   4   5
ENDBRANCH   2   4
TORSDOF 27
ENDMDL
MODEL 18
REMARK VINA RESULT:      -3.6      3.547     11.394
REMARK  27 active torsions:
REMARK  status: ('A' for Active; 'I' for Inactive)
REMARK    1  A    between atoms: C2_2  and  S1_4 
REMARK    2  A    between atoms: S1_4  and  C3_5 
REMARK    3  A    between atoms: C3_5  and  C4_6 
REMARK    4  A    between atoms: C4_6  and  N1_7 
REMARK       I    between atoms: N1_7  and  C5_8 
REMARK    5  A    between atoms: C5_8  and  C6_10 
REMARK    6  A    between atoms: C6_10  and  C7_11 
REMARK    7  A    between atoms: C7_11  and  N2_12 
REMARK       I    between atoms: N2_12  and  C8_13 
REMARK    8  A    between atoms: C8_13  and  C9_15 
REMARK    9  A    between atoms: C9_15  and  C10_16 
REMARK   10  A    between atoms: C9_15  and  O17_54 
REMARK   11  A    between atoms: C10_16  and  C13_19 
REMARK   12  A    between atoms: C13_19  and  O4_20 
REMARK   13  A    between atoms: O4_20  and  P1_21 
REMARK   14  A    between atoms: P1_21  and  O6_23 
REMARK   15  A    between atoms: P1_21  and  O7_24 
REMARK   16  A    between atoms: O7_24  and  P2_25 
REMARK   17  A    between atoms: P2_25  and  O9_27 
REMARK   18  A    between atoms: P2_25  and  O10_28 
REMARK   19  A    between atoms: O10_28  and  C14_29 
REMARK   20  A    between atoms: C14_29  and  C15_30 
REMARK   21  A    between atoms: C16_31  and  O13_49 
REMARK   22  A    between atoms: C17_32  and  O12_48 
REMARK   23  A    between atoms: C18_33  and  N3_35 
REMARK   24  A    between atoms: C21_40  and  N7_47 
REMARK   25  A    between atoms: O13_49  and  P3_50 
REMARK   26  A    between atoms: P3_50  and  O15_52 
REMARK   27  A    between atoms: P3_50  and  O16_53 
ROOT
HETATM    1  C1  UNL     1       0.010   7.878  -2.966  1.00  0.00     0.104 C 
HETATM    2  C2  UNL     1       0.855   8.951  -2.350  1.00  0.00     0.182 C 
HETATM    3  O1  UNL     1       0.525   9.575  -1.344  1.00  0.00    -0.286 OA
ENDROOT
BRANCH   2   4
HETATM    4  S1  UNL     1       2.351   9.281  -3.212  1.00  0.00    -0.091 SA
BRANCH   4   5
HETATM    5  C3  UNL     1       3.490   9.511  -1.808  1.00  0.00     0.102 C 
BRANCH   5   6
HETATM    6  C4  UNL     1       4.911   9.834  -2.274  1.00  0.00     0.133 C 
BRANCH   6   7
HETATM    7  N1  UNL     1       5.243  11.236  -2.124  1.00  0.00    -0.360 N 
HETATM    8  C5  UNL     1       6.078  11.680  -1.125  1.00  0.00     0.219 C 
HETATM    9  O2  UNL     1       6.525  10.936  -0.260  1.00  0.00    -0.274 OA
HETATM   10  H8  UNL     1       4.853  11.901  -2.779  1.00  0.00     0.162 HD
BRANCH   8  11
HETATM   11  C6  UNL     1       6.339  13.170  -1.180  1.00  0.00     0.122 C 
BRANCH  11  12
HETATM   12  C7  UNL     1       7.300  13.540  -2.310  1.00  0.00     0.132 C 
BRANCH  12  13
HETATM   13  N2  UNL     1       6.654  14.249  -3.394  1.00  0.00    -0.358 N 
HETATM   14  C8  UNL     1       6.072  13.549  -4.435  1.00  0.00     0.247 C 
HETATM   15  O3  UNL     1       6.180  12.334  -4.544  1.00  0.00    -0.271 OA
HETATM   16  H13 UNL     1       6.239  15.145  -3.147  1.00  0.00     0.162 HD
BRANCH  14  17
HETATM   17  C9  UNL     1       5.271  14.410  -5.423  1.00  0.00     0.219 C 
BRANCH  17  18
HETATM   18  C10 UNL     1       3.738  14.405  -5.183  1.00  0.00     0.009 C 
HETATM   19  C11 UNL     1       2.990  13.583  -6.243  1.00  0.00     0.020 C 
HETATM   20  C12 UNL     1       3.384  13.828  -3.797  1.00  0.00     0.020 C 
BRANCH  18  21
HETATM   21  C13 UNL     1       3.289  15.892  -5.263  1.00  0.00     0.192 C 
BRANCH  21  22
HETATM   22  O4  UNL     1       1.955  16.028  -5.711  1.00  0.00    -0.296 OA
BRANCH  22  23
HETATM   23  P1  UNL     1       1.476  17.224  -6.666  1.00  0.00     0.401 P 
HETATM   24  O5  UNL     1       0.059  17.104  -7.133  1.00  0.00    -0.631 OA
BRANCH  23  25
HETATM   25  O6  UNL     1       2.547  17.321  -7.864  1.00  0.00    -0.307 OA
HETATM   26  H23 UNL     1       2.621  18.219  -8.211  1.00  0.00     0.222 HD
ENDBRANCH  23  25
BRANCH  23  27
HETATM   27  O7  UNL     1       1.798  18.553  -5.854  1.00  0.00    -0.195 OA
BRANCH  27  28
HETATM   28  P2  UNL     1       1.790  19.948  -6.625  1.00  0.00     0.401 P 
HETATM   29  O8  UNL     1       0.981  20.023  -7.879  1.00  0.00    -0.631 OA
BRANCH  28  30
HETATM   30  O9  UNL     1       1.343  20.986  -5.498  1.00  0.00    -0.307 OA
HETATM   31  H24 UNL     1       0.830  21.758  -5.841  1.00  0.00     0.222 HD
ENDBRANCH  28  30
BRANCH  28  32
HETATM   32  O10 UNL     1       3.336  20.318  -6.770  1.00  0.00    -0.294 OA
BRANCH  32  33
HETATM   33  C14 UNL     1       4.002  20.094  -7.985  1.00  0.00     0.215 C 
BRANCH  33  34
HETATM   34  C15 UNL     1       5.459  20.489  -7.753  1.00  0.00     0.180 C 
HETATM   35  C16 UNL     1       5.716  21.875  -8.330  1.00  0.00     0.197 C 
HETATM   36  C17 UNL     1       6.758  21.654  -9.411  1.00  0.00     0.199 C 
HETATM   37  C18 UNL     1       7.452  20.376  -8.933  1.00  0.00     0.262 C 
HETATM   38  O11 UNL     1       6.387  19.584  -8.362  1.00  0.00    -0.353 OA
BRANCH  35  39
HETATM   39  O13 UNL     1       6.199  22.707  -7.281  1.00  0.00    -0.286 OA
BRANCH  39  40
HETATM   40  P3  UNL     1       5.650  22.362  -5.820  1.00  0.00     0.391 P 
HETATM   41  O14 UNL     1       4.209  22.706  -5.620  1.00  0.00    -0.632 OA
BRANCH  40  42
HETATM   42  O15 UNL     1       6.725  23.119  -4.909  1.00  0.00    -0.307 OA
HETATM   43  H36 UNL     1       7.621  22.723  -5.026  1.00  0.00     0.222 HD
ENDBRANCH  40  42
BRANCH  40  44
HETATM   44  O16 UNL     1       6.068  20.834  -5.679  1.00  0.00    -0.307 OA
HETATM   45  H37 UNL     1       6.507  20.489  -6.472  1.00  0.00     0.222 HD
ENDBRANCH  40  44
ENDBRANCH  39  40
ENDBRANCH  35  39
BRANCH  36  46
HETATM   46  O12 UNL     1       7.568  22.822  -9.564  1.00  0.00    -0.388 OA
HETATM   47  H35 UNL     1       7.001  23.589  -9.308  1.00  0.00     0.210 HD
ENDBRANCH  36  46
BRANCH  37  48
HETATM   48  N3  UNL     1       8.055  19.631 -10.020  1.00  0.00    -0.297 N 
HETATM   49  C19 UNL     1       7.731  18.362 -10.439  1.00  0.00     0.188 A 
HETATM   50  N4  UNL     1       8.375  18.018 -11.533  1.00  0.00    -0.346 N 
HETATM   51  C20 UNL     1       9.152  19.120 -11.841  1.00  0.00     0.116 A 
HETATM   52  H4  UNL     1       8.316  17.135 -12.040  1.00  0.00     0.167 HD
HETATM   53  C21 UNL     1      10.028  19.401 -12.904  1.00  0.00     0.109 A 
HETATM   54  C23 UNL     1       8.993  20.112 -10.891  1.00  0.00     0.142 A 
HETATM   55  N5  UNL     1      10.665  20.597 -12.922  1.00  0.00    -0.341 N 
HETATM   56  C22 UNL     1      10.430  21.460 -11.913  1.00  0.00     0.183 A 
HETATM   57  H5  UNL     1      11.305  20.838 -13.678  1.00  0.00     0.167 HD
HETATM   58  N6  UNL     1       9.611  21.306 -10.852  1.00  0.00    -0.336 N 
HETATM   59  H6  UNL     1       9.478  22.002 -10.119  1.00  0.00     0.168 HD
BRANCH  53  60
HETATM   60  N7  UNL     1      10.284  18.512 -13.936  1.00  0.00    -0.287 NA
HETATM   61  H33 UNL     1      10.497  17.565 -13.630  1.00  0.00     0.125 HD
HETATM   62  H34 UNL     1      10.878  18.903 -14.655  1.00  0.00     0.125 HD
ENDBRANCH  53  60
ENDBRANCH  37  48
ENDBRANCH  33  34
ENDBRANCH  32  33
ENDBRANCH  28  32
ENDBRANCH  27  28
ENDBRANCH  23  27
ENDBRANCH  22  23
ENDBRANCH  21  22
ENDBRANCH  18  21
ENDBRANCH  17  18
BRANCH  17  63
HETATM   63  O17 UNL     1       5.732  15.765  -5.382  1.00  0.00    -0.385 OA
HETATM   64  H38 UNL     1       6.007  15.963  -4.471  1.00  0.00     0.210 HD
ENDBRANCH  17  63
ENDBRANCH  14  17
ENDBRANCH  12  13
ENDBRANCH  11  12
ENDBRANCH   8  11
ENDBRANCH   6   7
ENDBRANCH   5   6
ENDBRANCH   4   5
ENDBRANCH   2   4
TORSDOF 27
ENDMDL
MODEL 19
REMARK VINA RESULT:      -2.5      4.583     10.595
REMARK  27 active torsions:
REMARK  status: ('A' for Active; 'I' for Inactive)
REMARK    1  A    between atoms: C2_2  and  S1_4 
REMARK    2  A    between atoms: S1_4  and  C3_5 
REMARK    3  A    between atoms: C3_5  and  C4_6 
REMARK    4  A    between atoms: C4_6  and  N1_7 
REMARK       I    between atoms: N1_7  and  C5_8 
REMARK    5  A    between atoms: C5_8  and  C6_10 
REMARK    6  A    between atoms: C6_10  and  C7_11 
REMARK    7  A    between atoms: C7_11  and  N2_12 
REMARK       I    between atoms: N2_12  and  C8_13 
REMARK    8  A    between atoms: C8_13  and  C9_15 
REMARK    9  A    between atoms: C9_15  and  C10_16 
REMARK   10  A    between atoms: C9_15  and  O17_54 
REMARK   11  A    between atoms: C10_16  and  C13_19 
REMARK   12  A    between atoms: C13_19  and  O4_20 
REMARK   13  A    between atoms: O4_20  and  P1_21 
REMARK   14  A    between atoms: P1_21  and  O6_23 
REMARK   15  A    between atoms: P1_21  and  O7_24 
REMARK   16  A    between atoms: O7_24  and  P2_25 
REMARK   17  A    between atoms: P2_25  and  O9_27 
REMARK   18  A    between atoms: P2_25  and  O10_28 
REMARK   19  A    between atoms: O10_28  and  C14_29 
REMARK   20  A    between atoms: C14_29  and  C15_30 
REMARK   21  A    between atoms: C16_31  and  O13_49 
REMARK   22  A    between atoms: C17_32  and  O12_48 
REMARK   23  A    between atoms: C18_33  and  N3_35 
REMARK   24  A    between atoms: C21_40  and  N7_47 
REMARK   25  A    between atoms: O13_49  and  P3_50 
REMARK   26  A    between atoms: P3_50  and  O15_52 
REMARK   27  A    between atoms: P3_50  and  O16_53 
ROOT
HETATM    1  C1  UNL     1       9.205   8.411   1.880  1.00  0.00     0.104 C 
HETATM    2  C2  UNL     1       9.765   7.100   2.340  1.00  0.00     0.182 C 
HETATM    3  O1  UNL     1      10.796   7.001   3.002  1.00  0.00    -0.286 OA
ENDROOT
BRANCH   2   4
HETATM    4  S1  UNL     1       8.844   5.695   1.820  1.00  0.00    -0.091 SA
BRANCH   4   5
HETATM    5  C3  UNL     1       7.250   6.483   1.422  1.00  0.00     0.102 C 
BRANCH   5   6
HETATM    6  C4  UNL     1       6.842   6.242  -0.033  1.00  0.00     0.133 C 
BRANCH   6   7
HETATM    7  N1  UNL     1       6.992   7.423  -0.859  1.00  0.00    -0.360 N 
HETATM    8  C5  UNL     1       5.905   8.073  -1.396  1.00  0.00     0.219 C 
HETATM    9  O2  UNL     1       4.760   7.652  -1.279  1.00  0.00    -0.274 OA
HETATM   10  H8  UNL     1       7.922   7.778  -1.035  1.00  0.00     0.162 HD
BRANCH   8  11
HETATM   11  C6  UNL     1       6.277   9.313  -2.180  1.00  0.00     0.122 C 
BRANCH  11  12
HETATM   12  C7  UNL     1       7.713   9.755  -1.901  1.00  0.00     0.132 C 
BRANCH  12  13
HETATM   13  N2  UNL     1       7.841  10.539  -0.691  1.00  0.00    -0.358 N 
HETATM   14  C8  UNL     1       8.866  11.458  -0.561  1.00  0.00     0.247 C 
HETATM   15  O3  UNL     1       9.758  11.561  -1.394  1.00  0.00    -0.271 OA
HETATM   16  H13 UNL     1       6.970  10.742  -0.206  1.00  0.00     0.162 HD
BRANCH  14  17
HETATM   17  C9  UNL     1       8.783  12.344   0.691  1.00  0.00     0.219 C 
BRANCH  17  18
HETATM   18  C10 UNL     1       7.433  12.257   1.451  1.00  0.00     0.009 C 
HETATM   19  C11 UNL     1       7.237  10.891   2.126  1.00  0.00     0.020 C 
HETATM   20  C12 UNL     1       7.326  13.345   2.539  1.00  0.00     0.020 C 
BRANCH  18  21
HETATM   21  C13 UNL     1       6.326  12.474   0.380  1.00  0.00     0.192 C 
BRANCH  21  22
HETATM   22  O4  UNL     1       6.701  13.423  -0.598  1.00  0.00    -0.296 OA
BRANCH  22  23
HETATM   23  P1  UNL     1       6.255  13.313  -2.134  1.00  0.00     0.401 P 
HETATM   24  O5  UNL     1       4.971  12.576  -2.347  1.00  0.00    -0.631 OA
BRANCH  23  25
HETATM   25  O6  UNL     1       7.503  12.690  -2.938  1.00  0.00    -0.307 OA
HETATM   26  H23 UNL     1       7.218  12.156  -3.690  1.00  0.00     0.222 HD
ENDBRANCH  23  25
BRANCH  23  27
HETATM   27  O7  UNL     1       6.258  14.811  -2.670  1.00  0.00    -0.195 OA
BRANCH  27  28
HETATM   28  P2  UNL     1       6.764  15.096  -4.154  1.00  0.00     0.401 P 
HETATM   29  O8  UNL     1       8.128  15.687  -4.302  1.00  0.00    -0.631 OA
BRANCH  28  30
HETATM   30  O9  UNL     1       6.582  13.686  -4.881  1.00  0.00    -0.307 OA
HETATM   31  H24 UNL     1       7.372  13.095  -4.817  1.00  0.00     0.222 HD
ENDBRANCH  28  30
BRANCH  28  32
HETATM   32  O10 UNL     1       5.569  15.924  -4.817  1.00  0.00    -0.294 OA
BRANCH  32  33
HETATM   33  C14 UNL     1       5.602  16.229  -6.186  1.00  0.00     0.215 C 
BRANCH  33  34
HETATM   34  C15 UNL     1       4.471  15.428  -6.829  1.00  0.00     0.180 C 
HETATM   35  C16 UNL     1       3.136  16.103  -6.546  1.00  0.00     0.197 C 
HETATM   36  C17 UNL     1       2.354  15.084  -5.739  1.00  0.00     0.199 C 
HETATM   37  C18 UNL     1       2.993  13.765  -6.179  1.00  0.00     0.262 C 
HETATM   38  O11 UNL     1       4.392  14.084  -6.343  1.00  0.00    -0.353 OA
BRANCH  35  39
HETATM   39  O13 UNL     1       2.514  16.391  -7.794  1.00  0.00    -0.286 OA
BRANCH  39  40
HETATM   40  P3  UNL     1       1.868  17.848  -7.923  1.00  0.00     0.391 P 
HETATM   41  O14 UNL     1       0.534  17.976  -7.262  1.00  0.00    -0.632 OA
BRANCH  40  42
HETATM   42  O15 UNL     1       1.935  18.066  -9.506  1.00  0.00    -0.307 OA
HETATM   43  H36 UNL     1       2.369  17.297  -9.946  1.00  0.00     0.222 HD
ENDBRANCH  40  42
BRANCH  40  44
HETATM   44  O16 UNL     1       3.049  18.765  -7.381  1.00  0.00    -0.307 OA
HETATM   45  H37 UNL     1       3.681  18.277  -6.829  1.00  0.00     0.222 HD
ENDBRANCH  40  44
ENDBRANCH  39  40
ENDBRANCH  35  39
BRANCH  36  46
HETATM   46  O12 UNL     1       0.951  15.242  -5.967  1.00  0.00    -0.388 OA
HETATM   47  H35 UNL     1       0.761  16.206  -5.872  1.00  0.00     0.210 HD
ENDBRANCH  36  46
BRANCH  37  48
HETATM   48  N3  UNL     1       2.866  12.724  -5.178  1.00  0.00    -0.297 N 
HETATM   49  C19 UNL     1       2.122  12.769  -4.022  1.00  0.00     0.188 A 
HETATM   50  N4  UNL     1       2.115  11.617  -3.389  1.00  0.00    -0.346 N 
HETATM   51  C20 UNL     1       2.887  10.781  -4.176  1.00  0.00     0.116 A 
HETATM   52  H4  UNL     1       1.644  11.389  -2.513  1.00  0.00     0.167 HD
HETATM   53  C21 UNL     1       3.229   9.422  -4.072  1.00  0.00     0.109 A 
HETATM   54  C23 UNL     1       3.391  11.465  -5.267  1.00  0.00     0.142 A 
HETATM   55  N5  UNL     1       4.032   8.880  -5.021  1.00  0.00    -0.341 N 
HETATM   56  C22 UNL     1       4.468   9.676  -6.017  1.00  0.00     0.183 A 
HETATM   57  H5  UNL     1       4.298   7.896  -4.981  1.00  0.00     0.167 HD
HETATM   58  N6  UNL     1       4.202  10.982  -6.225  1.00  0.00    -0.336 N 
HETATM   59  H6  UNL     1       4.567  11.530  -7.004  1.00  0.00     0.168 HD
BRANCH  53  60
HETATM   60  N7  UNL     1       2.795   8.603  -3.042  1.00  0.00    -0.287 NA
HETATM   61  H33 UNL     1       3.401   8.601  -2.225  1.00  0.00     0.125 HD
HETATM   62  H34 UNL     1       2.462   7.704  -3.365  1.00  0.00     0.125 HD
ENDBRANCH  53  60
ENDBRANCH  37  48
ENDBRANCH  33  34
ENDBRANCH  32  33
ENDBRANCH  28  32
ENDBRANCH  27  28
ENDBRANCH  23  27
ENDBRANCH  22  23
ENDBRANCH  21  22
ENDBRANCH  18  21
ENDBRANCH  17  18
BRANCH  17  63
HETATM   63  O17 UNL     1       9.838  12.013   1.600  1.00  0.00    -0.385 OA
HETATM   64  H38 UNL     1      10.573  11.638   1.086  1.00  0.00     0.210 HD
ENDBRANCH  17  63
ENDBRANCH  14  17
ENDBRANCH  12  13
ENDBRANCH  11  12
ENDBRANCH   8  11
ENDBRANCH   6   7
ENDBRANCH   5   6
ENDBRANCH   4   5
ENDBRANCH   2   4
TORSDOF 27
ENDMDL
