MODEL 1
REMARK VINA RESULT:      -4.9      0.000      0.000
REMARK  2 active torsions:
REMARK  status: ('A' for Active; 'I' for Inactive)
REMARK    1  A    between atoms: C3_3  and  O1_8 
REMARK    2  A    between atoms: C6_6  and  N1_7 
ROOT
HETATM    1  C1  UNL     1       4.113  10.505  -1.462  1.00  0.00     0.026 A 
HETATM    2  C2  UNL     1       4.996   9.582  -0.897  1.00  0.00     0.038 A 
HETATM    3  C3  UNL     1       4.532   8.331  -0.516  1.00  0.00     0.065 A 
HETATM    4  C4  UNL     1       3.199   7.982  -0.706  1.00  0.00     0.038 A 
HETATM    5  C5  UNL     1       2.321   8.912  -1.271  1.00  0.00     0.026 A 
HETATM    6  C6  UNL     1       2.757  10.197  -1.607  1.00  0.00     0.005 A 
ENDROOT
BRANCH   6   7
HETATM    7  N1  UNL     1       1.902  11.077  -2.280  1.00  0.00    -0.303 NA
HETATM    8  H5  UNL     1       1.877  12.009  -1.878  1.00  0.00     0.124 HD
HETATM    9  H6  UNL     1       0.974  10.702  -2.445  1.00  0.00     0.124 HD
ENDBRANCH   6   7
BRANCH   3  10
HETATM   10  O1  UNL     1       5.425   7.458   0.029  1.00  0.00    -0.361 OA
HETATM   11  H7  UNL     1       5.020   7.048   0.811  1.00  0.00     0.217 HD
ENDBRANCH   3  10
TORSDOF 2
ENDMDL
MODEL 2
REMARK VINA RESULT:      -4.9      0.680      1.783
REMARK  2 active torsions:
REMARK  status: ('A' for Active; 'I' for Inactive)
REMARK    1  A    between atoms: C3_3  and  O1_8 
REMARK    2  A    between atoms: C6_6  and  N1_7 
ROOT
HETATM    1  C1  UNL     1       2.662   8.496  -0.901  1.00  0.00     0.026 A 
HETATM    2  C2  UNL     1       3.845   7.964  -0.384  1.00  0.00     0.038 A 
HETATM    3  C3  UNL     1       5.015   8.708  -0.438  1.00  0.00     0.065 A 
HETATM    4  C4  UNL     1       5.017   9.985  -0.988  1.00  0.00     0.038 A 
HETATM    5  C5  UNL     1       3.829  10.511  -1.505  1.00  0.00     0.026 A 
HETATM    6  C6  UNL     1       2.653   9.754  -1.512  1.00  0.00     0.005 A 
ENDROOT
BRANCH   6   7
HETATM    7  N1  UNL     1       1.446  10.331  -1.921  1.00  0.00    -0.303 NA
HETATM    8  H5  UNL     1       1.123  11.076  -1.312  1.00  0.00     0.124 HD
HETATM    9  H6  UNL     1       0.716   9.656  -2.126  1.00  0.00     0.124 HD
ENDBRANCH   6   7
BRANCH   3  10
HETATM   10  O1  UNL     1       6.148   8.155   0.079  1.00  0.00    -0.361 OA
HETATM   11  H7  UNL     1       6.643   8.845   0.548  1.00  0.00     0.217 HD
ENDBRANCH   3  10
TORSDOF 2
ENDMDL
MODEL 3
REMARK VINA RESULT:      -4.9      2.777      3.679
REMARK  2 active torsions:
REMARK  status: ('A' for Active; 'I' for Inactive)
REMARK    1  A    between atoms: C3_3  and  O1_8 
REMARK    2  A    between atoms: C6_6  and  N1_7 
ROOT
HETATM    1  C1  UNL     1       3.269   7.985  -0.684  1.00  0.00     0.026 A 
HETATM    2  C2  UNL     1       2.322   8.850  -1.237  1.00  0.00     0.038 A 
HETATM    3  C3  UNL     1       2.705  10.121  -1.642  1.00  0.00     0.065 A 
HETATM    4  C4  UNL     1       4.027  10.535  -1.518  1.00  0.00     0.038 A 
HETATM    5  C5  UNL     1       4.969   9.664  -0.962  1.00  0.00     0.026 A 
HETATM    6  C6  UNL     1       4.590   8.401  -0.494  1.00  0.00     0.005 A 
ENDROOT
BRANCH   6   7
HETATM    7  N1  UNL     1       5.559   7.494  -0.051  1.00  0.00    -0.303 NA
HETATM    8  H5  UNL     1       5.170   6.659   0.377  1.00  0.00     0.124 HD
HETATM    9  H6  UNL     1       6.287   7.916   0.516  1.00  0.00     0.124 HD
ENDBRANCH   6   7
BRANCH   3  10
HETATM   10  O1  UNL     1       1.753  10.934  -2.179  1.00  0.00    -0.361 OA
HETATM   11  H7  UNL     1       1.792  11.794  -1.731  1.00  0.00     0.217 HD
ENDBRANCH   3  10
TORSDOF 2
ENDMDL
MODEL 4
REMARK VINA RESULT:      -4.8      2.778      3.261
REMARK  2 active torsions:
REMARK  status: ('A' for Active; 'I' for Inactive)
REMARK    1  A    between atoms: C3_3  and  O1_8 
REMARK    2  A    between atoms: C6_6  and  N1_7 
ROOT
HETATM    1  C1  UNL     1       4.960   9.667  -1.027  1.00  0.00     0.026 A 
HETATM    2  C2  UNL     1       3.985  10.528  -1.535  1.00  0.00     0.038 A 
HETATM    3  C3  UNL     1       2.668  10.099  -1.624  1.00  0.00     0.065 A 
HETATM    4  C4  UNL     1       2.307   8.826  -1.197  1.00  0.00     0.038 A 
HETATM    5  C5  UNL     1       3.289   7.969  -0.690  1.00  0.00     0.026 A 
HETATM    6  C6  UNL     1       4.631   8.362  -0.647  1.00  0.00     0.005 A 
ENDROOT
BRANCH   6   7
HETATM    7  N1  UNL     1       5.585   7.545  -0.030  1.00  0.00    -0.303 NA
HETATM    8  H5  UNL     1       6.543   7.832  -0.205  1.00  0.00     0.124 HD
HETATM    9  H6  UNL     1       5.443   6.554  -0.192  1.00  0.00     0.124 HD
ENDBRANCH   6   7
BRANCH   3  10
HETATM   10  O1  UNL     1       1.746  10.969  -2.123  1.00  0.00    -0.361 OA
HETATM   11  H7  UNL     1       1.747  11.770  -1.575  1.00  0.00     0.217 HD
ENDBRANCH   3  10
TORSDOF 2
ENDMDL
MODEL 5
REMARK VINA RESULT:      -4.8      2.215      2.879
REMARK  2 active torsions:
REMARK  status: ('A' for Active; 'I' for Inactive)
REMARK    1  A    between atoms: C3_3  and  O1_8 
REMARK    2  A    between atoms: C6_6  and  N1_7 
ROOT
HETATM    1  C1  UNL     1       5.206   8.754  -0.231  1.00  0.00     0.026 A 
HETATM    2  C2  UNL     1       4.066   7.961  -0.382  1.00  0.00     0.038 A 
HETATM    3  C3  UNL     1       2.957   8.471  -1.042  1.00  0.00     0.065 A 
HETATM    4  C4  UNL     1       2.976   9.758  -1.569  1.00  0.00     0.038 A 
HETATM    5  C5  UNL     1       4.121  10.546  -1.412  1.00  0.00     0.026 A 
HETATM    6  C6  UNL     1       5.226  10.071  -0.699  1.00  0.00     0.005 A 
ENDROOT
BRANCH   6   7
HETATM    7  N1  UNL     1       6.408  10.819  -0.650  1.00  0.00    -0.303 NA
HETATM    8  H5  UNL     1       7.105  10.525  -1.327  1.00  0.00     0.124 HD
HETATM    9  H6  UNL     1       6.793  10.918   0.284  1.00  0.00     0.124 HD
ENDBRANCH   6   7
BRANCH   3  10
HETATM   10  O1  UNL     1       1.865   7.666  -1.172  1.00  0.00    -0.361 OA
HETATM   11  H7  UNL     1       1.164   7.999  -0.590  1.00  0.00     0.217 HD
ENDBRANCH   3  10
TORSDOF 2
ENDMDL
MODEL 6
REMARK VINA RESULT:      -4.8      1.921      2.480
REMARK  2 active torsions:
REMARK  status: ('A' for Active; 'I' for Inactive)
REMARK    1  A    between atoms: C3_3  and  O1_8 
REMARK    2  A    between atoms: C6_6  and  N1_7 
ROOT
HETATM    1  C1  UNL     1       3.082   9.856  -1.569  1.00  0.00     0.026 A 
HETATM    2  C2  UNL     1       4.202  10.685  -1.469  1.00  0.00     0.038 A 
HETATM    3  C3  UNL     1       5.326  10.243  -0.787  1.00  0.00     0.065 A 
HETATM    4  C4  UNL     1       5.355   8.976  -0.215  1.00  0.00     0.038 A 
HETATM    5  C5  UNL     1       4.230   8.153  -0.318  1.00  0.00     0.026 A 
HETATM    6  C6  UNL     1       3.066   8.603  -0.950  1.00  0.00     0.005 A 
ENDROOT
BRANCH   6   7
HETATM    7  N1  UNL     1       1.991   7.730  -1.151  1.00  0.00    -0.303 NA
HETATM    8  H5  UNL     1       1.109   8.203  -1.323  1.00  0.00     0.124 HD
HETATM    9  H6  UNL     1       1.911   7.007  -0.444  1.00  0.00     0.124 HD
ENDBRANCH   6   7
BRANCH   3  10
HETATM   10  O1  UNL     1       6.399  11.080  -0.715  1.00  0.00    -0.361 OA
HETATM   11  H7  UNL     1       6.567  11.446  -1.598  1.00  0.00     0.217 HD
ENDBRANCH   3  10
TORSDOF 2
ENDMDL
MODEL 7
REMARK VINA RESULT:      -4.8      2.195      2.763
REMARK  2 active torsions:
REMARK  status: ('A' for Active; 'I' for Inactive)
REMARK    1  A    between atoms: C3_3  and  O1_8 
REMARK    2  A    between atoms: C6_6  and  N1_7 
ROOT
HETATM    1  C1  UNL     1       4.084  10.528  -1.463  1.00  0.00     0.026 A 
HETATM    2  C2  UNL     1       2.956   9.711  -1.570  1.00  0.00     0.038 A 
HETATM    3  C3  UNL     1       2.979   8.433  -1.030  1.00  0.00     0.065 A 
HETATM    4  C4  UNL     1       4.109   7.964  -0.369  1.00  0.00     0.038 A 
HETATM    5  C5  UNL     1       5.234   8.786  -0.268  1.00  0.00     0.026 A 
HETATM    6  C6  UNL     1       5.251  10.055  -0.856  1.00  0.00     0.005 A 
ENDROOT
BRANCH   6   7
HETATM    7  N1  UNL     1       6.336  10.914  -0.647  1.00  0.00    -0.303 NA
HETATM    8  H5  UNL     1       6.634  10.967   0.322  1.00  0.00     0.124 HD
HETATM    9  H6  UNL     1       6.220  11.831  -1.066  1.00  0.00     0.124 HD
ENDBRANCH   6   7
BRANCH   3  10
HETATM   10  O1  UNL     1       1.857   7.668  -1.152  1.00  0.00    -0.361 OA
HETATM   11  H7  UNL     1       2.072   6.760  -0.887  1.00  0.00     0.217 HD
ENDBRANCH   3  10
TORSDOF 2
ENDMDL
MODEL 8
REMARK VINA RESULT:      -4.8      2.863      3.361
REMARK  2 active torsions:
REMARK  status: ('A' for Active; 'I' for Inactive)
REMARK    1  A    between atoms: C3_3  and  O1_8 
REMARK    2  A    between atoms: C6_6  and  N1_7 
ROOT
HETATM    1  C1  UNL     1       4.779  10.037  -1.123  1.00  0.00     0.026 A 
HETATM    2  C2  UNL     1       4.228  11.160  -1.746  1.00  0.00     0.038 A 
HETATM    3  C3  UNL     1       2.879  11.175  -2.068  1.00  0.00     0.065 A 
HETATM    4  C4  UNL     1       2.065  10.090  -1.762  1.00  0.00     0.038 A 
HETATM    5  C5  UNL     1       2.623   8.969  -1.140  1.00  0.00     0.026 A 
HETATM    6  C6  UNL     1       3.992   8.911  -0.860  1.00  0.00     0.005 A 
ENDROOT
BRANCH   6   7
HETATM    7  N1  UNL     1       4.518   7.838  -0.132  1.00  0.00    -0.303 NA
HETATM    8  H5  UNL     1       4.454   6.947  -0.614  1.00  0.00     0.124 HD
HETATM    9  H6  UNL     1       4.180   7.786   0.823  1.00  0.00     0.124 HD
ENDBRANCH   6   7
BRANCH   3  10
HETATM   10  O1  UNL     1       2.380  12.290  -2.672  1.00  0.00    -0.361 OA
HETATM   11  H7  UNL     1       1.636  12.622  -2.144  1.00  0.00     0.217 HD
ENDBRANCH   3  10
TORSDOF 2
ENDMDL
MODEL 9
REMARK VINA RESULT:      -4.7      2.607      3.407
REMARK  2 active torsions:
REMARK  status: ('A' for Active; 'I' for Inactive)
REMARK    1  A    between atoms: C3_3  and  O1_8 
REMARK    2  A    between atoms: C6_6  and  N1_7 
ROOT
HETATM    1  C1  UNL     1       1.853  10.258  -1.997  1.00  0.00     0.026 A 
HETATM    2  C2  UNL     1       2.424  11.507  -2.249  1.00  0.00     0.038 A 
HETATM    3  C3  UNL     1       3.760  11.727  -1.945  1.00  0.00     0.065 A 
HETATM    4  C4  UNL     1       4.540  10.710  -1.406  1.00  0.00     0.038 A 
HETATM    5  C5  UNL     1       3.961   9.462  -1.155  1.00  0.00     0.026 A 
HETATM    6  C6  UNL     1       2.602   9.239  -1.400  1.00  0.00     0.005 A 
ENDROOT
BRANCH   6   7
HETATM    7  N1  UNL     1       2.061   7.956  -1.259  1.00  0.00    -0.303 NA
HETATM    8  H5  UNL     1       1.923   7.472  -2.140  1.00  0.00     0.124 HD
HETATM    9  H6  UNL     1       1.239   7.921  -0.665  1.00  0.00     0.124 HD
ENDBRANCH   6   7
BRANCH   3  10
HETATM   10  O1  UNL     1       4.280  12.958  -2.208  1.00  0.00    -0.361 OA
HETATM   11  H7  UNL     1       5.248  12.900  -2.171  1.00  0.00     0.217 HD
ENDBRANCH   3  10
TORSDOF 2
ENDMDL
MODEL 10
REMARK VINA RESULT:      -4.6      2.813      3.674
REMARK  2 active torsions:
REMARK  status: ('A' for Active; 'I' for Inactive)
REMARK    1  A    between atoms: C3_3  and  O1_8 
REMARK    2  A    between atoms: C6_6  and  N1_7 
ROOT
HETATM    1  C1  UNL     1       2.458   9.652  -1.459  1.00  0.00     0.026 A 
HETATM    2  C2  UNL     1       2.449  10.920  -2.044  1.00  0.00     0.038 A 
HETATM    3  C3  UNL     1       3.614  11.673  -2.072  1.00  0.00     0.065 A 
HETATM    4  C4  UNL     1       4.795  11.170  -1.537  1.00  0.00     0.038 A 
HETATM    5  C5  UNL     1       4.796   9.900  -0.952  1.00  0.00     0.026 A 
HETATM    6  C6  UNL     1       3.618   9.151  -0.862  1.00  0.00     0.005 A 
ENDROOT
BRANCH   6   7
HETATM    7  N1  UNL     1       3.654   7.836  -0.383  1.00  0.00    -0.303 NA
HETATM    8  H5  UNL     1       3.610   7.134  -1.115  1.00  0.00     0.124 HD
HETATM    9  H6  UNL     1       2.995   7.655   0.367  1.00  0.00     0.124 HD
ENDBRANCH   6   7
BRANCH   3  10
HETATM   10  O1  UNL     1       3.565  12.904  -2.654  1.00  0.00    -0.361 OA
HETATM   11  H7  UNL     1       4.473  13.209  -2.812  1.00  0.00     0.217 HD
ENDBRANCH   3  10
TORSDOF 2
ENDMDL
MODEL 11
REMARK VINA RESULT:      -4.6      2.921      3.795
REMARK  2 active torsions:
REMARK  status: ('A' for Active; 'I' for Inactive)
REMARK    1  A    between atoms: C3_3  and  O1_8 
REMARK    2  A    between atoms: C6_6  and  N1_7 
ROOT
HETATM    1  C1  UNL     1       3.990   8.239  -0.415  1.00  0.00     0.026 A 
HETATM    2  C2  UNL     1       3.306   9.350  -0.915  1.00  0.00     0.038 A 
HETATM    3  C3  UNL     1       4.013  10.374  -1.529  1.00  0.00     0.065 A 
HETATM    4  C4  UNL     1       5.395  10.297  -1.666  1.00  0.00     0.038 A 
HETATM    5  C5  UNL     1       6.073   9.182  -1.162  1.00  0.00     0.026 A 
HETATM    6  C6  UNL     1       5.384   8.168  -0.489  1.00  0.00     0.005 A 
ENDROOT
BRANCH   6   7
HETATM    7  N1  UNL     1       6.053   7.004  -0.095  1.00  0.00    -0.303 NA
HETATM    8  H5  UNL     1       5.478   6.367   0.447  1.00  0.00     0.124 HD
HETATM    9  H6  UNL     1       6.954   7.175   0.339  1.00  0.00     0.124 HD
ENDBRANCH   6   7
BRANCH   3  10
HETATM   10  O1  UNL     1       3.310  11.439  -2.005  1.00  0.00    -0.361 OA
HETATM   11  H7  UNL     1       3.699  11.714  -2.851  1.00  0.00     0.217 HD
ENDBRANCH   3  10
TORSDOF 2
ENDMDL
MODEL 12
REMARK VINA RESULT:      -4.3      1.621      2.357
REMARK  2 active torsions:
REMARK  status: ('A' for Active; 'I' for Inactive)
REMARK    1  A    between atoms: C3_3  and  O1_8 
REMARK    2  A    between atoms: C6_6  and  N1_7 
ROOT
HETATM    1  C1  UNL     1       4.264   9.451  -0.430  1.00  0.00     0.026 A 
HETATM    2  C2  UNL     1       4.851   8.222  -0.123  1.00  0.00     0.038 A 
HETATM    3  C3  UNL     1       5.905   7.751  -0.893  1.00  0.00     0.065 A 
HETATM    4  C4  UNL     1       6.392   8.500  -1.959  1.00  0.00     0.038 A 
HETATM    5  C5  UNL     1       5.798   9.729  -2.261  1.00  0.00     0.026 A 
HETATM    6  C6  UNL     1       4.698  10.193  -1.533  1.00  0.00     0.005 A 
ENDROOT
BRANCH   6   7
HETATM    7  N1  UNL     1       4.188  11.475  -1.766  1.00  0.00    -0.303 NA
HETATM    8  H5  UNL     1       3.866  11.945  -0.925  1.00  0.00     0.124 HD
HETATM    9  H6  UNL     1       3.506  11.515  -2.516  1.00  0.00     0.124 HD
ENDBRANCH   6   7
BRANCH   3  10
HETATM   10  O1  UNL     1       6.452   6.549  -0.560  1.00  0.00    -0.361 OA
HETATM   11  H7  UNL     1       7.300   6.707  -0.115  1.00  0.00     0.217 HD
ENDBRANCH   3  10
TORSDOF 2
ENDMDL
MODEL 13
REMARK VINA RESULT:      -4.2      3.144      3.799
REMARK  2 active torsions:
REMARK  status: ('A' for Active; 'I' for Inactive)
REMARK    1  A    between atoms: C3_3  and  O1_8 
REMARK    2  A    between atoms: C6_6  and  N1_7 
ROOT
HETATM    1  C1  UNL     1       5.485  12.015  -1.569  1.00  0.00     0.026 A 
HETATM    2  C2  UNL     1       4.248  12.348  -2.127  1.00  0.00     0.038 A 
HETATM    3  C3  UNL     1       3.206  11.433  -2.083  1.00  0.00     0.065 A 
HETATM    4  C4  UNL     1       3.376  10.194  -1.475  1.00  0.00     0.038 A 
HETATM    5  C5  UNL     1       4.616   9.868  -0.920  1.00  0.00     0.026 A 
HETATM    6  C6  UNL     1       5.696  10.753  -1.006  1.00  0.00     0.005 A 
ENDROOT
BRANCH   6   7
HETATM    7  N1  UNL     1       6.896  10.467  -0.345  1.00  0.00    -0.303 NA
HETATM    8  H5  UNL     1       7.393  11.293  -0.026  1.00  0.00     0.124 HD
HETATM    9  H6  UNL     1       7.498   9.824  -0.848  1.00  0.00     0.124 HD
ENDBRANCH   6   7
BRANCH   3  10
HETATM   10  O1  UNL     1       2.014  11.796  -2.636  1.00  0.00    -0.361 OA
HETATM   11  H7  UNL     1       1.308  11.618  -1.994  1.00  0.00     0.217 HD
ENDBRANCH   3  10
TORSDOF 2
ENDMDL
MODEL 14
REMARK VINA RESULT:      -4.2      6.295      7.179
REMARK  2 active torsions:
REMARK  status: ('A' for Active; 'I' for Inactive)
REMARK    1  A    between atoms: C3_3  and  O1_8 
REMARK    2  A    between atoms: C6_6  and  N1_7 
ROOT
HETATM    1  C1  UNL     1       7.262  15.738  -3.432  1.00  0.00     0.026 A 
HETATM    2  C2  UNL     1       6.579  14.933  -2.517  1.00  0.00     0.038 A 
HETATM    3  C3  UNL     1       5.419  14.279  -2.908  1.00  0.00     0.065 A 
HETATM    4  C4  UNL     1       4.939  14.405  -4.207  1.00  0.00     0.038 A 
HETATM    5  C5  UNL     1       5.627  15.213  -5.117  1.00  0.00     0.026 A 
HETATM    6  C6  UNL     1       6.765  15.926  -4.725  1.00  0.00     0.005 A 
ENDROOT
BRANCH   6   7
HETATM    7  N1  UNL     1       7.512  16.636  -5.671  1.00  0.00    -0.303 NA
HETATM    8  H5  UNL     1       8.478  16.332  -5.739  1.00  0.00     0.124 HD
HETATM    9  H6  UNL     1       7.429  17.644  -5.588  1.00  0.00     0.124 HD
ENDBRANCH   6   7
BRANCH   3  10
HETATM   10  O1  UNL     1       4.784  13.501  -1.987  1.00  0.00    -0.361 OA
HETATM   11  H7  UNL     1       4.439  12.711  -2.434  1.00  0.00     0.217 HD
ENDBRANCH   3  10
TORSDOF 2
ENDMDL
MODEL 15
REMARK VINA RESULT:      -4.1      6.653      7.678
REMARK  2 active torsions:
REMARK  status: ('A' for Active; 'I' for Inactive)
REMARK    1  A    between atoms: C3_3  and  O1_8 
REMARK    2  A    between atoms: C6_6  and  N1_7 
ROOT
HETATM    1  C1  UNL     1       5.022  14.539  -4.199  1.00  0.00     0.026 A 
HETATM    2  C2  UNL     1       5.685  15.307  -5.159  1.00  0.00     0.038 A 
HETATM    3  C3  UNL     1       6.857  15.968  -4.821  1.00  0.00     0.065 A 
HETATM    4  C4  UNL     1       7.387  15.860  -3.540  1.00  0.00     0.038 A 
HETATM    5  C5  UNL     1       6.717  15.091  -2.584  1.00  0.00     0.026 A 
HETATM    6  C6  UNL     1       5.504  14.465  -2.888  1.00  0.00     0.005 A 
ENDROOT
BRANCH   6   7
HETATM    7  N1  UNL     1       4.904  13.603  -1.964  1.00  0.00    -0.303 NA
HETATM    8  H5  UNL     1       5.397  13.548  -1.078  1.00  0.00     0.124 HD
HETATM    9  H6  UNL     1       4.683  12.687  -2.340  1.00  0.00     0.124 HD
ENDBRANCH   6   7
BRANCH   3  10
HETATM   10  O1  UNL     1       7.476  16.704  -5.787  1.00  0.00    -0.361 OA
HETATM   11  H7  UNL     1       7.541  16.167  -6.592  1.00  0.00     0.217 HD
ENDBRANCH   3  10
TORSDOF 2
ENDMDL
MODEL 16
REMARK VINA RESULT:      -3.7      2.175      2.820
REMARK  2 active torsions:
REMARK  status: ('A' for Active; 'I' for Inactive)
REMARK    1  A    between atoms: C3_3  and  O1_8 
REMARK    2  A    between atoms: C6_6  and  N1_7 
ROOT
HETATM    1  C1  UNL     1       5.721  11.345  -1.312  1.00  0.00     0.026 A 
HETATM    2  C2  UNL     1       5.148  10.147  -0.878  1.00  0.00     0.038 A 
HETATM    3  C3  UNL     1       3.809   9.892  -1.137  1.00  0.00     0.065 A 
HETATM    4  C4  UNL     1       3.036  10.810  -1.839  1.00  0.00     0.038 A 
HETATM    5  C5  UNL     1       3.616  12.007  -2.269  1.00  0.00     0.026 A 
HETATM    6  C6  UNL     1       4.948  12.309  -1.966  1.00  0.00     0.005 A 
ENDROOT
BRANCH   6   7
HETATM    7  N1  UNL     1       5.551  13.452  -2.502  1.00  0.00    -0.303 NA
HETATM    8  H5  UNL     1       6.526  13.320  -2.751  1.00  0.00     0.124 HD
HETATM    9  H6  UNL     1       5.403  14.291  -1.951  1.00  0.00     0.124 HD
ENDBRANCH   6   7
BRANCH   3  10
HETATM   10  O1  UNL     1       3.289   8.711  -0.700  1.00  0.00    -0.361 OA
HETATM   11  H7  UNL     1       2.880   8.855   0.168  1.00  0.00     0.217 HD
ENDBRANCH   3  10
TORSDOF 2
ENDMDL
MODEL 17
REMARK VINA RESULT:      -3.7      4.143      5.236
REMARK  2 active torsions:
REMARK  status: ('A' for Active; 'I' for Inactive)
REMARK    1  A    between atoms: C3_3  and  O1_8 
REMARK    2  A    between atoms: C6_6  and  N1_7 
ROOT
HETATM    1  C1  UNL     1       5.239  11.161  -1.503  1.00  0.00     0.026 A 
HETATM    2  C2  UNL     1       4.836  12.418  -1.959  1.00  0.00     0.038 A 
HETATM    3  C3  UNL     1       5.589  13.539  -1.640  1.00  0.00     0.065 A 
HETATM    4  C4  UNL     1       6.749  13.420  -0.882  1.00  0.00     0.038 A 
HETATM    5  C5  UNL     1       7.145  12.158  -0.428  1.00  0.00     0.026 A 
HETATM    6  C6  UNL     1       6.368  11.025  -0.690  1.00  0.00     0.005 A 
ENDROOT
BRANCH   6   7
HETATM    7  N1  UNL     1       6.833   9.754  -0.334  1.00  0.00    -0.303 NA
HETATM    8  H5  UNL     1       6.099   9.056  -0.265  1.00  0.00     0.124 HD
HETATM    9  H6  UNL     1       7.445   9.753   0.475  1.00  0.00     0.124 HD
ENDBRANCH   6   7
BRANCH   3  10
HETATM   10  O1  UNL     1       5.165  14.747  -2.106  1.00  0.00    -0.361 OA
HETATM   11  H7  UNL     1       5.879  15.144  -2.631  1.00  0.00     0.217 HD
ENDBRANCH   3  10
TORSDOF 2
ENDMDL
MODEL 18
REMARK VINA RESULT:      -3.3      3.760      4.240
REMARK  2 active torsions:
REMARK  status: ('A' for Active; 'I' for Inactive)
REMARK    1  A    between atoms: C3_3  and  O1_8 
REMARK    2  A    between atoms: C6_6  and  N1_7 
ROOT
HETATM    1  C1  UNL     1       6.745  10.598  -0.022  1.00  0.00     0.026 A 
HETATM    2  C2  UNL     1       6.330  10.107  -1.262  1.00  0.00     0.038 A 
HETATM    3  C3  UNL     1       6.339   8.739  -1.497  1.00  0.00     0.065 A 
HETATM    4  C4  UNL     1       6.742   7.853  -0.505  1.00  0.00     0.038 A 
HETATM    5  C5  UNL     1       7.157   8.352   0.733  1.00  0.00     0.026 A 
HETATM    6  C6  UNL     1       7.211   9.729   0.969  1.00  0.00     0.005 A 
ENDROOT
BRANCH   6   7
HETATM    7  N1  UNL     1       7.513  10.214   2.247  1.00  0.00    -0.303 NA
HETATM    8  H5  UNL     1       6.732  10.677   2.703  1.00  0.00     0.124 HD
HETATM    9  H6  UNL     1       8.365  10.764   2.287  1.00  0.00     0.124 HD
ENDBRANCH   6   7
BRANCH   3  10
HETATM   10  O1  UNL     1       5.924   8.299  -2.719  1.00  0.00    -0.361 OA
HETATM   11  H7  UNL     1       5.142   8.810  -2.983  1.00  0.00     0.217 HD
ENDBRANCH   3  10
TORSDOF 2
ENDMDL
MODEL 19
REMARK VINA RESULT:      -3.3      3.477      3.926
REMARK  2 active torsions:
REMARK  status: ('A' for Active; 'I' for Inactive)
REMARK    1  A    between atoms: C3_3  and  O1_8 
REMARK    2  A    between atoms: C6_6  and  N1_7 
ROOT
HETATM    1  C1  UNL     1       6.356  10.191  -1.085  1.00  0.00     0.026 A 
HETATM    2  C2  UNL     1       6.719  10.680   0.172  1.00  0.00     0.038 A 
HETATM    3  C3  UNL     1       7.166   9.802   1.149  1.00  0.00     0.065 A 
HETATM    4  C4  UNL     1       7.272   8.441   0.883  1.00  0.00     0.038 A 
HETATM    5  C5  UNL     1       6.906   7.958  -0.376  1.00  0.00     0.026 A 
HETATM    6  C6  UNL     1       6.397   8.819  -1.354  1.00  0.00     0.005 A 
ENDROOT
BRANCH   6   7
HETATM    7  N1  UNL     1       6.147   8.347  -2.648  1.00  0.00    -0.303 NA
HETATM    8  H5  UNL     1       6.976   8.297  -3.231  1.00  0.00     0.124 HD
HETATM    9  H6  UNL     1       5.375   8.813  -3.113  1.00  0.00     0.124 HD
ENDBRANCH   6   7
BRANCH   3  10
HETATM   10  O1  UNL     1       7.513  10.319   2.361  1.00  0.00    -0.361 OA
HETATM   11  H7  UNL     1       6.754  10.808   2.718  1.00  0.00     0.217 HD
ENDBRANCH   3  10
TORSDOF 2
ENDMDL
