MODEL 1
REMARK VINA RESULT:       5.0      0.000      0.000
REMARK  2 active torsions:
REMARK  status: ('A' for Active; 'I' for Inactive)
REMARK    1  A    between atoms: C3_3  and  O1_8 
REMARK    2  A    between atoms: C6_6  and  N1_7 
ROOT
HETATM    1  C1  UNL     1       6.191   7.671  -1.393  1.00  0.00     0.026 A 
HETATM    2  C2  UNL     1       6.325   8.295  -2.635  1.00  0.00     0.038 A 
HETATM    3  C3  UNL     1       7.260   7.822  -3.545  1.00  0.00     0.065 A 
HETATM    4  C4  UNL     1       8.054   6.722  -3.237  1.00  0.00     0.038 A 
HETATM    5  C5  UNL     1       7.915   6.104  -1.991  1.00  0.00     0.026 A 
HETATM    6  C6  UNL     1       7.020   6.602  -1.039  1.00  0.00     0.005 A 
ENDROOT
BRANCH   6   7
HETATM    7  N1  UNL     1       6.803   5.907   0.156  1.00  0.00    -0.303 NA
HETATM    8  H5  UNL     1       6.318   5.024   0.032  1.00  0.00     0.124 HD
HETATM    9  H6  UNL     1       6.393   6.473   0.891  1.00  0.00     0.124 HD
ENDBRANCH   6   7
BRANCH   3  10
HETATM   10  O1  UNL     1       7.359   8.456  -4.747  1.00  0.00    -0.361 OA
HETATM   11  H7  UNL     1       6.952   9.333  -4.669  1.00  0.00     0.217 HD
ENDBRANCH   3  10
TORSDOF 2
ENDMDL
MODEL 2
REMARK VINA RESULT:       5.0      0.077      1.705
REMARK  2 active torsions:
REMARK  status: ('A' for Active; 'I' for Inactive)
REMARK    1  A    between atoms: C3_3  and  O1_8 
REMARK    2  A    between atoms: C6_6  and  N1_7 
ROOT
HETATM    1  C1  UNL     1       7.926   6.160  -1.985  1.00  0.00     0.026 A 
HETATM    2  C2  UNL     1       8.048   6.790  -3.226  1.00  0.00     0.038 A 
HETATM    3  C3  UNL     1       7.219   7.858  -3.540  1.00  0.00     0.065 A 
HETATM    4  C4  UNL     1       6.278   8.317  -2.625  1.00  0.00     0.038 A 
HETATM    5  C5  UNL     1       6.160   7.681  -1.386  1.00  0.00     0.026 A 
HETATM    6  C6  UNL     1       6.946   6.567  -1.074  1.00  0.00     0.005 A 
ENDROOT
BRANCH   6   7
HETATM    7  N1  UNL     1       6.905   6.013   0.211  1.00  0.00    -0.303 NA
HETATM    8  H5  UNL     1       7.770   6.122   0.730  1.00  0.00     0.124 HD
HETATM    9  H6  UNL     1       6.558   5.060   0.235  1.00  0.00     0.124 HD
ENDBRANCH   6   7
BRANCH   3  10
HETATM   10  O1  UNL     1       7.372   8.447  -4.760  1.00  0.00    -0.361 OA
HETATM   11  H7  UNL     1       6.709   9.150  -4.849  1.00  0.00     0.217 HD
ENDBRANCH   3  10
TORSDOF 2
ENDMDL
MODEL 3
REMARK VINA RESULT:       5.2      2.778      3.263
REMARK  2 active torsions:
REMARK  status: ('A' for Active; 'I' for Inactive)
REMARK    1  A    between atoms: C3_3  and  O1_8 
REMARK    2  A    between atoms: C6_6  and  N1_7 
ROOT
HETATM    1  C1  UNL     1       6.324   8.236  -2.584  1.00  0.00     0.026 A 
HETATM    2  C2  UNL     1       6.201   7.629  -1.332  1.00  0.00     0.038 A 
HETATM    3  C3  UNL     1       7.008   6.547  -1.009  1.00  0.00     0.065 A 
HETATM    4  C4  UNL     1       7.950   6.072  -1.915  1.00  0.00     0.038 A 
HETATM    5  C5  UNL     1       8.066   6.683  -3.167  1.00  0.00     0.026 A 
HETATM    6  C6  UNL     1       7.222   7.737  -3.532  1.00  0.00     0.005 A 
ENDROOT
BRANCH   6   7
HETATM    7  N1  UNL     1       7.425   8.418  -4.738  1.00  0.00    -0.303 NA
HETATM    8  H5  UNL     1       7.056   7.931  -5.549  1.00  0.00     0.124 HD
HETATM    9  H6  UNL     1       8.381   8.730  -4.876  1.00  0.00     0.124 HD
ENDBRANCH   6   7
BRANCH   3  10
HETATM   10  O1  UNL     1       6.860   5.985   0.223  1.00  0.00    -0.361 OA
HETATM   11  H7  UNL     1       7.631   6.218   0.765  1.00  0.00     0.217 HD
ENDBRANCH   3  10
TORSDOF 2
ENDMDL
MODEL 4
REMARK VINA RESULT:       5.4      2.777      3.681
REMARK  2 active torsions:
REMARK  status: ('A' for Active; 'I' for Inactive)
REMARK    1  A    between atoms: C3_3  and  O1_8 
REMARK    2  A    between atoms: C6_6  and  N1_7 
ROOT
HETATM    1  C1  UNL     1       8.060   6.698  -3.153  1.00  0.00     0.026 A 
HETATM    2  C2  UNL     1       7.915   6.088  -1.905  1.00  0.00     0.038 A 
HETATM    3  C3  UNL     1       6.972   6.571  -1.009  1.00  0.00     0.065 A 
HETATM    4  C4  UNL     1       6.159   7.647  -1.348  1.00  0.00     0.038 A 
HETATM    5  C5  UNL     1       6.311   8.253  -2.599  1.00  0.00     0.026 A 
HETATM    6  C6  UNL     1       7.295   7.818  -3.492  1.00  0.00     0.005 A 
ENDROOT
BRANCH   6   7
HETATM    7  N1  UNL     1       7.360   8.351  -4.784  1.00  0.00    -0.303 NA
HETATM    8  H5  UNL     1       7.500   7.653  -5.507  1.00  0.00     0.124 HD
HETATM    9  H6  UNL     1       8.000   9.133  -4.874  1.00  0.00     0.124 HD
ENDBRANCH   6   7
BRANCH   3  10
HETATM   10  O1  UNL     1       6.859   5.948   0.198  1.00  0.00    -0.361 OA
HETATM   11  H7  UNL     1       7.733   5.928   0.619  1.00  0.00     0.217 HD
ENDBRANCH   3  10
TORSDOF 2
ENDMDL
MODEL 5
REMARK VINA RESULT:       6.1      9.806     10.801
REMARK  2 active torsions:
REMARK  status: ('A' for Active; 'I' for Inactive)
REMARK    1  A    between atoms: C3_3  and  O1_8 
REMARK    2  A    between atoms: C6_6  and  N1_7 
ROOT
HETATM    1  C1  UNL     1       2.383   4.881   5.210  1.00  0.00     0.026 A 
HETATM    2  C2  UNL     1       1.504   3.820   4.983  1.00  0.00     0.038 A 
HETATM    3  C3  UNL     1       0.265   3.807   5.608  1.00  0.00     0.065 A 
HETATM    4  C4  UNL     1      -0.116   4.850   6.445  1.00  0.00     0.038 A 
HETATM    5  C5  UNL     1       0.770   5.908   6.669  1.00  0.00     0.026 A 
HETATM    6  C6  UNL     1       2.045   5.910   6.095  1.00  0.00     0.005 A 
ENDROOT
BRANCH   6   7
HETATM    7  N1  UNL     1       2.876   7.028   6.228  1.00  0.00    -0.303 NA
HETATM    8  H5  UNL     1       2.738   7.538   7.094  1.00  0.00     0.124 HD
HETATM    9  H6  UNL     1       2.878   7.637   5.416  1.00  0.00     0.124 HD
ENDBRANCH   6   7
BRANCH   3  10
HETATM   10  O1  UNL     1      -0.564   2.755   5.359  1.00  0.00    -0.361 OA
HETATM   11  H7  UNL     1      -0.650   2.229   6.170  1.00  0.00     0.217 HD
ENDBRANCH   3  10
TORSDOF 2
ENDMDL
MODEL 6
REMARK VINA RESULT:       6.6      1.072      1.072
REMARK  2 active torsions:
REMARK  status: ('A' for Active; 'I' for Inactive)
REMARK    1  A    between atoms: C3_3  and  O1_8 
REMARK    2  A    between atoms: C6_6  and  N1_7 
ROOT
HETATM    1  C1  UNL     1       7.026   7.751  -1.332  1.00  0.00     0.026 A 
HETATM    2  C2  UNL     1       6.629   7.816  -2.670  1.00  0.00     0.038 A 
HETATM    3  C3  UNL     1       7.118   6.889  -3.578  1.00  0.00     0.065 A 
HETATM    4  C4  UNL     1       7.987   5.884  -3.167  1.00  0.00     0.038 A 
HETATM    5  C5  UNL     1       8.381   5.825  -1.827  1.00  0.00     0.026 A 
HETATM    6  C6  UNL     1       7.945   6.786  -0.908  1.00  0.00     0.005 A 
ENDROOT
BRANCH   6   7
HETATM    7  N1  UNL     1       8.249   6.650   0.451  1.00  0.00    -0.303 NA
HETATM    8  H5  UNL     1       8.995   5.987   0.638  1.00  0.00     0.124 HD
HETATM    9  H6  UNL     1       7.437   6.494   1.039  1.00  0.00     0.124 HD
ENDBRANCH   6   7
BRANCH   3  10
HETATM   10  O1  UNL     1       6.705   6.985  -4.873  1.00  0.00    -0.361 OA
HETATM   11  H7  UNL     1       5.758   7.198  -4.882  1.00  0.00     0.217 HD
ENDBRANCH   3  10
TORSDOF 2
ENDMDL
MODEL 7
REMARK VINA RESULT:       6.9      1.636      2.351
REMARK  2 active torsions:
REMARK  status: ('A' for Active; 'I' for Inactive)
REMARK    1  A    between atoms: C3_3  and  O1_8 
REMARK    2  A    between atoms: C6_6  and  N1_7 
ROOT
HETATM    1  C1  UNL     1       7.961   6.860  -3.715  1.00  0.00     0.026 A 
HETATM    2  C2  UNL     1       7.096   7.954  -3.787  1.00  0.00     0.038 A 
HETATM    3  C3  UNL     1       6.359   8.323  -2.671  1.00  0.00     0.065 A 
HETATM    4  C4  UNL     1       6.487   7.624  -1.476  1.00  0.00     0.038 A 
HETATM    5  C5  UNL     1       7.354   6.529  -1.411  1.00  0.00     0.026 A 
HETATM    6  C6  UNL     1       8.060   6.106  -2.541  1.00  0.00     0.005 A 
ENDROOT
BRANCH   6   7
HETATM    7  N1  UNL     1       9.013   5.086  -2.436  1.00  0.00    -0.303 NA
HETATM    8  H5  UNL     1       9.964   5.426  -2.332  1.00  0.00     0.124 HD
HETATM    9  H6  UNL     1       8.933   4.374  -3.154  1.00  0.00     0.124 HD
ENDBRANCH   6   7
BRANCH   3  10
HETATM   10  O1  UNL     1       5.529   9.398  -2.781  1.00  0.00    -0.361 OA
HETATM   11  H7  UNL     1       4.664   9.090  -3.097  1.00  0.00     0.217 HD
ENDBRANCH   3  10
TORSDOF 2
ENDMDL
MODEL 8
REMARK VINA RESULT:       7.1      2.336      3.074
REMARK  2 active torsions:
REMARK  status: ('A' for Active; 'I' for Inactive)
REMARK    1  A    between atoms: C3_3  and  O1_8 
REMARK    2  A    between atoms: C6_6  and  N1_7 
ROOT
HETATM    1  C1  UNL     1       7.224   7.880  -3.789  1.00  0.00     0.026 A 
HETATM    2  C2  UNL     1       8.085   6.789  -3.646  1.00  0.00     0.038 A 
HETATM    3  C3  UNL     1       8.150   6.118  -2.434  1.00  0.00     0.065 A 
HETATM    4  C4  UNL     1       7.354   6.510  -1.364  1.00  0.00     0.038 A 
HETATM    5  C5  UNL     1       6.496   7.604  -1.513  1.00  0.00     0.026 A 
HETATM    6  C6  UNL     1       6.459   8.329  -2.708  1.00  0.00     0.005 A 
ENDROOT
BRANCH   6   7
HETATM    7  N1  UNL     1       5.513   9.345  -2.887  1.00  0.00    -0.303 NA
HETATM    8  H5  UNL     1       5.900  10.280  -2.812  1.00  0.00     0.124 HD
HETATM    9  H6  UNL     1       4.674   9.227  -2.329  1.00  0.00     0.124 HD
ENDBRANCH   6   7
BRANCH   3  10
HETATM   10  O1  UNL     1       9.000   5.057  -2.336  1.00  0.00    -0.361 OA
HETATM   11  H7  UNL     1       9.453   4.943  -3.187  1.00  0.00     0.217 HD
ENDBRANCH   3  10
TORSDOF 2
ENDMDL
MODEL 9
REMARK VINA RESULT:      10.0      9.784     10.635
REMARK  2 active torsions:
REMARK  status: ('A' for Active; 'I' for Inactive)
REMARK    1  A    between atoms: C3_3  and  O1_8 
REMARK    2  A    between atoms: C6_6  and  N1_7 
ROOT
HETATM    1  C1  UNL     1       1.007   3.480   4.590  1.00  0.00     0.026 A 
HETATM    2  C2  UNL     1      -0.177   3.861   5.227  1.00  0.00     0.038 A 
HETATM    3  C3  UNL     1      -0.181   4.963   6.069  1.00  0.00     0.065 A 
HETATM    4  C4  UNL     1       0.979   5.703   6.273  1.00  0.00     0.038 A 
HETATM    5  C5  UNL     1       2.160   5.315   5.633  1.00  0.00     0.026 A 
HETATM    6  C6  UNL     1       2.198   4.173   4.827  1.00  0.00     0.005 A 
ENDROOT
BRANCH   6   7
HETATM    7  N1  UNL     1       3.352   3.862   4.099  1.00  0.00    -0.303 NA
HETATM    8  H5  UNL     1       3.167   3.356   3.238  1.00  0.00     0.124 HD
HETATM    9  H6  UNL     1       4.082   3.427   4.653  1.00  0.00     0.124 HD
ENDBRANCH   6   7
BRANCH   3  10
HETATM   10  O1  UNL     1      -1.356   5.304   6.669  1.00  0.00    -0.361 OA
HETATM   11  H7  UNL     1      -1.254   5.204   7.629  1.00  0.00     0.217 HD
ENDBRANCH   3  10
TORSDOF 2
ENDMDL
