MODEL 1
REMARK VINA RESULT:      -7.0      0.000      0.000
REMARK  27 active torsions:
REMARK  status: ('A' for Active; 'I' for Inactive)
REMARK    1  A    between atoms: C2_2  and  S1_4 
REMARK    2  A    between atoms: S1_4  and  C3_5 
REMARK    3  A    between atoms: C3_5  and  C4_6 
REMARK    4  A    between atoms: C4_6  and  N1_7 
REMARK       I    between atoms: N1_7  and  C5_8 
REMARK    5  A    between atoms: C5_8  and  C6_10 
REMARK    6  A    between atoms: C6_10  and  C7_11 
REMARK    7  A    between atoms: C7_11  and  N2_12 
REMARK       I    between atoms: N2_12  and  C8_13 
REMARK    8  A    between atoms: C8_13  and  C9_15 
REMARK    9  A    between atoms: C9_15  and  C10_16 
REMARK   10  A    between atoms: C9_15  and  O17_54 
REMARK   11  A    between atoms: C10_16  and  C13_19 
REMARK   12  A    between atoms: C13_19  and  O4_20 
REMARK   13  A    between atoms: O4_20  and  P1_21 
REMARK   14  A    between atoms: P1_21  and  O6_23 
REMARK   15  A    between atoms: P1_21  and  O7_24 
REMARK   16  A    between atoms: O7_24  and  P2_25 
REMARK   17  A    between atoms: P2_25  and  O9_27 
REMARK   18  A    between atoms: P2_25  and  O10_28 
REMARK   19  A    between atoms: O10_28  and  C14_29 
REMARK   20  A    between atoms: C14_29  and  C15_30 
REMARK   21  A    between atoms: C16_31  and  O13_49 
REMARK   22  A    between atoms: C17_32  and  O12_48 
REMARK   23  A    between atoms: C18_33  and  N3_35 
REMARK   24  A    between atoms: C21_40  and  N7_47 
REMARK   25  A    between atoms: O13_49  and  P3_50 
REMARK   26  A    between atoms: P3_50  and  O15_52 
REMARK   27  A    between atoms: P3_50  and  O16_53 
ROOT
HETATM    1  C1  UNL     1       2.645  12.233  -2.590  1.00  0.00     0.104 C 
HETATM    2  C2  UNL     1       3.494  11.237  -1.861  1.00  0.00     0.182 C 
HETATM    3  O1  UNL     1       4.634  11.479  -1.470  1.00  0.00    -0.286 OA
ENDROOT
BRANCH   2   4
HETATM    4  S1  UNL     1       2.739   9.664  -1.640  1.00  0.00    -0.091 SA
BRANCH   4   5
HETATM    5  C3  UNL     1       3.780   8.990  -0.305  1.00  0.00     0.102 C 
BRANCH   5   6
HETATM    6  C4  UNL     1       4.928   8.139  -0.852  1.00  0.00     0.133 C 
BRANCH   6   7
HETATM    7  N1  UNL     1       6.107   8.183  -0.012  1.00  0.00    -0.360 N 
HETATM    8  C5  UNL     1       7.156   7.312  -0.190  1.00  0.00     0.219 C 
HETATM    9  O2  UNL     1       7.126   6.400  -1.008  1.00  0.00    -0.274 OA
HETATM   10  H8  UNL     1       6.158   8.880   0.719  1.00  0.00     0.162 HD
BRANCH   8  11
HETATM   11  C6  UNL     1       8.311   7.563   0.756  1.00  0.00     0.122 C 
BRANCH  11  12
HETATM   12  C7  UNL     1       7.948   8.572   1.845  1.00  0.00     0.132 C 
BRANCH  12  13
HETATM   13  N2  UNL     1       8.726   9.791   1.772  1.00  0.00    -0.358 N 
HETATM   14  C8  UNL     1       8.241  10.887   1.082  1.00  0.00     0.247 C 
HETATM   15  O3  UNL     1       7.213  10.836   0.418  1.00  0.00    -0.271 OA
HETATM   16  H13 UNL     1       9.330   9.973   2.570  1.00  0.00     0.162 HD
BRANCH  14  17
HETATM   17  C9  UNL     1       9.080  12.165   1.232  1.00  0.00     0.219 C 
BRANCH  17  18
HETATM   18  C10 UNL     1       9.225  12.995  -0.071  1.00  0.00     0.009 C 
HETATM   19  C11 UNL     1      10.220  14.154   0.090  1.00  0.00     0.020 C 
HETATM   20  C12 UNL     1       9.700  12.121  -1.248  1.00  0.00     0.020 C 
BRANCH  18  21
HETATM   21  C13 UNL     1       7.808  13.561  -0.376  1.00  0.00     0.192 C 
BRANCH  21  22
HETATM   22  O4  UNL     1       7.692  14.034  -1.703  1.00  0.00    -0.296 OA
BRANCH  22  23
HETATM   23  P1  UNL     1       6.360  14.727  -2.266  1.00  0.00     0.401 P 
HETATM   24  O5  UNL     1       5.392  15.146  -1.205  1.00  0.00    -0.631 OA
BRANCH  23  25
HETATM   25  O6  UNL     1       5.735  13.719  -3.354  1.00  0.00    -0.307 OA
HETATM   26  H23 UNL     1       5.861  12.794  -3.105  1.00  0.00     0.222 HD
ENDBRANCH  23  25
BRANCH  23  27
HETATM   27  O7  UNL     1       6.876  15.908  -3.199  1.00  0.00    -0.195 OA
BRANCH  27  28
HETATM   28  P2  UNL     1       5.910  16.469  -4.336  1.00  0.00     0.401 P 
HETATM   29  O8  UNL     1       6.045  15.865  -5.696  1.00  0.00    -0.631 OA
BRANCH  28  30
HETATM   30  O9  UNL     1       4.457  16.310  -3.694  1.00  0.00    -0.307 OA
HETATM   31  H24 UNL     1       3.724  16.638  -4.269  1.00  0.00     0.222 HD
ENDBRANCH  28  30
BRANCH  28  32
HETATM   32  O10 UNL     1       6.096  18.053  -4.254  1.00  0.00    -0.294 OA
BRANCH  32  33
HETATM   33  C14 UNL     1       5.387  18.794  -3.297  1.00  0.00     0.215 C 
BRANCH  33  34
HETATM   34  C15 UNL     1       5.688  20.264  -3.587  1.00  0.00     0.180 C 
HETATM   35  C16 UNL     1       4.969  20.697  -4.858  1.00  0.00     0.197 C 
HETATM   36  C17 UNL     1       6.080  21.084  -5.815  1.00  0.00     0.199 C 
HETATM   37  C18 UNL     1       7.215  21.460  -4.859  1.00  0.00     0.262 C 
HETATM   38  O11 UNL     1       7.085  20.523  -3.767  1.00  0.00    -0.353 OA
BRANCH  35  39
HETATM   39  O13 UNL     1       4.130  21.801  -4.535  1.00  0.00    -0.286 OA
BRANCH  39  40
HETATM   40  P3  UNL     1       2.572  21.588  -4.823  1.00  0.00     0.391 P 
HETATM   41  O14 UNL     1       1.889  20.711  -3.824  1.00  0.00    -0.632 OA
BRANCH  40  42
HETATM   42  O15 UNL     1       2.613  21.088  -6.342  1.00  0.00    -0.307 OA
HETATM   43  H36 UNL     1       1.757  20.668  -6.594  1.00  0.00     0.222 HD
ENDBRANCH  40  42
BRANCH  40  44
HETATM   44  O16 UNL     1       2.067  23.091  -4.950  1.00  0.00    -0.307 OA
HETATM   45  H37 UNL     1       2.454  23.555  -5.710  1.00  0.00     0.222 HD
ENDBRANCH  40  44
ENDBRANCH  39  40
ENDBRANCH  35  39
BRANCH  36  46
HETATM   46  O12 UNL     1       5.625  22.091  -6.722  1.00  0.00    -0.388 OA
HETATM   47  H35 UNL     1       5.422  21.630  -7.571  1.00  0.00     0.210 HD
ENDBRANCH  36  46
BRANCH  37  48
HETATM   48  N3  UNL     1       8.524  21.300  -5.458  1.00  0.00    -0.297 N 
HETATM   49  C19 UNL     1       9.363  22.296  -5.901  1.00  0.00     0.188 A 
HETATM   50  N4  UNL     1      10.534  21.830  -6.277  1.00  0.00    -0.346 N 
HETATM   51  C20 UNL     1      10.453  20.466  -6.063  1.00  0.00     0.116 A 
HETATM   52  H4  UNL     1      11.327  22.357  -6.644  1.00  0.00     0.167 HD
HETATM   53  C21 UNL     1      11.377  19.419  -6.224  1.00  0.00     0.109 A 
HETATM   54  C23 UNL     1       9.199  20.119  -5.593  1.00  0.00     0.142 A 
HETATM   55  N5  UNL     1      10.983  18.155  -5.933  1.00  0.00    -0.341 N 
HETATM   56  C22 UNL     1       9.720  17.963  -5.505  1.00  0.00     0.183 A 
HETATM   57  H5  UNL     1      11.627  17.370  -6.034  1.00  0.00     0.167 HD
HETATM   58  N6  UNL     1       8.754  18.883  -5.305  1.00  0.00    -0.336 N 
HETATM   59  H6  UNL     1       7.811  18.670  -4.978  1.00  0.00     0.168 HD
BRANCH  53  60
HETATM   60  N7  UNL     1      12.672  19.609  -6.678  1.00  0.00    -0.287 NA
HETATM   61  H33 UNL     1      12.823  20.495  -7.155  1.00  0.00     0.125 HD
HETATM   62  H34 UNL     1      13.063  18.784  -7.113  1.00  0.00     0.125 HD
ENDBRANCH  53  60
ENDBRANCH  37  48
ENDBRANCH  33  34
ENDBRANCH  32  33
ENDBRANCH  28  32
ENDBRANCH  27  28
ENDBRANCH  23  27
ENDBRANCH  22  23
ENDBRANCH  21  22
ENDBRANCH  18  21
ENDBRANCH  17  18
BRANCH  17  63
HETATM   63  O17 UNL     1       8.520  13.006   2.247  1.00  0.00    -0.385 OA
HETATM   64  H38 UNL     1       8.297  12.448   3.011  1.00  0.00     0.210 HD
ENDBRANCH  17  63
ENDBRANCH  14  17
ENDBRANCH  12  13
ENDBRANCH  11  12
ENDBRANCH   8  11
ENDBRANCH   6   7
ENDBRANCH   5   6
ENDBRANCH   4   5
ENDBRANCH   2   4
TORSDOF 27
ENDMDL
MODEL 2
REMARK VINA RESULT:      -6.9      1.331      2.205
REMARK  27 active torsions:
REMARK  status: ('A' for Active; 'I' for Inactive)
REMARK    1  A    between atoms: C2_2  and  S1_4 
REMARK    2  A    between atoms: S1_4  and  C3_5 
REMARK    3  A    between atoms: C3_5  and  C4_6 
REMARK    4  A    between atoms: C4_6  and  N1_7 
REMARK       I    between atoms: N1_7  and  C5_8 
REMARK    5  A    between atoms: C5_8  and  C6_10 
REMARK    6  A    between atoms: C6_10  and  C7_11 
REMARK    7  A    between atoms: C7_11  and  N2_12 
REMARK       I    between atoms: N2_12  and  C8_13 
REMARK    8  A    between atoms: C8_13  and  C9_15 
REMARK    9  A    between atoms: C9_15  and  C10_16 
REMARK   10  A    between atoms: C9_15  and  O17_54 
REMARK   11  A    between atoms: C10_16  and  C13_19 
REMARK   12  A    between atoms: C13_19  and  O4_20 
REMARK   13  A    between atoms: O4_20  and  P1_21 
REMARK   14  A    between atoms: P1_21  and  O6_23 
REMARK   15  A    between atoms: P1_21  and  O7_24 
REMARK   16  A    between atoms: O7_24  and  P2_25 
REMARK   17  A    between atoms: P2_25  and  O9_27 
REMARK   18  A    between atoms: P2_25  and  O10_28 
REMARK   19  A    between atoms: O10_28  and  C14_29 
REMARK   20  A    between atoms: C14_29  and  C15_30 
REMARK   21  A    between atoms: C16_31  and  O13_49 
REMARK   22  A    between atoms: C17_32  and  O12_48 
REMARK   23  A    between atoms: C18_33  and  N3_35 
REMARK   24  A    between atoms: C21_40  and  N7_47 
REMARK   25  A    between atoms: O13_49  and  P3_50 
REMARK   26  A    between atoms: P3_50  and  O15_52 
REMARK   27  A    between atoms: P3_50  and  O16_53 
ROOT
HETATM    1  C1  UNL     1       4.590  10.662  -1.624  1.00  0.00     0.104 C 
HETATM    2  C2  UNL     1       5.408   9.407  -1.616  1.00  0.00     0.182 C 
HETATM    3  O1  UNL     1       6.043   9.010  -2.589  1.00  0.00    -0.286 OA
ENDROOT
BRANCH   2   4
HETATM    4  S1  UNL     1       5.355   8.517  -0.100  1.00  0.00    -0.091 SA
BRANCH   4   5
HETATM    5  C3  UNL     1       6.436   7.109  -0.514  1.00  0.00     0.102 C 
BRANCH   5   6
HETATM    6  C4  UNL     1       7.774   7.181   0.224  1.00  0.00     0.133 C 
BRANCH   6   7
HETATM    7  N1  UNL     1       7.650   7.745   1.553  1.00  0.00    -0.360 N 
HETATM    8  C5  UNL     1       8.339   8.874   1.927  1.00  0.00     0.219 C 
HETATM    9  O2  UNL     1       9.155   9.423   1.195  1.00  0.00    -0.274 OA
HETATM   10  H8  UNL     1       7.033   7.295   2.216  1.00  0.00     0.162 HD
BRANCH   8  11
HETATM   11  C6  UNL     1       8.026   9.328   3.337  1.00  0.00     0.122 C 
BRANCH  11  12
HETATM   12  C7  UNL     1       8.371  10.801   3.553  1.00  0.00     0.132 C 
BRANCH  12  13
HETATM   13  N2  UNL     1       7.905  11.656   2.481  1.00  0.00    -0.358 N 
HETATM   14  C8  UNL     1       8.805  12.412   1.752  1.00  0.00     0.247 C 
HETATM   15  O3  UNL     1       9.990  12.482   2.051  1.00  0.00    -0.271 OA
HETATM   16  H13 UNL     1       7.067  11.337   1.999  1.00  0.00     0.162 HD
BRANCH  14  17
HETATM   17  C9  UNL     1       8.204  13.133   0.536  1.00  0.00     0.219 C 
BRANCH  17  18
HETATM   18  C10 UNL     1       9.251  13.745  -0.431  1.00  0.00     0.009 C 
HETATM   19  C11 UNL     1      10.430  14.381   0.321  1.00  0.00     0.020 C 
HETATM   20  C12 UNL     1       9.819  12.684  -1.395  1.00  0.00     0.020 C 
BRANCH  18  21
HETATM   21  C13 UNL     1       8.497  14.839  -1.240  1.00  0.00     0.192 C 
BRANCH  21  22
HETATM   22  O4  UNL     1       7.752  14.298  -2.312  1.00  0.00    -0.296 OA
BRANCH  22  23
HETATM   23  P1  UNL     1       6.170  14.510  -2.468  1.00  0.00     0.401 P 
HETATM   24  O5  UNL     1       5.393  14.267  -1.213  1.00  0.00    -0.631 OA
BRANCH  23  25
HETATM   25  O6  UNL     1       5.698  13.601  -3.710  1.00  0.00    -0.307 OA
HETATM   26  H23 UNL     1       6.389  12.988  -3.992  1.00  0.00     0.222 HD
ENDBRANCH  23  25
BRANCH  23  27
HETATM   27  O7  UNL     1       6.010  15.972  -3.076  1.00  0.00    -0.195 OA
BRANCH  27  28
HETATM   28  P2  UNL     1       5.169  16.160  -4.416  1.00  0.00     0.401 P 
HETATM   29  O8  UNL     1       5.798  15.683  -5.684  1.00  0.00    -0.631 OA
BRANCH  28  30
HETATM   30  O9  UNL     1       3.776  15.457  -4.076  1.00  0.00    -0.307 OA
HETATM   31  H24 UNL     1       3.812  14.844  -3.301  1.00  0.00     0.222 HD
ENDBRANCH  28  30
BRANCH  28  32
HETATM   32  O10 UNL     1       4.736  17.697  -4.387  1.00  0.00    -0.294 OA
BRANCH  32  33
HETATM   33  C14 UNL     1       4.684  18.389  -3.167  1.00  0.00     0.215 C 
BRANCH  33  34
HETATM   34  C15 UNL     1       5.341  19.746  -3.417  1.00  0.00     0.180 C 
HETATM   35  C16 UNL     1       4.870  20.308  -4.752  1.00  0.00     0.197 C 
HETATM   36  C17 UNL     1       6.131  20.414  -5.590  1.00  0.00     0.199 C 
HETATM   37  C18 UNL     1       7.219  20.539  -4.522  1.00  0.00     0.262 C 
HETATM   38  O11 UNL     1       6.771  19.676  -3.453  1.00  0.00    -0.353 OA
BRANCH  35  39
HETATM   39  O13 UNL     1       4.278  21.580  -4.512  1.00  0.00    -0.286 OA
BRANCH  39  40
HETATM   40  P3  UNL     1       2.822  21.791  -5.138  1.00  0.00     0.391 P 
HETATM   41  O14 UNL     1       2.710  21.354  -6.563  1.00  0.00    -0.632 OA
BRANCH  40  42
HETATM   42  O15 UNL     1       2.580  23.340  -4.817  1.00  0.00    -0.307 OA
HETATM   43  H36 UNL     1       3.145  23.907  -5.394  1.00  0.00     0.222 HD
ENDBRANCH  40  42
BRANCH  40  44
HETATM   44  O16 UNL     1       1.907  21.053  -4.067  1.00  0.00    -0.307 OA
HETATM   45  H37 UNL     1       1.797  20.107  -4.254  1.00  0.00     0.222 HD
ENDBRANCH  40  44
ENDBRANCH  39  40
ENDBRANCH  35  39
BRANCH  36  46
HETATM   46  O12 UNL     1       6.010  21.481  -6.534  1.00  0.00    -0.388 OA
HETATM   47  H35 UNL     1       5.544  22.215  -6.066  1.00  0.00     0.210 HD
ENDBRANCH  36  46
BRANCH  37  48
HETATM   48  N3  UNL     1       8.511  20.074  -4.986  1.00  0.00    -0.297 N 
HETATM   49  C19 UNL     1       9.017  18.798  -4.894  1.00  0.00     0.188 A 
HETATM   50  N4  UNL     1      10.164  18.670  -5.523  1.00  0.00    -0.346 N 
HETATM   51  C20 UNL     1      10.413  19.924  -6.054  1.00  0.00     0.116 A 
HETATM   52  H4  UNL     1      10.743  17.834  -5.603  1.00  0.00     0.167 HD
HETATM   53  C21 UNL     1      11.446  20.429  -6.861  1.00  0.00     0.109 A 
HETATM   54  C23 UNL     1       9.416  20.813  -5.695  1.00  0.00     0.142 A 
HETATM   55  N5  UNL     1      11.413  21.737  -7.216  1.00  0.00    -0.341 N 
HETATM   56  C22 UNL     1      10.388  22.492  -6.772  1.00  0.00     0.183 A 
HETATM   57  H5  UNL     1      12.143  22.138  -7.804  1.00  0.00     0.167 HD
HETATM   58  N6  UNL     1       9.343  22.119  -6.006  1.00  0.00    -0.336 N 
HETATM   59  H6  UNL     1       8.596  22.744  -5.703  1.00  0.00     0.168 HD
BRANCH  53  60
HETATM   60  N7  UNL     1      12.510  19.661  -7.308  1.00  0.00    -0.287 NA
HETATM   61  H33 UNL     1      13.420  20.102  -7.201  1.00  0.00     0.125 HD
HETATM   62  H34 UNL     1      12.324  19.208  -8.193  1.00  0.00     0.125 HD
ENDBRANCH  53  60
ENDBRANCH  37  48
ENDBRANCH  33  34
ENDBRANCH  32  33
ENDBRANCH  28  32
ENDBRANCH  27  28
ENDBRANCH  23  27
ENDBRANCH  22  23
ENDBRANCH  21  22
ENDBRANCH  18  21
ENDBRANCH  17  18
BRANCH  17  63
HETATM   63  O17 UNL     1       7.370  12.236  -0.206  1.00  0.00    -0.385 OA
HETATM   64  H38 UNL     1       7.784  11.357  -0.192  1.00  0.00     0.210 HD
ENDBRANCH  17  63
ENDBRANCH  14  17
ENDBRANCH  12  13
ENDBRANCH  11  12
ENDBRANCH   8  11
ENDBRANCH   6   7
ENDBRANCH   5   6
ENDBRANCH   4   5
ENDBRANCH   2   4
TORSDOF 27
ENDMDL
MODEL 3
REMARK VINA RESULT:      -6.6      2.583      4.471
REMARK  27 active torsions:
REMARK  status: ('A' for Active; 'I' for Inactive)
REMARK    1  A    between atoms: C2_2  and  S1_4 
REMARK    2  A    between atoms: S1_4  and  C3_5 
REMARK    3  A    between atoms: C3_5  and  C4_6 
REMARK    4  A    between atoms: C4_6  and  N1_7 
REMARK       I    between atoms: N1_7  and  C5_8 
REMARK    5  A    between atoms: C5_8  and  C6_10 
REMARK    6  A    between atoms: C6_10  and  C7_11 
REMARK    7  A    between atoms: C7_11  and  N2_12 
REMARK       I    between atoms: N2_12  and  C8_13 
REMARK    8  A    between atoms: C8_13  and  C9_15 
REMARK    9  A    between atoms: C9_15  and  C10_16 
REMARK   10  A    between atoms: C9_15  and  O17_54 
REMARK   11  A    between atoms: C10_16  and  C13_19 
REMARK   12  A    between atoms: C13_19  and  O4_20 
REMARK   13  A    between atoms: O4_20  and  P1_21 
REMARK   14  A    between atoms: P1_21  and  O6_23 
REMARK   15  A    between atoms: P1_21  and  O7_24 
REMARK   16  A    between atoms: O7_24  and  P2_25 
REMARK   17  A    between atoms: P2_25  and  O9_27 
REMARK   18  A    between atoms: P2_25  and  O10_28 
REMARK   19  A    between atoms: O10_28  and  C14_29 
REMARK   20  A    between atoms: C14_29  and  C15_30 
REMARK   21  A    between atoms: C16_31  and  O13_49 
REMARK   22  A    between atoms: C17_32  and  O12_48 
REMARK   23  A    between atoms: C18_33  and  N3_35 
REMARK   24  A    between atoms: C21_40  and  N7_47 
REMARK   25  A    between atoms: O13_49  and  P3_50 
REMARK   26  A    between atoms: P3_50  and  O15_52 
REMARK   27  A    between atoms: P3_50  and  O16_53 
ROOT
HETATM    1  C1  UNL     1       2.594  11.979  -2.214  1.00  0.00     0.104 C 
HETATM    2  C2  UNL     1       3.492  10.835  -1.855  1.00  0.00     0.182 C 
HETATM    3  O1  UNL     1       4.715  10.933  -1.788  1.00  0.00    -0.286 OA
ENDROOT
BRANCH   2   4
HETATM    4  S1  UNL     1       2.654   9.315  -1.575  1.00  0.00    -0.091 SA
BRANCH   4   5
HETATM    5  C3  UNL     1       3.712   8.596  -0.278  1.00  0.00     0.102 C 
BRANCH   5   6
HETATM    6  C4  UNL     1       4.918   7.862  -0.868  1.00  0.00     0.133 C 
BRANCH   6   7
HETATM    7  N1  UNL     1       6.031   7.781   0.055  1.00  0.00    -0.360 N 
HETATM    8  C5  UNL     1       7.175   7.081  -0.250  1.00  0.00     0.219 C 
HETATM    9  O2  UNL     1       7.291   6.421  -1.276  1.00  0.00    -0.274 OA
HETATM   10  H8  UNL     1       5.963   8.261   0.942  1.00  0.00     0.162 HD
BRANCH   8  11
HETATM   11  C6  UNL     1       8.236   7.170   0.825  1.00  0.00     0.122 C 
BRANCH  11  12
HETATM   12  C7  UNL     1       7.856   8.163   1.923  1.00  0.00     0.132 C 
BRANCH  12  13
HETATM   13  N2  UNL     1       8.666   9.363   1.908  1.00  0.00    -0.358 N 
HETATM   14  C8  UNL     1       8.185  10.522   1.327  1.00  0.00     0.247 C 
HETATM   15  O3  UNL     1       7.128  10.551   0.709  1.00  0.00    -0.271 OA
HETATM   16  H13 UNL     1       9.309   9.466   2.690  1.00  0.00     0.162 HD
BRANCH  14  17
HETATM   17  C9  UNL     1       9.067  11.762   1.537  1.00  0.00     0.219 C 
BRANCH  17  18
HETATM   18  C10 UNL     1       9.115  12.728   0.324  1.00  0.00     0.009 C 
HETATM   19  C11 UNL     1      10.161  13.838   0.511  1.00  0.00     0.020 C 
HETATM   20  C12 UNL     1       9.445  11.980  -0.983  1.00  0.00     0.020 C 
BRANCH  18  21
HETATM   21  C13 UNL     1       7.697  13.359   0.225  1.00  0.00     0.192 C 
BRANCH  21  22
HETATM   22  O4  UNL     1       7.131  13.212  -1.062  1.00  0.00    -0.296 OA
BRANCH  22  23
HETATM   23  P1  UNL     1       6.200  14.329  -1.737  1.00  0.00     0.401 P 
HETATM   24  O5  UNL     1       5.308  15.046  -0.774  1.00  0.00    -0.631 OA
BRANCH  23  25
HETATM   25  O6  UNL     1       5.410  13.610  -2.942  1.00  0.00    -0.307 OA
HETATM   26  H23 UNL     1       5.467  14.114  -3.763  1.00  0.00     0.222 HD
ENDBRANCH  23  25
BRANCH  23  27
HETATM   27  O7  UNL     1       7.202  15.268  -2.542  1.00  0.00    -0.195 OA
BRANCH  27  28
HETATM   28  P2  UNL     1       6.644  16.116  -3.769  1.00  0.00     0.401 P 
HETATM   29  O8  UNL     1       6.665  15.459  -5.111  1.00  0.00    -0.631 OA
BRANCH  28  30
HETATM   30  O9  UNL     1       5.187  16.553  -3.282  1.00  0.00    -0.307 OA
HETATM   31  H24 UNL     1       4.499  15.851  -3.386  1.00  0.00     0.222 HD
ENDBRANCH  28  30
BRANCH  28  32
HETATM   32  O10 UNL     1       7.419  17.508  -3.661  1.00  0.00    -0.294 OA
BRANCH  32  33
HETATM   33  C14 UNL     1       8.710  17.636  -4.199  1.00  0.00     0.215 C 
BRANCH  33  34
HETATM   34  C15 UNL     1       8.564  18.486  -5.460  1.00  0.00     0.180 C 
HETATM   35  C16 UNL     1       9.368  19.771  -5.311  1.00  0.00     0.197 C 
HETATM   36  C17 UNL     1       8.336  20.880  -5.381  1.00  0.00     0.199 C 
HETATM   37  C18 UNL     1       7.210  20.224  -6.183  1.00  0.00     0.262 C 
HETATM   38  O11 UNL     1       7.206  18.851  -5.734  1.00  0.00    -0.353 OA
BRANCH  35  39
HETATM   39  O13 UNL     1      10.299  19.835  -6.387  1.00  0.00    -0.286 OA
BRANCH  39  40
HETATM   40  P3  UNL     1      11.806  19.452  -6.017  1.00  0.00     0.391 P 
HETATM   41  O14 UNL     1      12.830  20.255  -6.753  1.00  0.00    -0.632 OA
BRANCH  40  42
HETATM   42  O15 UNL     1      11.784  17.872  -6.269  1.00  0.00    -0.307 OA
HETATM   43  H36 UNL     1      12.463  17.616  -6.937  1.00  0.00     0.222 HD
ENDBRANCH  40  42
BRANCH  40  44
HETATM   44  O16 UNL     1      11.781  19.566  -4.431  1.00  0.00    -0.307 OA
HETATM   45  H37 UNL     1      11.332  20.368  -4.119  1.00  0.00     0.222 HD
ENDBRANCH  40  44
ENDBRANCH  39  40
ENDBRANCH  35  39
BRANCH  36  46
HETATM   46  O12 UNL     1       8.921  22.068  -5.921  1.00  0.00    -0.388 OA
HETATM   47  H35 UNL     1       8.755  22.042  -6.893  1.00  0.00     0.210 HD
ENDBRANCH  36  46
BRANCH  37  48
HETATM   48  N3  UNL     1       5.914  20.809  -5.903  1.00  0.00    -0.297 N 
HETATM   49  C19 UNL     1       5.179  21.633  -6.723  1.00  0.00     0.188 A 
HETATM   50  N4  UNL     1       3.987  21.891  -6.232  1.00  0.00    -0.346 N 
HETATM   51  C20 UNL     1       3.944  21.197  -5.036  1.00  0.00     0.116 A 
HETATM   52  H4  UNL     1       3.256  22.474  -6.641  1.00  0.00     0.167 HD
HETATM   53  C21 UNL     1       2.941  21.031  -4.065  1.00  0.00     0.109 A 
HETATM   54  C23 UNL     1       5.146  20.554  -4.801  1.00  0.00     0.142 A 
HETATM   55  N5  UNL     1       3.215  20.280  -2.970  1.00  0.00    -0.341 N 
HETATM   56  C22 UNL     1       4.441  19.732  -2.863  1.00  0.00     0.183 A 
HETATM   57  H5  UNL     1       2.511  20.134  -2.247  1.00  0.00     0.167 HD
HETATM   58  N6  UNL     1       5.474  19.813  -3.727  1.00  0.00    -0.336 N 
HETATM   59  H6  UNL     1       6.383  19.372  -3.586  1.00  0.00     0.168 HD
BRANCH  53  60
HETATM   60  N7  UNL     1       1.683  21.605  -4.163  1.00  0.00    -0.287 NA
HETATM   61  H33 UNL     1       1.499  22.330  -3.474  1.00  0.00     0.125 HD
HETATM   62  H34 UNL     1       0.951  20.925  -4.317  1.00  0.00     0.125 HD
ENDBRANCH  53  60
ENDBRANCH  37  48
ENDBRANCH  33  34
ENDBRANCH  32  33
ENDBRANCH  28  32
ENDBRANCH  27  28
ENDBRANCH  23  27
ENDBRANCH  22  23
ENDBRANCH  21  22
ENDBRANCH  18  21
ENDBRANCH  17  18
BRANCH  17  63
HETATM   63  O17 UNL     1       8.623  12.494   2.684  1.00  0.00    -0.385 OA
HETATM   64  H38 UNL     1       7.664  12.629   2.604  1.00  0.00     0.210 HD
ENDBRANCH  17  63
ENDBRANCH  14  17
ENDBRANCH  12  13
ENDBRANCH  11  12
ENDBRANCH   8  11
ENDBRANCH   6   7
ENDBRANCH   5   6
ENDBRANCH   4   5
ENDBRANCH   2   4
TORSDOF 27
ENDMDL
MODEL 4
REMARK VINA RESULT:      -6.4      3.486     11.641
REMARK  27 active torsions:
REMARK  status: ('A' for Active; 'I' for Inactive)
REMARK    1  A    between atoms: C2_2  and  S1_4 
REMARK    2  A    between atoms: S1_4  and  C3_5 
REMARK    3  A    between atoms: C3_5  and  C4_6 
REMARK    4  A    between atoms: C4_6  and  N1_7 
REMARK       I    between atoms: N1_7  and  C5_8 
REMARK    5  A    between atoms: C5_8  and  C6_10 
REMARK    6  A    between atoms: C6_10  and  C7_11 
REMARK    7  A    between atoms: C7_11  and  N2_12 
REMARK       I    between atoms: N2_12  and  C8_13 
REMARK    8  A    between atoms: C8_13  and  C9_15 
REMARK    9  A    between atoms: C9_15  and  C10_16 
REMARK   10  A    between atoms: C9_15  and  O17_54 
REMARK   11  A    between atoms: C10_16  and  C13_19 
REMARK   12  A    between atoms: C13_19  and  O4_20 
REMARK   13  A    between atoms: O4_20  and  P1_21 
REMARK   14  A    between atoms: P1_21  and  O6_23 
REMARK   15  A    between atoms: P1_21  and  O7_24 
REMARK   16  A    between atoms: O7_24  and  P2_25 
REMARK   17  A    between atoms: P2_25  and  O9_27 
REMARK   18  A    between atoms: P2_25  and  O10_28 
REMARK   19  A    between atoms: O10_28  and  C14_29 
REMARK   20  A    between atoms: C14_29  and  C15_30 
REMARK   21  A    between atoms: C16_31  and  O13_49 
REMARK   22  A    between atoms: C17_32  and  O12_48 
REMARK   23  A    between atoms: C18_33  and  N3_35 
REMARK   24  A    between atoms: C21_40  and  N7_47 
REMARK   25  A    between atoms: O13_49  and  P3_50 
REMARK   26  A    between atoms: P3_50  and  O15_52 
REMARK   27  A    between atoms: P3_50  and  O16_53 
ROOT
HETATM    1  C1  UNL     1       6.342  21.903   0.380  1.00  0.00     0.104 C 
HETATM    2  C2  UNL     1       7.142  22.696  -0.608  1.00  0.00     0.182 C 
HETATM    3  O1  UNL     1       7.982  23.531  -0.281  1.00  0.00    -0.286 OA
ENDROOT
BRANCH   2   4
HETATM    4  S1  UNL     1       6.753  22.362  -2.291  1.00  0.00    -0.091 SA
BRANCH   4   5
HETATM    5  C3  UNL     1       5.813  20.812  -2.104  1.00  0.00     0.102 C 
BRANCH   5   6
HETATM    6  C4  UNL     1       4.358  20.971  -2.550  1.00  0.00     0.133 C 
BRANCH   6   7
HETATM    7  N1  UNL     1       4.215  21.864  -3.682  1.00  0.00    -0.360 N 
HETATM    8  C5  UNL     1       3.113  21.820  -4.504  1.00  0.00     0.219 C 
HETATM    9  O2  UNL     1       2.231  20.978  -4.381  1.00  0.00    -0.274 OA
HETATM   10  H8  UNL     1       4.944  22.541  -3.863  1.00  0.00     0.162 HD
BRANCH   8  11
HETATM   11  C6  UNL     1       3.134  22.873  -5.591  1.00  0.00     0.122 C 
BRANCH  11  12
HETATM   12  C7  UNL     1       3.959  22.431  -6.798  1.00  0.00     0.132 C 
BRANCH  12  13
HETATM   13  N2  UNL     1       4.668  21.188  -6.577  1.00  0.00    -0.358 N 
HETATM   14  C8  UNL     1       5.955  21.201  -6.070  1.00  0.00     0.247 C 
HETATM   15  O3  UNL     1       6.580  22.240  -5.904  1.00  0.00    -0.271 OA
HETATM   16  H13 UNL     1       4.085  20.386  -6.347  1.00  0.00     0.162 HD
BRANCH  14  17
HETATM   17  C9  UNL     1       6.522  19.817  -5.717  1.00  0.00     0.219 C 
BRANCH  17  18
HETATM   18  C10 UNL     1       5.514  18.649  -5.879  1.00  0.00     0.009 C 
HETATM   19  C11 UNL     1       4.121  19.141  -6.298  1.00  0.00     0.020 C 
HETATM   20  C12 UNL     1       5.994  17.630  -6.931  1.00  0.00     0.020 C 
BRANCH  18  21
HETATM   21  C13 UNL     1       5.429  17.963  -4.485  1.00  0.00     0.192 C 
BRANCH  21  22
HETATM   22  O4  UNL     1       4.943  16.639  -4.566  1.00  0.00    -0.296 OA
BRANCH  22  23
HETATM   23  P1  UNL     1       5.899  15.354  -4.484  1.00  0.00     0.401 P 
HETATM   24  O5  UNL     1       7.351  15.681  -4.338  1.00  0.00    -0.631 OA
BRANCH  23  25
HETATM   25  O6  UNL     1       5.563  14.442  -5.767  1.00  0.00    -0.307 OA
HETATM   26  H23 UNL     1       4.693  14.642  -6.136  1.00  0.00     0.222 HD
ENDBRANCH  23  25
BRANCH  23  27
HETATM   27  O7  UNL     1       5.296  14.467  -3.309  1.00  0.00    -0.195 OA
BRANCH  27  28
HETATM   28  P2  UNL     1       6.046  14.437  -1.904  1.00  0.00     0.401 P 
HETATM   29  O8  UNL     1       7.457  14.928  -1.879  1.00  0.00    -0.631 OA
BRANCH  28  30
HETATM   30  O9  UNL     1       5.059  15.245  -0.943  1.00  0.00    -0.307 OA
HETATM   31  H24 UNL     1       4.738  14.727  -0.166  1.00  0.00     0.222 HD
ENDBRANCH  28  30
BRANCH  28  32
HETATM   32  O10 UNL     1       5.816  12.948  -1.375  1.00  0.00    -0.294 OA
BRANCH  32  33
HETATM   33  C14 UNL     1       4.665  12.239  -1.752  1.00  0.00     0.215 C 
BRANCH  33  34
HETATM   34  C15 UNL     1       5.098  10.784  -1.923  1.00  0.00     0.180 C 
HETATM   35  C16 UNL     1       4.058   9.860  -1.303  1.00  0.00     0.197 C 
HETATM   36  C17 UNL     1       4.798   9.138  -0.194  1.00  0.00     0.199 C 
HETATM   37  C18 UNL     1       6.248   9.202  -0.678  1.00  0.00     0.262 C 
HETATM   38  O11 UNL     1       6.358  10.499  -1.305  1.00  0.00    -0.353 OA
BRANCH  35  39
HETATM   39  O13 UNL     1       3.602   8.967  -2.314  1.00  0.00    -0.286 OA
BRANCH  39  40
HETATM   40  P3  UNL     1       2.018   8.766  -2.393  1.00  0.00     0.391 P 
HETATM   41  O14 UNL     1       1.529   8.359  -3.746  1.00  0.00    -0.632 OA
BRANCH  40  42
HETATM   42  O15 UNL     1       1.509  10.167  -1.812  1.00  0.00    -0.307 OA
HETATM   43  H36 UNL     1       2.259  10.674  -1.418  1.00  0.00     0.222 HD
ENDBRANCH  40  42
BRANCH  40  44
HETATM   44  O16 UNL     1       1.767   7.761  -1.187  1.00  0.00    -0.307 OA
HETATM   45  H37 UNL     1       0.852   7.779  -0.866  1.00  0.00     0.222 HD
ENDBRANCH  40  44
ENDBRANCH  39  40
ENDBRANCH  35  39
BRANCH  36  46
HETATM   46  O12 UNL     1       4.233   7.841   0.017  1.00  0.00    -0.388 OA
HETATM   47  H35 UNL     1       4.682   7.468   0.813  1.00  0.00     0.210 HD
ENDBRANCH  36  46
BRANCH  37  48
HETATM   48  N3  UNL     1       7.202   9.128   0.411  1.00  0.00    -0.297 N 
HETATM   49  C19 UNL     1       7.669   7.993   1.031  1.00  0.00     0.188 A 
HETATM   50  N4  UNL     1       8.623   8.255   1.897  1.00  0.00    -0.346 N 
HETATM   51  C20 UNL     1       8.787   9.627   1.832  1.00  0.00     0.116 A 
HETATM   52  H4  UNL     1       9.130   7.594   2.486  1.00  0.00     0.167 HD
HETATM   53  C21 UNL     1       9.670  10.513   2.472  1.00  0.00     0.109 A 
HETATM   54  C23 UNL     1       7.886  10.185   0.943  1.00  0.00     0.142 A 
HETATM   55  N5  UNL     1       9.573  11.837   2.199  1.00  0.00    -0.341 N 
HETATM   56  C22 UNL     1       8.629  12.241   1.327  1.00  0.00     0.183 A 
HETATM   57  H5  UNL     1      10.199  12.510   2.642  1.00  0.00     0.167 HD
HETATM   58  N6  UNL     1       7.738  11.489   0.649  1.00  0.00    -0.336 N 
HETATM   59  H6  UNL     1       7.044  11.859  -0.001  1.00  0.00     0.168 HD
BRANCH  53  60
HETATM   60  N7  UNL     1      10.634  10.105   3.381  1.00  0.00    -0.287 NA
HETATM   61  H33 UNL     1      10.328  10.121   4.352  1.00  0.00     0.125 HD
HETATM   62  H34 UNL     1      11.548  10.489   3.186  1.00  0.00     0.125 HD
ENDBRANCH  53  60
ENDBRANCH  37  48
ENDBRANCH  33  34
ENDBRANCH  32  33
ENDBRANCH  28  32
ENDBRANCH  27  28
ENDBRANCH  23  27
ENDBRANCH  22  23
ENDBRANCH  21  22
ENDBRANCH  18  21
ENDBRANCH  17  18
BRANCH  17  63
HETATM   63  O17 UNL     1       7.674  19.538  -6.520  1.00  0.00    -0.385 OA
HETATM   64  H38 UNL     1       7.611  18.618  -6.828  1.00  0.00     0.210 HD
ENDBRANCH  17  63
ENDBRANCH  14  17
ENDBRANCH  12  13
ENDBRANCH  11  12
ENDBRANCH   8  11
ENDBRANCH   6   7
ENDBRANCH   5   6
ENDBRANCH   4   5
ENDBRANCH   2   4
TORSDOF 27
ENDMDL
MODEL 5
REMARK VINA RESULT:      -6.3      1.630      3.415
REMARK  27 active torsions:
REMARK  status: ('A' for Active; 'I' for Inactive)
REMARK    1  A    between atoms: C2_2  and  S1_4 
REMARK    2  A    between atoms: S1_4  and  C3_5 
REMARK    3  A    between atoms: C3_5  and  C4_6 
REMARK    4  A    between atoms: C4_6  and  N1_7 
REMARK       I    between atoms: N1_7  and  C5_8 
REMARK    5  A    between atoms: C5_8  and  C6_10 
REMARK    6  A    between atoms: C6_10  and  C7_11 
REMARK    7  A    between atoms: C7_11  and  N2_12 
REMARK       I    between atoms: N2_12  and  C8_13 
REMARK    8  A    between atoms: C8_13  and  C9_15 
REMARK    9  A    between atoms: C9_15  and  C10_16 
REMARK   10  A    between atoms: C9_15  and  O17_54 
REMARK   11  A    between atoms: C10_16  and  C13_19 
REMARK   12  A    between atoms: C13_19  and  O4_20 
REMARK   13  A    between atoms: O4_20  and  P1_21 
REMARK   14  A    between atoms: P1_21  and  O6_23 
REMARK   15  A    between atoms: P1_21  and  O7_24 
REMARK   16  A    between atoms: O7_24  and  P2_25 
REMARK   17  A    between atoms: P2_25  and  O9_27 
REMARK   18  A    between atoms: P2_25  and  O10_28 
REMARK   19  A    between atoms: O10_28  and  C14_29 
REMARK   20  A    between atoms: C14_29  and  C15_30 
REMARK   21  A    between atoms: C16_31  and  O13_49 
REMARK   22  A    between atoms: C17_32  and  O12_48 
REMARK   23  A    between atoms: C18_33  and  N3_35 
REMARK   24  A    between atoms: C21_40  and  N7_47 
REMARK   25  A    between atoms: O13_49  and  P3_50 
REMARK   26  A    between atoms: P3_50  and  O15_52 
REMARK   27  A    between atoms: P3_50  and  O16_53 
ROOT
HETATM    1  C1  UNL     1       4.676   8.733  -0.339  1.00  0.00     0.104 C 
HETATM    2  C2  UNL     1       6.030   8.196  -0.688  1.00  0.00     0.182 C 
HETATM    3  O1  UNL     1       6.679   8.582  -1.657  1.00  0.00    -0.286 OA
ENDROOT
BRANCH   2   4
HETATM    4  S1  UNL     1       6.605   6.927   0.384  1.00  0.00    -0.091 SA
BRANCH   4   5
HETATM    5  C3  UNL     1       8.270   7.558   0.769  1.00  0.00     0.102 C 
BRANCH   5   6
HETATM    6  C4  UNL     1       8.215   8.834   1.613  1.00  0.00     0.133 C 
BRANCH   6   7
HETATM    7  N1  UNL     1       8.907   9.945   0.994  1.00  0.00    -0.360 N 
HETATM    8  C5  UNL     1       8.239  11.072   0.575  1.00  0.00     0.219 C 
HETATM    9  O2  UNL     1       7.019  11.172   0.625  1.00  0.00    -0.274 OA
HETATM   10  H8  UNL     1       9.910   9.888   0.875  1.00  0.00     0.162 HD
BRANCH   8  11
HETATM   11  C6  UNL     1       9.154  12.135   0.007  1.00  0.00     0.122 C 
BRANCH  11  12
HETATM   12  C7  UNL     1       8.697  13.543   0.384  1.00  0.00     0.132 C 
BRANCH  12  13
HETATM   13  N2  UNL     1       7.376  13.863  -0.114  1.00  0.00    -0.358 N 
HETATM   14  C8  UNL     1       7.213  14.331  -1.405  1.00  0.00     0.247 C 
HETATM   15  O3  UNL     1       8.165  14.603  -2.125  1.00  0.00    -0.271 OA
HETATM   16  H13 UNL     1       6.614  13.318   0.283  1.00  0.00     0.162 HD
BRANCH  14  17
HETATM   17  C9  UNL     1       5.752  14.462  -1.863  1.00  0.00     0.219 C 
BRANCH  17  18
HETATM   18  C10 UNL     1       5.223  13.251  -2.675  1.00  0.00     0.009 C 
HETATM   19  C11 UNL     1       6.124  12.016  -2.526  1.00  0.00     0.020 C 
HETATM   20  C12 UNL     1       3.798  12.855  -2.236  1.00  0.00     0.020 C 
BRANCH  18  21
HETATM   21  C13 UNL     1       5.206  13.708  -4.162  1.00  0.00     0.192 C 
BRANCH  21  22
HETATM   22  O4  UNL     1       4.870  15.074  -4.301  1.00  0.00    -0.296 OA
BRANCH  22  23
HETATM   23  P1  UNL     1       5.529  16.024  -5.413  1.00  0.00     0.401 P 
HETATM   24  O5  UNL     1       5.238  15.610  -6.821  1.00  0.00    -0.631 OA
BRANCH  23  25
HETATM   25  O6  UNL     1       7.099  16.117  -5.074  1.00  0.00    -0.307 OA
HETATM   26  H23 UNL     1       7.291  16.818  -4.438  1.00  0.00     0.222 HD
ENDBRANCH  23  25
BRANCH  23  27
HETATM   27  O7  UNL     1       5.044  17.492  -5.038  1.00  0.00    -0.195 OA
BRANCH  27  28
HETATM   28  P2  UNL     1       5.194  17.992  -3.533  1.00  0.00     0.401 P 
HETATM   29  O8  UNL     1       4.562  17.148  -2.474  1.00  0.00    -0.631 OA
BRANCH  28  30
HETATM   30  O9  UNL     1       6.771  18.176  -3.363  1.00  0.00    -0.307 OA
HETATM   31  H24 UNL     1       7.044  18.520  -2.477  1.00  0.00     0.222 HD
ENDBRANCH  28  30
BRANCH  28  32
HETATM   32  O10 UNL     1       4.723  19.517  -3.583  1.00  0.00    -0.294 OA
BRANCH  32  33
HETATM   33  C14 UNL     1       5.335  20.468  -2.752  1.00  0.00     0.215 C 
BRANCH  33  34
HETATM   34  C15 UNL     1       5.557  21.709  -3.616  1.00  0.00     0.180 C 
HETATM   35  C16 UNL     1       4.882  21.524  -4.968  1.00  0.00     0.197 C 
HETATM   36  C17 UNL     1       6.016  21.572  -5.974  1.00  0.00     0.199 C 
HETATM   37  C18 UNL     1       7.071  22.397  -5.233  1.00  0.00     0.262 C 
HETATM   38  O11 UNL     1       6.943  21.983  -3.854  1.00  0.00    -0.353 OA
BRANCH  35  39
HETATM   39  O13 UNL     1       3.958  22.591  -5.149  1.00  0.00    -0.286 OA
BRANCH  39  40
HETATM   40  P3  UNL     1       2.476  22.157  -5.564  1.00  0.00     0.391 P 
HETATM   41  O14 UNL     1       2.344  21.755  -6.997  1.00  0.00    -0.632 OA
BRANCH  40  42
HETATM   42  O15 UNL     1       1.642  23.431  -5.072  1.00  0.00    -0.307 OA
HETATM   43  H36 UNL     1       1.854  24.221  -5.625  1.00  0.00     0.222 HD
ENDBRANCH  40  42
BRANCH  40  44
HETATM   44  O16 UNL     1       2.148  21.062  -4.459  1.00  0.00    -0.307 OA
HETATM   45  H37 UNL     1       2.399  21.342  -3.564  1.00  0.00     0.222 HD
ENDBRANCH  40  44
ENDBRANCH  39  40
ENDBRANCH  35  39
BRANCH  36  46
HETATM   46  O12 UNL     1       5.547  22.079  -7.226  1.00  0.00    -0.388 OA
HETATM   47  H35 UNL     1       6.058  21.606  -7.926  1.00  0.00     0.210 HD
ENDBRANCH  36  46
BRANCH  37  48
HETATM   48  N3  UNL     1       8.418  22.110  -5.682  1.00  0.00    -0.297 N 
HETATM   49  C19 UNL     1       9.355  23.013  -6.128  1.00  0.00     0.188 A 
HETATM   50  N4  UNL     1      10.525  22.453  -6.343  1.00  0.00    -0.346 N 
HETATM   51  C20 UNL     1      10.339  21.121  -6.015  1.00  0.00     0.116 A 
HETATM   52  H4  UNL     1      11.379  22.899  -6.676  1.00  0.00     0.167 HD
HETATM   53  C21 UNL     1      11.208  20.016  -5.988  1.00  0.00     0.109 A 
HETATM   54  C23 UNL     1       9.028  20.888  -5.642  1.00  0.00     0.142 A 
HETATM   55  N5  UNL     1      10.712  18.809  -5.623  1.00  0.00    -0.341 N 
HETATM   56  C22 UNL     1       9.404  18.726  -5.307  1.00  0.00     0.183 A 
HETATM   57  H5  UNL     1      11.312  17.985  -5.588  1.00  0.00     0.167 HD
HETATM   58  N6  UNL     1       8.483  19.711  -5.288  1.00  0.00    -0.336 N 
HETATM   59  H6  UNL     1       7.502  19.581  -5.038  1.00  0.00     0.168 HD
BRANCH  53  60
HETATM   60  N7  UNL     1      12.550  20.093  -6.326  1.00  0.00    -0.287 NA
HETATM   61  H33 UNL     1      12.818  20.963  -6.782  1.00  0.00     0.125 HD
HETATM   62  H34 UNL     1      12.904  19.238  -6.732  1.00  0.00     0.125 HD
ENDBRANCH  53  60
ENDBRANCH  37  48
ENDBRANCH  33  34
ENDBRANCH  32  33
ENDBRANCH  28  32
ENDBRANCH  27  28
ENDBRANCH  23  27
ENDBRANCH  22  23
ENDBRANCH  21  22
ENDBRANCH  18  21
ENDBRANCH  17  18
BRANCH  17  63
HETATM   63  O17 UNL     1       4.897  14.660  -0.733  1.00  0.00    -0.385 OA
HETATM   64  H38 UNL     1       4.619  15.591  -0.724  1.00  0.00     0.210 HD
ENDBRANCH  17  63
ENDBRANCH  14  17
ENDBRANCH  12  13
ENDBRANCH  11  12
ENDBRANCH   8  11
ENDBRANCH   6   7
ENDBRANCH   5   6
ENDBRANCH   4   5
ENDBRANCH   2   4
TORSDOF 27
ENDMDL
MODEL 6
REMARK VINA RESULT:      -6.2      2.840      4.796
REMARK  27 active torsions:
REMARK  status: ('A' for Active; 'I' for Inactive)
REMARK    1  A    between atoms: C2_2  and  S1_4 
REMARK    2  A    between atoms: S1_4  and  C3_5 
REMARK    3  A    between atoms: C3_5  and  C4_6 
REMARK    4  A    between atoms: C4_6  and  N1_7 
REMARK       I    between atoms: N1_7  and  C5_8 
REMARK    5  A    between atoms: C5_8  and  C6_10 
REMARK    6  A    between atoms: C6_10  and  C7_11 
REMARK    7  A    between atoms: C7_11  and  N2_12 
REMARK       I    between atoms: N2_12  and  C8_13 
REMARK    8  A    between atoms: C8_13  and  C9_15 
REMARK    9  A    between atoms: C9_15  and  C10_16 
REMARK   10  A    between atoms: C9_15  and  O17_54 
REMARK   11  A    between atoms: C10_16  and  C13_19 
REMARK   12  A    between atoms: C13_19  and  O4_20 
REMARK   13  A    between atoms: O4_20  and  P1_21 
REMARK   14  A    between atoms: P1_21  and  O6_23 
REMARK   15  A    between atoms: P1_21  and  O7_24 
REMARK   16  A    between atoms: O7_24  and  P2_25 
REMARK   17  A    between atoms: P2_25  and  O9_27 
REMARK   18  A    between atoms: P2_25  and  O10_28 
REMARK   19  A    between atoms: O10_28  and  C14_29 
REMARK   20  A    between atoms: C14_29  and  C15_30 
REMARK   21  A    between atoms: C16_31  and  O13_49 
REMARK   22  A    between atoms: C17_32  and  O12_48 
REMARK   23  A    between atoms: C18_33  and  N3_35 
REMARK   24  A    between atoms: C21_40  and  N7_47 
REMARK   25  A    between atoms: O13_49  and  P3_50 
REMARK   26  A    between atoms: P3_50  and  O15_52 
REMARK   27  A    between atoms: P3_50  and  O16_53 
ROOT
HETATM    1  C1  UNL     1       5.016  10.550  -1.539  1.00  0.00     0.104 C 
HETATM    2  C2  UNL     1       5.692   9.216  -1.617  1.00  0.00     0.182 C 
HETATM    3  O1  UNL     1       6.305   8.827  -2.609  1.00  0.00    -0.286 OA
ENDROOT
BRANCH   2   4
HETATM    4  S1  UNL     1       5.504   8.222  -0.179  1.00  0.00    -0.091 SA
BRANCH   4   5
HETATM    5  C3  UNL     1       6.747   6.932  -0.512  1.00  0.00     0.102 C 
BRANCH   5   6
HETATM    6  C4  UNL     1       7.980   7.084   0.380  1.00  0.00     0.133 C 
BRANCH   6   7
HETATM    7  N1  UNL     1       7.695   7.787   1.614  1.00  0.00    -0.360 N 
HETATM    8  C5  UNL     1       8.402   8.905   1.990  1.00  0.00     0.219 C 
HETATM    9  O2  UNL     1       9.360   9.326   1.353  1.00  0.00    -0.274 OA
HETATM   10  H8  UNL     1       6.951   7.445   2.207  1.00  0.00     0.162 HD
BRANCH   8  11
HETATM   11  C6  UNL     1       7.909   9.518   3.283  1.00  0.00     0.122 C 
BRANCH  11  12
HETATM   12  C7  UNL     1       8.638  10.820   3.612  1.00  0.00     0.132 C 
BRANCH  12  13
HETATM   13  N2  UNL     1       8.285  11.908   2.725  1.00  0.00    -0.358 N 
HETATM   14  C8  UNL     1       9.264  12.558   1.995  1.00  0.00     0.247 C 
HETATM   15  O3  UNL     1      10.456  12.327   2.154  1.00  0.00    -0.271 OA
HETATM   16  H13 UNL     1       7.356  11.853   2.313  1.00  0.00     0.162 HD
BRANCH  14  17
HETATM   17  C9  UNL     1       8.736  13.568   0.965  1.00  0.00     0.219 C 
BRANCH  17  18
HETATM   18  C10 UNL     1       9.005  13.180  -0.512  1.00  0.00     0.009 C 
HETATM   19  C11 UNL     1      10.496  13.269  -0.871  1.00  0.00     0.020 C 
HETATM   20  C12 UNL     1       8.529  11.745  -0.816  1.00  0.00     0.020 C 
BRANCH  18  21
HETATM   21  C13 UNL     1       8.199  14.194  -1.373  1.00  0.00     0.192 C 
BRANCH  21  22
HETATM   22  O4  UNL     1       6.890  13.740  -1.654  1.00  0.00    -0.296 OA
BRANCH  22  23
HETATM   23  P1  UNL     1       5.813  14.625  -2.447  1.00  0.00     0.401 P 
HETATM   24  O5  UNL     1       5.529  15.952  -1.817  1.00  0.00    -0.631 OA
BRANCH  23  25
HETATM   25  O6  UNL     1       4.507  13.705  -2.640  1.00  0.00    -0.307 OA
HETATM   26  H23 UNL     1       4.622  13.057  -3.347  1.00  0.00     0.222 HD
ENDBRANCH  23  25
BRANCH  23  27
HETATM   27  O7  UNL     1       6.362  14.701  -3.938  1.00  0.00    -0.195 OA
BRANCH  27  28
HETATM   28  P2  UNL     1       5.730  15.769  -4.937  1.00  0.00     0.401 P 
HETATM   29  O8  UNL     1       5.598  15.361  -6.369  1.00  0.00    -0.631 OA
BRANCH  28  30
HETATM   30  O9  UNL     1       4.345  16.150  -4.239  1.00  0.00    -0.307 OA
HETATM   31  H24 UNL     1       3.992  17.035  -4.501  1.00  0.00     0.222 HD
ENDBRANCH  28  30
BRANCH  28  32
HETATM   32  O10 UNL     1       6.572  17.098  -4.665  1.00  0.00    -0.294 OA
BRANCH  32  33
HETATM   33  C14 UNL     1       7.934  17.147  -5.001  1.00  0.00     0.215 C 
BRANCH  33  34
HETATM   34  C15 UNL     1       8.124  18.416  -5.830  1.00  0.00     0.180 C 
HETATM   35  C16 UNL     1       9.068  19.368  -5.107  1.00  0.00     0.197 C 
HETATM   36  C17 UNL     1       8.231  20.604  -4.832  1.00  0.00     0.199 C 
HETATM   37  C18 UNL     1       7.172  20.529  -5.934  1.00  0.00     0.262 C 
HETATM   38  O11 UNL     1       6.897  19.117  -6.069  1.00  0.00    -0.353 OA
BRANCH  35  39
HETATM   39  O13 UNL     1      10.164  19.644  -5.972  1.00  0.00    -0.286 OA
BRANCH  39  40
HETATM   40  P3  UNL     1      11.559  18.988  -5.548  1.00  0.00     0.391 P 
HETATM   41  O14 UNL     1      11.869  19.122  -4.092  1.00  0.00    -0.632 OA
BRANCH  40  42
HETATM   42  O15 UNL     1      12.550  19.696  -6.585  1.00  0.00    -0.307 OA
HETATM   43  H36 UNL     1      13.096  20.383  -6.133  1.00  0.00     0.222 HD
ENDBRANCH  40  42
BRANCH  40  44
HETATM   44  O16 UNL     1      11.409  17.519  -6.137  1.00  0.00    -0.307 OA
HETATM   45  H37 UNL     1      11.599  16.829  -5.481  1.00  0.00     0.222 HD
ENDBRANCH  40  44
ENDBRANCH  39  40
ENDBRANCH  35  39
BRANCH  36  46
HETATM   46  O12 UNL     1       9.062  21.767  -4.798  1.00  0.00    -0.388 OA
HETATM   47  H35 UNL     1       8.971  22.147  -3.891  1.00  0.00     0.210 HD
ENDBRANCH  36  46
BRANCH  37  48
HETATM   48  N3  UNL     1       5.945  21.210  -5.573  1.00  0.00    -0.297 N 
HETATM   49  C19 UNL     1       5.450  22.373  -6.115  1.00  0.00     0.188 A 
HETATM   50  N4  UNL     1       4.251  22.664  -5.661  1.00  0.00    -0.346 N 
HETATM   51  C20 UNL     1       3.951  21.636  -4.785  1.00  0.00     0.116 A 
HETATM   52  H4  UNL     1       3.670  23.468  -5.901  1.00  0.00     0.167 HD
HETATM   53  C21 UNL     1       2.812  21.342  -4.014  1.00  0.00     0.109 A 
HETATM   54  C23 UNL     1       5.008  20.749  -4.691  1.00  0.00     0.142 A 
HETATM   55  N5  UNL     1       2.828  20.239  -3.227  1.00  0.00    -0.341 N 
HETATM   56  C22 UNL     1       3.940  19.477  -3.219  1.00  0.00     0.183 A 
HETATM   57  H5  UNL     1       2.019  19.992  -2.657  1.00  0.00     0.167 HD
HETATM   58  N6  UNL     1       5.081  19.652  -3.917  1.00  0.00    -0.336 N 
HETATM   59  H6  UNL     1       5.891  19.035  -3.865  1.00  0.00     0.168 HD
BRANCH  53  60
HETATM   60  N7  UNL     1       1.672  22.130  -4.008  1.00  0.00    -0.287 NA
HETATM   61  H33 UNL     1       1.336  22.387  -4.934  1.00  0.00     0.125 HD
HETATM   62  H34 UNL     1       1.704  22.865  -3.315  1.00  0.00     0.125 HD
ENDBRANCH  53  60
ENDBRANCH  37  48
ENDBRANCH  33  34
ENDBRANCH  32  33
ENDBRANCH  28  32
ENDBRANCH  27  28
ENDBRANCH  23  27
ENDBRANCH  22  23
ENDBRANCH  21  22
ENDBRANCH  18  21
ENDBRANCH  17  18
BRANCH  17  63
HETATM   63  O17 UNL     1       7.327  13.755   1.136  1.00  0.00    -0.385 OA
HETATM   64  H38 UNL     1       6.880  12.928   0.888  1.00  0.00     0.210 HD
ENDBRANCH  17  63
ENDBRANCH  14  17
ENDBRANCH  12  13
ENDBRANCH  11  12
ENDBRANCH   8  11
ENDBRANCH   6   7
ENDBRANCH   5   6
ENDBRANCH   4   5
ENDBRANCH   2   4
TORSDOF 27
ENDMDL
MODEL 7
REMARK VINA RESULT:      -6.0      3.603     12.101
REMARK  27 active torsions:
REMARK  status: ('A' for Active; 'I' for Inactive)
REMARK    1  A    between atoms: C2_2  and  S1_4 
REMARK    2  A    between atoms: S1_4  and  C3_5 
REMARK    3  A    between atoms: C3_5  and  C4_6 
REMARK    4  A    between atoms: C4_6  and  N1_7 
REMARK       I    between atoms: N1_7  and  C5_8 
REMARK    5  A    between atoms: C5_8  and  C6_10 
REMARK    6  A    between atoms: C6_10  and  C7_11 
REMARK    7  A    between atoms: C7_11  and  N2_12 
REMARK       I    between atoms: N2_12  and  C8_13 
REMARK    8  A    between atoms: C8_13  and  C9_15 
REMARK    9  A    between atoms: C9_15  and  C10_16 
REMARK   10  A    between atoms: C9_15  and  O17_54 
REMARK   11  A    between atoms: C10_16  and  C13_19 
REMARK   12  A    between atoms: C13_19  and  O4_20 
REMARK   13  A    between atoms: O4_20  and  P1_21 
REMARK   14  A    between atoms: P1_21  and  O6_23 
REMARK   15  A    between atoms: P1_21  and  O7_24 
REMARK   16  A    between atoms: O7_24  and  P2_25 
REMARK   17  A    between atoms: P2_25  and  O9_27 
REMARK   18  A    between atoms: P2_25  and  O10_28 
REMARK   19  A    between atoms: O10_28  and  C14_29 
REMARK   20  A    between atoms: C14_29  and  C15_30 
REMARK   21  A    between atoms: C16_31  and  O13_49 
REMARK   22  A    between atoms: C17_32  and  O12_48 
REMARK   23  A    between atoms: C18_33  and  N3_35 
REMARK   24  A    between atoms: C21_40  and  N7_47 
REMARK   25  A    between atoms: O13_49  and  P3_50 
REMARK   26  A    between atoms: P3_50  and  O15_52 
REMARK   27  A    between atoms: P3_50  and  O16_53 
ROOT
HETATM    1  C1  UNL     1       5.510  21.617  -2.405  1.00  0.00     0.104 C 
HETATM    2  C2  UNL     1       6.753  22.108  -1.729  1.00  0.00     0.182 C 
HETATM    3  O1  UNL     1       7.150  21.676  -0.650  1.00  0.00    -0.286 OA
ENDROOT
BRANCH   2   4
HETATM    4  S1  UNL     1       7.587  23.394  -2.591  1.00  0.00    -0.091 SA
BRANCH   4   5
HETATM    5  C3  UNL     1       8.147  22.484  -4.067  1.00  0.00     0.102 C 
BRANCH   5   6
HETATM    6  C4  UNL     1       7.886  23.269  -5.354  1.00  0.00     0.133 C 
BRANCH   6   7
HETATM    7  N1  UNL     1       6.894  22.641  -6.201  1.00  0.00    -0.360 N 
HETATM    8  C5  UNL     1       5.551  22.902  -6.059  1.00  0.00     0.219 C 
HETATM    9  O2  UNL     1       5.107  23.612  -5.164  1.00  0.00    -0.274 OA
HETATM   10  H8  UNL     1       7.203  21.999  -6.919  1.00  0.00     0.162 HD
BRANCH   8  11
HETATM   11  C6  UNL     1       4.690  22.186  -7.078  1.00  0.00     0.122 C 
BRANCH  11  12
HETATM   12  C7  UNL     1       3.669  21.263  -6.416  1.00  0.00     0.132 C 
BRANCH  12  13
HETATM   13  N2  UNL     1       4.275  20.284  -5.538  1.00  0.00    -0.358 N 
HETATM   14  C8  UNL     1       4.545  19.008  -5.998  1.00  0.00     0.247 C 
HETATM   15  O3  UNL     1       4.183  18.624  -7.103  1.00  0.00    -0.271 OA
HETATM   16  H13 UNL     1       4.891  20.660  -4.821  1.00  0.00     0.162 HD
BRANCH  14  17
HETATM   17  C9  UNL     1       5.347  18.129  -5.027  1.00  0.00     0.219 C 
BRANCH  17  18
HETATM   18  C10 UNL     1       6.886  18.228  -5.190  1.00  0.00     0.009 C 
HETATM   19  C11 UNL     1       7.285  18.860  -6.532  1.00  0.00     0.020 C 
HETATM   20  C12 UNL     1       7.522  19.066  -4.062  1.00  0.00     0.020 C 
BRANCH  18  21
HETATM   21  C13 UNL     1       7.417  16.767  -5.122  1.00  0.00     0.192 C 
BRANCH  21  22
HETATM   22  O4  UNL     1       6.428  15.854  -4.692  1.00  0.00    -0.296 OA
BRANCH  22  23
HETATM   23  P1  UNL     1       6.341  15.310  -3.186  1.00  0.00     0.401 P 
HETATM   24  O5  UNL     1       5.656  16.242  -2.237  1.00  0.00    -0.631 OA
BRANCH  23  25
HETATM   25  O6  UNL     1       7.840  14.921  -2.745  1.00  0.00    -0.307 OA
HETATM   26  H23 UNL     1       7.894  14.018  -2.407  1.00  0.00     0.222 HD
ENDBRANCH  23  25
BRANCH  23  27
HETATM   27  O7  UNL     1       5.671  13.872  -3.307  1.00  0.00    -0.195 OA
BRANCH  27  28
HETATM   28  P2  UNL     1       5.161  13.147  -1.983  1.00  0.00     0.401 P 
HETATM   29  O8  UNL     1       4.638  14.022  -0.891  1.00  0.00    -0.631 OA
BRANCH  28  30
HETATM   30  O9  UNL     1       4.101  12.086  -2.532  1.00  0.00    -0.307 OA
HETATM   31  H24 UNL     1       3.224  12.120  -2.077  1.00  0.00     0.222 HD
ENDBRANCH  28  30
BRANCH  28  32
HETATM   32  O10 UNL     1       6.366  12.179  -1.584  1.00  0.00    -0.294 OA
BRANCH  32  33
HETATM   33  C14 UNL     1       7.022  12.344  -0.354  1.00  0.00     0.215 C 
BRANCH  33  34
HETATM   34  C15 UNL     1       7.972  11.156  -0.214  1.00  0.00     0.180 C 
HETATM   35  C16 UNL     1       7.176   9.888   0.065  1.00  0.00     0.197 C 
HETATM   36  C17 UNL     1       7.646   9.432   1.432  1.00  0.00     0.199 C 
HETATM   37  C18 UNL     1       9.048  10.042   1.512  1.00  0.00     0.262 C 
HETATM   38  O11 UNL     1       8.918  11.319   0.849  1.00  0.00    -0.353 OA
BRANCH  35  39
HETATM   39  O13 UNL     1       7.483   8.941  -0.953  1.00  0.00    -0.286 OA
BRANCH  39  40
HETATM   40  P3  UNL     1       6.231   8.377  -1.771  1.00  0.00     0.391 P 
HETATM   41  O14 UNL     1       6.536   8.064  -3.200  1.00  0.00    -0.632 OA
BRANCH  40  42
HETATM   42  O15 UNL     1       5.144   9.513  -1.476  1.00  0.00    -0.307 OA
HETATM   43  H36 UNL     1       4.232   9.138  -1.501  1.00  0.00     0.222 HD
ENDBRANCH  40  42
BRANCH  40  44
HETATM   44  O16 UNL     1       5.761   7.177  -0.839  1.00  0.00    -0.307 OA
HETATM   45  H37 UNL     1       6.102   7.248   0.067  1.00  0.00     0.222 HD
ENDBRANCH  40  44
ENDBRANCH  39  40
ENDBRANCH  35  39
BRANCH  36  46
HETATM   46  O12 UNL     1       7.542   8.010   1.543  1.00  0.00    -0.388 OA
HETATM   47  H35 UNL     1       7.732   7.790   2.486  1.00  0.00     0.210 HD
ENDBRANCH  36  46
BRANCH  37  48
HETATM   48  N3  UNL     1       9.479  10.268   2.877  1.00  0.00    -0.297 N 
HETATM   49  C19 UNL     1      10.736  10.061   3.396  1.00  0.00     0.188 A 
HETATM   50  N4  UNL     1      10.838  10.482   4.638  1.00  0.00    -0.346 N 
HETATM   51  C20 UNL     1       9.587  10.991   4.938  1.00  0.00     0.116 A 
HETATM   52  H4  UNL     1      11.656  10.442   5.245  1.00  0.00     0.167 HD
HETATM   53  C21 UNL     1       9.063  11.621   6.080  1.00  0.00     0.109 A 
HETATM   54  C23 UNL     1       8.724  10.829   3.869  1.00  0.00     0.142 A 
HETATM   55  N5  UNL     1       7.764  12.007   6.069  1.00  0.00    -0.341 N 
HETATM   56  C22 UNL     1       7.034  11.763   4.963  1.00  0.00     0.183 A 
HETATM   57  H5  UNL     1       7.349  12.471   6.878  1.00  0.00     0.167 HD
HETATM   58  N6  UNL     1       7.427  11.178   3.813  1.00  0.00    -0.336 N 
HETATM   59  H6  UNL     1       6.821  11.021   3.007  1.00  0.00     0.168 HD
BRANCH  53  60
HETATM   60  N7  UNL     1       9.805  11.862   7.225  1.00  0.00    -0.287 NA
HETATM   61  H33 UNL     1       9.881  12.845   7.476  1.00  0.00     0.125 HD
HETATM   62  H34 UNL     1      10.653  11.314   7.268  1.00  0.00     0.125 HD
ENDBRANCH  53  60
ENDBRANCH  37  48
ENDBRANCH  33  34
ENDBRANCH  32  33
ENDBRANCH  28  32
ENDBRANCH  27  28
ENDBRANCH  23  27
ENDBRANCH  22  23
ENDBRANCH  21  22
ENDBRANCH  18  21
ENDBRANCH  17  18
BRANCH  17  63
HETATM   63  O17 UNL     1       5.011  18.457  -3.674  1.00  0.00    -0.385 OA
HETATM   64  H38 UNL     1       4.577  19.326  -3.673  1.00  0.00     0.210 HD
ENDBRANCH  17  63
ENDBRANCH  14  17
ENDBRANCH  12  13
ENDBRANCH  11  12
ENDBRANCH   8  11
ENDBRANCH   6   7
ENDBRANCH   5   6
ENDBRANCH   4   5
ENDBRANCH   2   4
TORSDOF 27
ENDMDL
MODEL 8
REMARK VINA RESULT:      -5.6      3.725     11.745
REMARK  27 active torsions:
REMARK  status: ('A' for Active; 'I' for Inactive)
REMARK    1  A    between atoms: C2_2  and  S1_4 
REMARK    2  A    between atoms: S1_4  and  C3_5 
REMARK    3  A    between atoms: C3_5  and  C4_6 
REMARK    4  A    between atoms: C4_6  and  N1_7 
REMARK       I    between atoms: N1_7  and  C5_8 
REMARK    5  A    between atoms: C5_8  and  C6_10 
REMARK    6  A    between atoms: C6_10  and  C7_11 
REMARK    7  A    between atoms: C7_11  and  N2_12 
REMARK       I    between atoms: N2_12  and  C8_13 
REMARK    8  A    between atoms: C8_13  and  C9_15 
REMARK    9  A    between atoms: C9_15  and  C10_16 
REMARK   10  A    between atoms: C9_15  and  O17_54 
REMARK   11  A    between atoms: C10_16  and  C13_19 
REMARK   12  A    between atoms: C13_19  and  O4_20 
REMARK   13  A    between atoms: O4_20  and  P1_21 
REMARK   14  A    between atoms: P1_21  and  O6_23 
REMARK   15  A    between atoms: P1_21  and  O7_24 
REMARK   16  A    between atoms: O7_24  and  P2_25 
REMARK   17  A    between atoms: P2_25  and  O9_27 
REMARK   18  A    between atoms: P2_25  and  O10_28 
REMARK   19  A    between atoms: O10_28  and  C14_29 
REMARK   20  A    between atoms: C14_29  and  C15_30 
REMARK   21  A    between atoms: C16_31  and  O13_49 
REMARK   22  A    between atoms: C17_32  and  O12_48 
REMARK   23  A    between atoms: C18_33  and  N3_35 
REMARK   24  A    between atoms: C21_40  and  N7_47 
REMARK   25  A    between atoms: O13_49  and  P3_50 
REMARK   26  A    between atoms: P3_50  and  O15_52 
REMARK   27  A    between atoms: P3_50  and  O16_53 
ROOT
HETATM    1  C1  UNL     1       4.154  17.118  -7.863  1.00  0.00     0.104 C 
HETATM    2  C2  UNL     1       4.373  18.485  -7.291  1.00  0.00     0.182 C 
HETATM    3  O1  UNL     1       3.759  18.916  -6.317  1.00  0.00    -0.286 OA
ENDROOT
BRANCH   2   4
HETATM    4  S1  UNL     1       5.561  19.451  -8.155  1.00  0.00    -0.091 SA
BRANCH   4   5
HETATM    5  C3  UNL     1       5.406  21.031  -7.262  1.00  0.00     0.102 C 
BRANCH   5   6
HETATM    6  C4  UNL     1       4.639  22.074  -8.077  1.00  0.00     0.133 C 
BRANCH   6   7
HETATM    7  N1  UNL     1       3.814  22.933  -7.252  1.00  0.00    -0.360 N 
HETATM    8  C5  UNL     1       2.517  22.604  -6.934  1.00  0.00     0.219 C 
HETATM    9  O2  UNL     1       1.957  21.613  -7.390  1.00  0.00    -0.274 OA
HETATM   10  H8  UNL     1       4.210  23.793  -6.898  1.00  0.00     0.162 HD
BRANCH   8  11
HETATM   11  C6  UNL     1       1.851  23.607  -6.018  1.00  0.00     0.122 C 
BRANCH  11  12
HETATM   12  C7  UNL     1       1.979  23.211  -4.548  1.00  0.00     0.132 C 
BRANCH  12  13
HETATM   13  N2  UNL     1       2.466  21.860  -4.365  1.00  0.00    -0.358 N 
HETATM   14  C8  UNL     1       3.816  21.625  -4.180  1.00  0.00     0.247 C 
HETATM   15  O3  UNL     1       4.652  22.514  -4.281  1.00  0.00    -0.271 OA
HETATM   16  H13 UNL     1       1.816  21.217  -3.917  1.00  0.00     0.162 HD
BRANCH  14  17
HETATM   17  C9  UNL     1       4.174  20.175  -3.822  1.00  0.00     0.219 C 
BRANCH  17  18
HETATM   18  C10 UNL     1       5.431  20.026  -2.924  1.00  0.00     0.009 C 
HETATM   19  C11 UNL     1       6.726  20.348  -3.684  1.00  0.00     0.020 C 
HETATM   20  C12 UNL     1       5.359  20.953  -1.694  1.00  0.00     0.020 C 
BRANCH  18  21
HETATM   21  C13 UNL     1       5.452  18.541  -2.462  1.00  0.00     0.192 C 
BRANCH  21  22
HETATM   22  O4  UNL     1       6.292  17.739  -3.266  1.00  0.00    -0.296 OA
BRANCH  22  23
HETATM   23  P1  UNL     1       5.742  16.533  -4.168  1.00  0.00     0.401 P 
HETATM   24  O5  UNL     1       6.508  16.318  -5.435  1.00  0.00    -0.631 OA
BRANCH  23  25
HETATM   25  O6  UNL     1       4.171  16.802  -4.397  1.00  0.00    -0.307 OA
HETATM   26  H23 UNL     1       3.870  17.597  -3.938  1.00  0.00     0.222 HD
ENDBRANCH  23  25
BRANCH  23  27
HETATM   27  O7  UNL     1       5.702  15.276  -3.194  1.00  0.00    -0.195 OA
BRANCH  27  28
HETATM   28  P2  UNL     1       4.995  13.938  -3.693  1.00  0.00     0.401 P 
HETATM   29  O8  UNL     1       3.504  13.950  -3.775  1.00  0.00    -0.631 OA
BRANCH  28  30
HETATM   30  O9  UNL     1       5.721  13.636  -5.082  1.00  0.00    -0.307 OA
HETATM   31  H24 UNL     1       5.139  13.743  -5.874  1.00  0.00     0.222 HD
ENDBRANCH  28  30
BRANCH  28  32
HETATM   32  O10 UNL     1       5.634  12.799  -2.774  1.00  0.00    -0.294 OA
BRANCH  32  33
HETATM   33  C14 UNL     1       4.837  12.120  -1.840  1.00  0.00     0.215 C 
BRANCH  33  34
HETATM   34  C15 UNL     1       5.217  10.644  -1.945  1.00  0.00     0.180 C 
HETATM   35  C16 UNL     1       4.142   9.787  -1.291  1.00  0.00     0.197 C 
HETATM   36  C17 UNL     1       4.851   9.088  -0.147  1.00  0.00     0.199 C 
HETATM   37  C18 UNL     1       6.305   9.078  -0.626  1.00  0.00     0.262 C 
HETATM   38  O11 UNL     1       6.463  10.341  -1.309  1.00  0.00    -0.353 OA
BRANCH  35  39
HETATM   39  O13 UNL     1       3.657   8.868  -2.264  1.00  0.00    -0.286 OA
BRANCH  39  40
HETATM   40  P3  UNL     1       2.067   8.718  -2.340  1.00  0.00     0.391 P 
HETATM   41  O14 UNL     1       1.544   8.544  -3.729  1.00  0.00    -0.632 OA
BRANCH  40  42
HETATM   42  O15 UNL     1       1.606  10.020  -1.532  1.00  0.00    -0.307 OA
HETATM   43  H36 UNL     1       1.997  10.025  -0.627  1.00  0.00     0.222 HD
ENDBRANCH  40  42
BRANCH  40  44
HETATM   44  O16 UNL     1       1.812   7.540  -1.303  1.00  0.00    -0.307 OA
HETATM   45  H37 UNL     1       1.006   7.669  -0.778  1.00  0.00     0.222 HD
ENDBRANCH  40  44
ENDBRANCH  39  40
ENDBRANCH  35  39
BRANCH  36  46
HETATM   46  O12 UNL     1       4.239   7.823   0.118  1.00  0.00    -0.388 OA
HETATM   47  H35 UNL     1       4.932   7.261   0.538  1.00  0.00     0.210 HD
ENDBRANCH  36  46
BRANCH  37  48
HETATM   48  N3  UNL     1       7.252   9.018   0.469  1.00  0.00    -0.297 N 
HETATM   49  C19 UNL     1       7.718   7.890   1.104  1.00  0.00     0.188 A 
HETATM   50  N4  UNL     1       8.665   8.163   1.974  1.00  0.00    -0.346 N 
HETATM   51  C20 UNL     1       8.825   9.536   1.896  1.00  0.00     0.116 A 
HETATM   52  H4  UNL     1       9.170   7.510   2.573  1.00  0.00     0.167 HD
HETATM   53  C21 UNL     1       9.702  10.431   2.534  1.00  0.00     0.109 A 
HETATM   54  C23 UNL     1       7.928  10.082   0.996  1.00  0.00     0.142 A 
HETATM   55  N5  UNL     1       9.603  11.752   2.247  1.00  0.00    -0.341 N 
HETATM   56  C22 UNL     1       8.663  12.144   1.365  1.00  0.00     0.183 A 
HETATM   57  H5  UNL     1      10.224  12.430   2.687  1.00  0.00     0.167 HD
HETATM   58  N6  UNL     1       7.778  11.382   0.688  1.00  0.00    -0.336 N 
HETATM   59  H6  UNL     1       7.088  11.744   0.030  1.00  0.00     0.168 HD
BRANCH  53  60
HETATM   60  N7  UNL     1      10.660  10.034   3.453  1.00  0.00    -0.287 NA
HETATM   61  H33 UNL     1      10.992   9.080   3.327  1.00  0.00     0.125 HD
HETATM   62  H34 UNL     1      10.443  10.319   4.398  1.00  0.00     0.125 HD
ENDBRANCH  53  60
ENDBRANCH  37  48
ENDBRANCH  33  34
ENDBRANCH  32  33
ENDBRANCH  28  32
ENDBRANCH  27  28
ENDBRANCH  23  27
ENDBRANCH  22  23
ENDBRANCH  21  22
ENDBRANCH  18  21
ENDBRANCH  17  18
BRANCH  17  63
HETATM   63  O17 UNL     1       3.070  19.542  -3.166  1.00  0.00    -0.385 OA
HETATM   64  H38 UNL     1       2.713  18.863  -3.764  1.00  0.00     0.210 HD
ENDBRANCH  17  63
ENDBRANCH  14  17
ENDBRANCH  12  13
ENDBRANCH  11  12
ENDBRANCH   8  11
ENDBRANCH   6   7
ENDBRANCH   5   6
ENDBRANCH   4   5
ENDBRANCH   2   4
TORSDOF 27
ENDMDL
MODEL 9
REMARK VINA RESULT:      -5.3      3.806     11.985
REMARK  27 active torsions:
REMARK  status: ('A' for Active; 'I' for Inactive)
REMARK    1  A    between atoms: C2_2  and  S1_4 
REMARK    2  A    between atoms: S1_4  and  C3_5 
REMARK    3  A    between atoms: C3_5  and  C4_6 
REMARK    4  A    between atoms: C4_6  and  N1_7 
REMARK       I    between atoms: N1_7  and  C5_8 
REMARK    5  A    between atoms: C5_8  and  C6_10 
REMARK    6  A    between atoms: C6_10  and  C7_11 
REMARK    7  A    between atoms: C7_11  and  N2_12 
REMARK       I    between atoms: N2_12  and  C8_13 
REMARK    8  A    between atoms: C8_13  and  C9_15 
REMARK    9  A    between atoms: C9_15  and  C10_16 
REMARK   10  A    between atoms: C9_15  and  O17_54 
REMARK   11  A    between atoms: C10_16  and  C13_19 
REMARK   12  A    between atoms: C13_19  and  O4_20 
REMARK   13  A    between atoms: O4_20  and  P1_21 
REMARK   14  A    between atoms: P1_21  and  O6_23 
REMARK   15  A    between atoms: P1_21  and  O7_24 
REMARK   16  A    between atoms: O7_24  and  P2_25 
REMARK   17  A    between atoms: P2_25  and  O9_27 
REMARK   18  A    between atoms: P2_25  and  O10_28 
REMARK   19  A    between atoms: O10_28  and  C14_29 
REMARK   20  A    between atoms: C14_29  and  C15_30 
REMARK   21  A    between atoms: C16_31  and  O13_49 
REMARK   22  A    between atoms: C17_32  and  O12_48 
REMARK   23  A    between atoms: C18_33  and  N3_35 
REMARK   24  A    between atoms: C21_40  and  N7_47 
REMARK   25  A    between atoms: O13_49  and  P3_50 
REMARK   26  A    between atoms: P3_50  and  O15_52 
REMARK   27  A    between atoms: P3_50  and  O16_53 
ROOT
HETATM    1  C1  UNL     1       4.172  16.947  -7.816  1.00  0.00     0.104 C 
HETATM    2  C2  UNL     1       4.423  18.287  -7.195  1.00  0.00     0.182 C 
HETATM    3  O1  UNL     1       3.685  18.786  -6.349  1.00  0.00    -0.286 OA
ENDROOT
BRANCH   2   4
HETATM    4  S1  UNL     1       5.848  19.115  -7.806  1.00  0.00    -0.091 SA
BRANCH   4   5
HETATM    5  C3  UNL     1       5.627  20.751  -7.036  1.00  0.00     0.102 C 
BRANCH   5   6
HETATM    6  C4  UNL     1       4.849  21.707  -7.942  1.00  0.00     0.133 C 
BRANCH   6   7
HETATM    7  N1  UNL     1       4.090  22.691  -7.197  1.00  0.00    -0.360 N 
HETATM    8  C5  UNL     1       2.769  22.491  -6.871  1.00  0.00     0.219 C 
HETATM    9  O2  UNL     1       2.135  21.515  -7.255  1.00  0.00    -0.274 OA
HETATM   10  H8  UNL     1       4.551  23.542  -6.906  1.00  0.00     0.162 HD
BRANCH   8  11
HETATM   11  C6  UNL     1       2.179  23.613  -6.044  1.00  0.00     0.122 C 
BRANCH  11  12
HETATM   12  C7  UNL     1       1.959  23.196  -4.590  1.00  0.00     0.132 C 
BRANCH  12  13
HETATM   13  N2  UNL     1       2.267  21.803  -4.347  1.00  0.00    -0.358 N 
HETATM   14  C8  UNL     1       3.552  21.422  -4.005  1.00  0.00     0.247 C 
HETATM   15  O3  UNL     1       4.488  22.211  -4.011  1.00  0.00    -0.271 OA
HETATM   16  H13 UNL     1       1.502  21.243  -3.975  1.00  0.00     0.162 HD
BRANCH  14  17
HETATM   17  C9  UNL     1       3.701  19.948  -3.602  1.00  0.00     0.219 C 
BRANCH  17  18
HETATM   18  C10 UNL     1       5.060  19.597  -2.939  1.00  0.00     0.009 C 
HETATM   19  C11 UNL     1       6.242  19.817  -3.894  1.00  0.00     0.020 C 
HETATM   20  C12 UNL     1       5.306  20.444  -1.674  1.00  0.00     0.020 C 
BRANCH  18  21
HETATM   21  C13 UNL     1       4.971  18.093  -2.554  1.00  0.00     0.192 C 
BRANCH  21  22
HETATM   22  O4  UNL     1       4.490  17.293  -3.616  1.00  0.00    -0.296 OA
BRANCH  22  23
HETATM   23  P1  UNL     1       5.056  15.825  -3.926  1.00  0.00     0.401 P 
HETATM   24  O5  UNL     1       6.084  15.783  -5.013  1.00  0.00    -0.631 OA
BRANCH  23  25
HETATM   25  O6  UNL     1       3.780  14.883  -4.202  1.00  0.00    -0.307 OA
HETATM   26  H23 UNL     1       2.952  15.380  -4.180  1.00  0.00     0.222 HD
ENDBRANCH  23  25
BRANCH  23  27
HETATM   27  O7  UNL     1       5.552  15.270  -2.520  1.00  0.00    -0.195 OA
BRANCH  27  28
HETATM   28  P2  UNL     1       5.477  13.704  -2.241  1.00  0.00     0.401 P 
HETATM   29  O8  UNL     1       4.175  13.166  -1.743  1.00  0.00    -0.631 OA
BRANCH  28  30
HETATM   30  O9  UNL     1       5.961  13.062  -3.621  1.00  0.00    -0.307 OA
HETATM   31  H24 UNL     1       6.370  12.167  -3.528  1.00  0.00     0.222 HD
ENDBRANCH  28  30
BRANCH  28  32
HETATM   32  O10 UNL     1       6.749  13.414  -1.320  1.00  0.00    -0.294 OA
BRANCH  32  33
HETATM   33  C14 UNL     1       6.604  12.680  -0.133  1.00  0.00     0.215 C 
BRANCH  33  34
HETATM   34  C15 UNL     1       7.651  11.569  -0.188  1.00  0.00     0.180 C 
HETATM   35  C16 UNL     1       6.972  10.213  -0.045  1.00  0.00     0.197 C 
HETATM   36  C17 UNL     1       7.546   9.628   1.232  1.00  0.00     0.199 C 
HETATM   37  C18 UNL     1       8.897  10.340   1.334  1.00  0.00     0.262 C 
HETATM   38  O11 UNL     1       8.634  11.675   0.849  1.00  0.00    -0.353 OA
BRANCH  35  39
HETATM   39  O13 UNL     1       7.301   9.432  -1.189  1.00  0.00    -0.286 OA
BRANCH  39  40
HETATM   40  P3  UNL     1       6.060   8.950  -2.074  1.00  0.00     0.391 P 
HETATM   41  O14 UNL     1       6.455   8.220  -3.317  1.00  0.00    -0.632 OA
BRANCH  40  42
HETATM   42  O15 UNL     1       5.262  10.326  -2.245  1.00  0.00    -0.307 OA
HETATM   43  H36 UNL     1       4.982  10.678  -1.367  1.00  0.00     0.222 HD
ENDBRANCH  40  42
BRANCH  40  44
HETATM   44  O16 UNL     1       5.194   8.160  -1.000  1.00  0.00    -0.307 OA
HETATM   45  H37 UNL     1       5.738   7.722  -0.327  1.00  0.00     0.222 HD
ENDBRANCH  40  44
ENDBRANCH  39  40
ENDBRANCH  35  39
BRANCH  36  46
HETATM   46  O12 UNL     1       7.559   8.200   1.160  1.00  0.00    -0.388 OA
HETATM   47  H35 UNL     1       8.366   7.955   0.647  1.00  0.00     0.210 HD
ENDBRANCH  36  46
BRANCH  37  48
HETATM   48  N3  UNL     1       9.378  10.427   2.699  1.00  0.00    -0.297 N 
HETATM   49  C19 UNL     1      10.654  10.178   3.147  1.00  0.00     0.188 A 
HETATM   50  N4  UNL     1      10.800  10.468   4.421  1.00  0.00    -0.346 N 
HETATM   51  C20 UNL     1       9.559  10.933   4.818  1.00  0.00     0.116 A 
HETATM   52  H4  UNL     1      11.641  10.373   4.991  1.00  0.00     0.167 HD
HETATM   53  C21 UNL     1       9.075  11.437   6.037  1.00  0.00     0.109 A 
HETATM   54  C23 UNL     1       8.658  10.876   3.770  1.00  0.00     0.142 A 
HETATM   55  N5  UNL     1       7.774  11.811   6.115  1.00  0.00    -0.341 N 
HETATM   56  C22 UNL     1       7.005  11.677   5.017  1.00  0.00     0.183 A 
HETATM   57  H5  UNL     1       7.389  12.185   6.982  1.00  0.00     0.167 HD
HETATM   58  N6  UNL     1       7.358  11.218   3.798  1.00  0.00    -0.336 N 
HETATM   59  H6  UNL     1       6.722  11.140   3.004  1.00  0.00     0.168 HD
BRANCH  53  60
HETATM   60  N7  UNL     1       9.858  11.564   7.174  1.00  0.00    -0.287 NA
HETATM   61  H33 UNL     1      10.432  12.404   7.196  1.00  0.00     0.125 HD
HETATM   62  H34 UNL     1      10.306  10.699   7.443  1.00  0.00     0.125 HD
ENDBRANCH  53  60
ENDBRANCH  37  48
ENDBRANCH  33  34
ENDBRANCH  32  33
ENDBRANCH  28  32
ENDBRANCH  27  28
ENDBRANCH  23  27
ENDBRANCH  22  23
ENDBRANCH  21  22
ENDBRANCH  18  21
ENDBRANCH  17  18
BRANCH  17  63
HETATM   63  O17 UNL     1       2.649  19.572  -2.707  1.00  0.00    -0.385 OA
HETATM   64  H38 UNL     1       3.006  19.575  -1.803  1.00  0.00     0.210 HD
ENDBRANCH  17  63
ENDBRANCH  14  17
ENDBRANCH  12  13
ENDBRANCH  11  12
ENDBRANCH   8  11
ENDBRANCH   6   7
ENDBRANCH   5   6
ENDBRANCH   4   5
ENDBRANCH   2   4
TORSDOF 27
ENDMDL
MODEL 10
REMARK VINA RESULT:      -5.2      1.704      3.027
REMARK  27 active torsions:
REMARK  status: ('A' for Active; 'I' for Inactive)
REMARK    1  A    between atoms: C2_2  and  S1_4 
REMARK    2  A    between atoms: S1_4  and  C3_5 
REMARK    3  A    between atoms: C3_5  and  C4_6 
REMARK    4  A    between atoms: C4_6  and  N1_7 
REMARK       I    between atoms: N1_7  and  C5_8 
REMARK    5  A    between atoms: C5_8  and  C6_10 
REMARK    6  A    between atoms: C6_10  and  C7_11 
REMARK    7  A    between atoms: C7_11  and  N2_12 
REMARK       I    between atoms: N2_12  and  C8_13 
REMARK    8  A    between atoms: C8_13  and  C9_15 
REMARK    9  A    between atoms: C9_15  and  C10_16 
REMARK   10  A    between atoms: C9_15  and  O17_54 
REMARK   11  A    between atoms: C10_16  and  C13_19 
REMARK   12  A    between atoms: C13_19  and  O4_20 
REMARK   13  A    between atoms: O4_20  and  P1_21 
REMARK   14  A    between atoms: P1_21  and  O6_23 
REMARK   15  A    between atoms: P1_21  and  O7_24 
REMARK   16  A    between atoms: O7_24  and  P2_25 
REMARK   17  A    between atoms: P2_25  and  O9_27 
REMARK   18  A    between atoms: P2_25  and  O10_28 
REMARK   19  A    between atoms: O10_28  and  C14_29 
REMARK   20  A    between atoms: C14_29  and  C15_30 
REMARK   21  A    between atoms: C16_31  and  O13_49 
REMARK   22  A    between atoms: C17_32  and  O12_48 
REMARK   23  A    between atoms: C18_33  and  N3_35 
REMARK   24  A    between atoms: C21_40  and  N7_47 
REMARK   25  A    between atoms: O13_49  and  P3_50 
REMARK   26  A    between atoms: P3_50  and  O15_52 
REMARK   27  A    between atoms: P3_50  and  O16_53 
ROOT
HETATM    1  C1  UNL     1       4.903   7.878  -0.330  1.00  0.00     0.104 C 
HETATM    2  C2  UNL     1       3.496   8.161  -0.762  1.00  0.00     0.182 C 
HETATM    3  O1  UNL     1       2.560   8.281   0.026  1.00  0.00    -0.286 OA
ENDROOT
BRANCH   2   4
HETATM    4  S1  UNL     1       3.280   8.271  -2.503  1.00  0.00    -0.091 SA
BRANCH   4   5
HETATM    5  C3  UNL     1       1.532   8.778  -2.581  1.00  0.00     0.102 C 
BRANCH   5   6
HETATM    6  C4  UNL     1       1.351  10.257  -2.235  1.00  0.00     0.133 C 
BRANCH   6   7
HETATM    7  N1  UNL     1       2.599  10.909  -1.896  1.00  0.00    -0.360 N 
HETATM    8  C5  UNL     1       2.995  12.078  -2.504  1.00  0.00     0.219 C 
HETATM    9  O2  UNL     1       2.362  12.592  -3.419  1.00  0.00    -0.274 OA
HETATM   10  H8  UNL     1       3.189  10.493  -1.187  1.00  0.00     0.162 HD
BRANCH   8  11
HETATM   11  C6  UNL     1       4.301  12.621  -1.966  1.00  0.00     0.122 C 
BRANCH  11  12
HETATM   12  C7  UNL     1       5.179  11.517  -1.378  1.00  0.00     0.132 C 
BRANCH  12  13
HETATM   13  N2  UNL     1       6.539  11.947  -1.127  1.00  0.00    -0.358 N 
HETATM   14  C8  UNL     1       7.293  11.334  -0.143  1.00  0.00     0.247 C 
HETATM   15  O3  UNL     1       6.817  10.504   0.620  1.00  0.00    -0.271 OA
HETATM   16  H13 UNL     1       7.038  12.316  -1.934  1.00  0.00     0.162 HD
BRANCH  14  17
HETATM   17  C9  UNL     1       8.768  11.762  -0.102  1.00  0.00     0.219 C 
BRANCH  17  18
HETATM   18  C10 UNL     1       8.990  13.284   0.105  1.00  0.00     0.009 C 
HETATM   19  C11 UNL     1       7.992  13.883   1.108  1.00  0.00     0.020 C 
HETATM   20  C12 UNL     1      10.414  13.583   0.616  1.00  0.00     0.020 C 
BRANCH  18  21
HETATM   21  C13 UNL     1       8.784  13.939  -1.291  1.00  0.00     0.192 C 
BRANCH  21  22
HETATM   22  O4  UNL     1       7.431  14.262  -1.540  1.00  0.00    -0.296 OA
BRANCH  22  23
HETATM   23  P1  UNL     1       6.985  15.395  -2.584  1.00  0.00     0.401 P 
HETATM   24  O5  UNL     1       8.042  16.414  -2.870  1.00  0.00    -0.631 OA
BRANCH  23  25
HETATM   25  O6  UNL     1       5.610  16.022  -2.029  1.00  0.00    -0.307 OA
HETATM   26  H23 UNL     1       5.430  15.752  -1.120  1.00  0.00     0.222 HD
ENDBRANCH  23  25
BRANCH  23  27
HETATM   27  O7  UNL     1       6.468  14.597  -3.859  1.00  0.00    -0.195 OA
BRANCH  27  28
HETATM   28  P2  UNL     1       5.485  15.327  -4.878  1.00  0.00     0.401 P 
HETATM   29  O8  UNL     1       5.458  14.811  -6.280  1.00  0.00    -0.631 OA
BRANCH  28  30
HETATM   30  O9  UNL     1       4.074  15.265  -4.134  1.00  0.00    -0.307 OA
HETATM   31  H24 UNL     1       3.439  14.617  -4.526  1.00  0.00     0.222 HD
ENDBRANCH  28  30
BRANCH  28  32
HETATM   32  O10 UNL     1       5.837  16.876  -4.711  1.00  0.00    -0.294 OA
BRANCH  32  33
HETATM   33  C14 UNL     1       4.806  17.824  -4.613  1.00  0.00     0.215 C 
BRANCH  33  34
HETATM   34  C15 UNL     1       5.472  19.138  -4.210  1.00  0.00     0.180 C 
HETATM   35  C16 UNL     1       5.134  20.220  -5.227  1.00  0.00     0.197 C 
HETATM   36  C17 UNL     1       6.471  20.623  -5.820  1.00  0.00     0.199 C 
HETATM   37  C18 UNL     1       7.445  20.255  -4.698  1.00  0.00     0.262 C 
HETATM   38  O11 UNL     1       6.899  19.042  -4.135  1.00  0.00    -0.353 OA
BRANCH  35  39
HETATM   39  O13 UNL     1       4.508  21.296  -4.534  1.00  0.00    -0.286 OA
BRANCH  39  40
HETATM   40  P3  UNL     1       2.936  21.451  -4.780  1.00  0.00     0.391 P 
HETATM   41  O14 UNL     1       2.096  20.690  -3.806  1.00  0.00    -0.632 OA
BRANCH  40  42
HETATM   42  O15 UNL     1       2.832  21.045  -6.324  1.00  0.00    -0.307 OA
HETATM   43  H36 UNL     1       1.889  20.957  -6.598  1.00  0.00     0.222 HD
ENDBRANCH  40  42
BRANCH  40  44
HETATM   44  O16 UNL     1       2.777  23.033  -4.811  1.00  0.00    -0.307 OA
HETATM   45  H37 UNL     1       3.461  23.490  -4.297  1.00  0.00     0.222 HD
ENDBRANCH  40  44
ENDBRANCH  39  40
ENDBRANCH  35  39
BRANCH  36  46
HETATM   46  O12 UNL     1       6.436  21.990  -6.238  1.00  0.00    -0.388 OA
HETATM   47  H35 UNL     1       6.459  21.979  -7.224  1.00  0.00     0.210 HD
ENDBRANCH  36  46
BRANCH  37  48
HETATM   48  N3  UNL     1       8.781  19.982  -5.189  1.00  0.00    -0.297 N 
HETATM   49  C19 UNL     1       9.426  18.767  -5.212  1.00  0.00     0.188 A 
HETATM   50  N4  UNL     1      10.581  18.828  -5.837  1.00  0.00    -0.346 N 
HETATM   51  C20 UNL     1      10.689  20.146  -6.244  1.00  0.00     0.116 A 
HETATM   52  H4  UNL     1      11.249  18.072  -5.989  1.00  0.00     0.167 HD
HETATM   53  C21 UNL     1      11.661  20.838  -6.987  1.00  0.00     0.109 A 
HETATM   54  C23 UNL     1       9.599  20.881  -5.814  1.00  0.00     0.142 A 
HETATM   55  N5  UNL     1      11.482  22.162  -7.217  1.00  0.00    -0.341 N 
HETATM   56  C22 UNL     1      10.380  22.753  -6.715  1.00  0.00     0.183 A 
HETATM   57  H5  UNL     1      12.165  22.696  -7.755  1.00  0.00     0.167 HD
HETATM   58  N6  UNL     1       9.382  22.195  -6.001  1.00  0.00    -0.336 N 
HETATM   59  H6  UNL     1       8.569  22.702  -5.648  1.00  0.00     0.168 HD
BRANCH  53  60
HETATM   60  N7  UNL     1      12.804  20.238  -7.492  1.00  0.00    -0.287 NA
HETATM   61  H33 UNL     1      13.138  19.447  -6.946  1.00  0.00     0.125 HD
HETATM   62  H34 UNL     1      13.498  20.906  -7.798  1.00  0.00     0.125 HD
ENDBRANCH  53  60
ENDBRANCH  37  48
ENDBRANCH  33  34
ENDBRANCH  32  33
ENDBRANCH  28  32
ENDBRANCH  27  28
ENDBRANCH  23  27
ENDBRANCH  22  23
ENDBRANCH  21  22
ENDBRANCH  18  21
ENDBRANCH  17  18
BRANCH  17  63
HETATM   63  O17 UNL     1       9.456  11.057   0.937  1.00  0.00    -0.385 OA
HETATM   64  H38 UNL     1      10.401  11.032   0.709  1.00  0.00     0.210 HD
ENDBRANCH  17  63
ENDBRANCH  14  17
ENDBRANCH  12  13
ENDBRANCH  11  12
ENDBRANCH   8  11
ENDBRANCH   6   7
ENDBRANCH   5   6
ENDBRANCH   4   5
ENDBRANCH   2   4
TORSDOF 27
ENDMDL
MODEL 11
REMARK VINA RESULT:      -4.7     14.970     18.527
REMARK  27 active torsions:
REMARK  status: ('A' for Active; 'I' for Inactive)
REMARK    1  A    between atoms: C2_2  and  S1_4 
REMARK    2  A    between atoms: S1_4  and  C3_5 
REMARK    3  A    between atoms: C3_5  and  C4_6 
REMARK    4  A    between atoms: C4_6  and  N1_7 
REMARK       I    between atoms: N1_7  and  C5_8 
REMARK    5  A    between atoms: C5_8  and  C6_10 
REMARK    6  A    between atoms: C6_10  and  C7_11 
REMARK    7  A    between atoms: C7_11  and  N2_12 
REMARK       I    between atoms: N2_12  and  C8_13 
REMARK    8  A    between atoms: C8_13  and  C9_15 
REMARK    9  A    between atoms: C9_15  and  C10_16 
REMARK   10  A    between atoms: C9_15  and  O17_54 
REMARK   11  A    between atoms: C10_16  and  C13_19 
REMARK   12  A    between atoms: C13_19  and  O4_20 
REMARK   13  A    between atoms: O4_20  and  P1_21 
REMARK   14  A    between atoms: P1_21  and  O6_23 
REMARK   15  A    between atoms: P1_21  and  O7_24 
REMARK   16  A    between atoms: O7_24  and  P2_25 
REMARK   17  A    between atoms: P2_25  and  O9_27 
REMARK   18  A    between atoms: P2_25  and  O10_28 
REMARK   19  A    between atoms: O10_28  and  C14_29 
REMARK   20  A    between atoms: C14_29  and  C15_30 
REMARK   21  A    between atoms: C16_31  and  O13_49 
REMARK   22  A    between atoms: C17_32  and  O12_48 
REMARK   23  A    between atoms: C18_33  and  N3_35 
REMARK   24  A    between atoms: C21_40  and  N7_47 
REMARK   25  A    between atoms: O13_49  and  P3_50 
REMARK   26  A    between atoms: P3_50  and  O15_52 
REMARK   27  A    between atoms: P3_50  and  O16_53 
ROOT
HETATM    1  C1  UNL     1     -15.482  20.400  -3.144  1.00  0.00     0.104 C 
HETATM    2  C2  UNL     1     -14.102  20.460  -2.563  1.00  0.00     0.182 C 
HETATM    3  O1  UNL     1     -13.861  20.254  -1.376  1.00  0.00    -0.286 OA
ENDROOT
BRANCH   2   4
HETATM    4  S1  UNL     1     -12.848  20.895  -3.716  1.00  0.00    -0.091 SA
BRANCH   4   5
HETATM    5  C3  UNL     1     -11.582  21.554  -2.584  1.00  0.00     0.102 C 
BRANCH   5   6
HETATM    6  C4  UNL     1     -10.167  21.189  -3.038  1.00  0.00     0.133 C 
BRANCH   6   7
HETATM    7  N1  UNL     1      -9.731  19.904  -2.531  1.00  0.00    -0.360 N 
HETATM    8  C5  UNL     1      -9.633  18.800  -3.346  1.00  0.00     0.219 C 
HETATM    9  O2  UNL     1      -9.982  18.814  -4.521  1.00  0.00    -0.274 OA
HETATM   10  H8  UNL     1      -9.486  19.824  -1.553  1.00  0.00     0.162 HD
BRANCH   8  11
HETATM   11  C6  UNL     1      -9.107  17.573  -2.632  1.00  0.00     0.122 C 
BRANCH  11  12
HETATM   12  C7  UNL     1      -7.843  17.026  -3.295  1.00  0.00     0.132 C 
BRANCH  12  13
HETATM   13  N2  UNL     1      -6.830  18.038  -3.508  1.00  0.00    -0.358 N 
HETATM   14  C8  UNL     1      -5.984  17.959  -4.599  1.00  0.00     0.247 C 
HETATM   15  O3  UNL     1      -5.976  16.991  -5.348  1.00  0.00    -0.271 OA
HETATM   16  H13 UNL     1      -7.061  18.968  -3.164  1.00  0.00     0.162 HD
BRANCH  14  17
HETATM   17  C9  UNL     1      -5.080  19.184  -4.804  1.00  0.00     0.219 C 
BRANCH  17  18
HETATM   18  C10 UNL     1      -5.586  20.185  -5.875  1.00  0.00     0.009 C 
HETATM   19  C11 UNL     1      -4.889  21.549  -5.767  1.00  0.00     0.020 C 
HETATM   20  C12 UNL     1      -5.359  19.648  -7.303  1.00  0.00     0.020 C 
BRANCH  18  21
HETATM   21  C13 UNL     1      -7.110  20.355  -5.615  1.00  0.00     0.192 C 
BRANCH  21  22
HETATM   22  O4  UNL     1      -7.727  21.201  -6.564  1.00  0.00    -0.296 OA
BRANCH  22  23
HETATM   23  P1  UNL     1      -9.037  20.777  -7.386  1.00  0.00     0.401 P 
HETATM   24  O5  UNL     1     -10.307  21.368  -6.862  1.00  0.00    -0.631 OA
BRANCH  23  25
HETATM   25  O6  UNL     1      -9.046  19.168  -7.449  1.00  0.00    -0.307 OA
HETATM   26  H23 UNL     1      -8.453  18.829  -8.132  1.00  0.00     0.222 HD
ENDBRANCH  23  25
BRANCH  23  27
HETATM   27  O7  UNL     1      -8.708  21.143  -8.899  1.00  0.00    -0.195 OA
BRANCH  27  28
HETATM   28  P2  UNL     1      -9.218  22.535  -9.482  1.00  0.00     0.401 P 
HETATM   29  O8  UNL     1      -9.708  23.544  -8.495  1.00  0.00    -0.631 OA
BRANCH  28  30
HETATM   30  O9  UNL     1      -7.986  23.035 -10.366  1.00  0.00    -0.307 OA
HETATM   31  H24 UNL     1      -7.547  23.852 -10.022  1.00  0.00     0.222 HD
ENDBRANCH  28  30
BRANCH  28  32
HETATM   32  O10 UNL     1     -10.251  22.120 -10.627  1.00  0.00    -0.294 OA
BRANCH  32  33
HETATM   33  C14 UNL     1     -11.556  21.729 -10.288  1.00  0.00     0.215 C 
BRANCH  33  34
HETATM   34  C15 UNL     1     -11.781  20.371 -10.950  1.00  0.00     0.180 C 
HETATM   35  C16 UNL     1     -11.324  19.260 -10.014  1.00  0.00     0.197 C 
HETATM   36  C17 UNL     1     -10.199  18.568 -10.761  1.00  0.00     0.199 C 
HETATM   37  C18 UNL     1     -10.538  18.881 -12.220  1.00  0.00     0.262 C 
HETATM   38  O11 UNL     1     -11.066  20.225 -12.182  1.00  0.00    -0.353 OA
BRANCH  35  39
HETATM   39  O13 UNL     1     -12.430  18.393  -9.786  1.00  0.00    -0.286 OA
BRANCH  39  40
HETATM   40  P3  UNL     1     -13.244  18.655  -8.436  1.00  0.00     0.391 P 
HETATM   41  O14 UNL     1     -14.267  19.739  -8.550  1.00  0.00    -0.632 OA
BRANCH  40  42
HETATM   42  O15 UNL     1     -12.044  18.874  -7.401  1.00  0.00    -0.307 OA
HETATM   43  H36 UNL     1     -11.252  18.350  -7.668  1.00  0.00     0.222 HD
ENDBRANCH  40  42
BRANCH  40  44
HETATM   44  O16 UNL     1     -13.758  17.191  -8.088  1.00  0.00    -0.307 OA
HETATM   45  H37 UNL     1     -14.695  17.171  -7.835  1.00  0.00     0.222 HD
ENDBRANCH  40  44
ENDBRANCH  39  40
ENDBRANCH  35  39
BRANCH  36  46
HETATM   46  O12 UNL     1     -10.128  17.190 -10.384  1.00  0.00    -0.388 OA
HETATM   47  H35 UNL     1     -10.684  16.696 -11.032  1.00  0.00     0.210 HD
ENDBRANCH  36  46
BRANCH  37  48
HETATM   48  N3  UNL     1      -9.372  18.861 -13.079  1.00  0.00    -0.297 N 
HETATM   49  C19 UNL     1      -8.872  17.787 -13.778  1.00  0.00     0.188 A 
HETATM   50  N4  UNL     1      -7.876  18.125 -14.567  1.00  0.00    -0.346 N 
HETATM   51  C20 UNL     1      -7.725  19.487 -14.374  1.00  0.00     0.116 A 
HETATM   52  H4  UNL     1      -7.335  17.520 -15.183  1.00  0.00     0.167 HD
HETATM   53  C21 UNL     1      -6.869  20.442 -14.950  1.00  0.00     0.109 A 
HETATM   54  C23 UNL     1      -8.620  19.949 -13.426  1.00  0.00     0.142 A 
HETATM   55  N5  UNL     1      -6.960  21.729 -14.534  1.00  0.00    -0.341 N 
HETATM   56  C22 UNL     1      -7.865  22.030 -13.582  1.00  0.00     0.183 A 
HETATM   57  H5  UNL     1      -6.358  22.451 -14.931  1.00  0.00     0.167 HD
HETATM   58  N6  UNL     1      -8.739  21.207 -12.967  1.00  0.00    -0.336 N 
HETATM   59  H6  UNL     1      -9.403  21.500 -12.250  1.00  0.00     0.168 HD
BRANCH  53  60
HETATM   60  N7  UNL     1      -5.927  20.136 -15.918  1.00  0.00    -0.287 NA
HETATM   61  H33 UNL     1      -4.976  20.053 -15.565  1.00  0.00     0.125 HD
HETATM   62  H34 UNL     1      -6.052  20.663 -16.772  1.00  0.00     0.125 HD
ENDBRANCH  53  60
ENDBRANCH  37  48
ENDBRANCH  33  34
ENDBRANCH  32  33
ENDBRANCH  28  32
ENDBRANCH  27  28
ENDBRANCH  23  27
ENDBRANCH  22  23
ENDBRANCH  21  22
ENDBRANCH  18  21
ENDBRANCH  17  18
BRANCH  17  63
HETATM   63  O17 UNL     1      -4.915  19.886  -3.567  1.00  0.00    -0.385 OA
HETATM   64  H38 UNL     1      -4.815  20.832  -3.768  1.00  0.00     0.210 HD
ENDBRANCH  17  63
ENDBRANCH  14  17
ENDBRANCH  12  13
ENDBRANCH  11  12
ENDBRANCH   8  11
ENDBRANCH   6   7
ENDBRANCH   5   6
ENDBRANCH   4   5
ENDBRANCH   2   4
TORSDOF 27
ENDMDL
MODEL 12
REMARK VINA RESULT:      -4.6      3.244      6.235
REMARK  27 active torsions:
REMARK  status: ('A' for Active; 'I' for Inactive)
REMARK    1  A    between atoms: C2_2  and  S1_4 
REMARK    2  A    between atoms: S1_4  and  C3_5 
REMARK    3  A    between atoms: C3_5  and  C4_6 
REMARK    4  A    between atoms: C4_6  and  N1_7 
REMARK       I    between atoms: N1_7  and  C5_8 
REMARK    5  A    between atoms: C5_8  and  C6_10 
REMARK    6  A    between atoms: C6_10  and  C7_11 
REMARK    7  A    between atoms: C7_11  and  N2_12 
REMARK       I    between atoms: N2_12  and  C8_13 
REMARK    8  A    between atoms: C8_13  and  C9_15 
REMARK    9  A    between atoms: C9_15  and  C10_16 
REMARK   10  A    between atoms: C9_15  and  O17_54 
REMARK   11  A    between atoms: C10_16  and  C13_19 
REMARK   12  A    between atoms: C13_19  and  O4_20 
REMARK   13  A    between atoms: O4_20  and  P1_21 
REMARK   14  A    between atoms: P1_21  and  O6_23 
REMARK   15  A    between atoms: P1_21  and  O7_24 
REMARK   16  A    between atoms: O7_24  and  P2_25 
REMARK   17  A    between atoms: P2_25  and  O9_27 
REMARK   18  A    between atoms: P2_25  and  O10_28 
REMARK   19  A    between atoms: O10_28  and  C14_29 
REMARK   20  A    between atoms: C14_29  and  C15_30 
REMARK   21  A    between atoms: C16_31  and  O13_49 
REMARK   22  A    between atoms: C17_32  and  O12_48 
REMARK   23  A    between atoms: C18_33  and  N3_35 
REMARK   24  A    between atoms: C21_40  and  N7_47 
REMARK   25  A    between atoms: O13_49  and  P3_50 
REMARK   26  A    between atoms: P3_50  and  O15_52 
REMARK   27  A    between atoms: P3_50  and  O16_53 
ROOT
HETATM    1  C1  UNL     1      12.318  10.862   5.685  1.00  0.00     0.104 C 
HETATM    2  C2  UNL     1      10.898  10.901   5.210  1.00  0.00     0.182 C 
HETATM    3  O1  UNL     1       9.957  11.238   5.925  1.00  0.00    -0.286 OA
ENDROOT
BRANCH   2   4
HETATM    4  S1  UNL     1      10.675  10.385   3.544  1.00  0.00    -0.091 SA
BRANCH   4   5
HETATM    5  C3  UNL     1       9.346  11.519   3.028  1.00  0.00     0.102 C 
BRANCH   5   6
HETATM    6  C4  UNL     1       7.966  10.865   3.133  1.00  0.00     0.133 C 
BRANCH   6   7
HETATM    7  N1  UNL     1       7.933   9.536   2.557  1.00  0.00    -0.360 N 
HETATM    8  C5  UNL     1       7.796   9.337   1.203  1.00  0.00     0.219 C 
HETATM    9  O2  UNL     1       7.615  10.258   0.415  1.00  0.00    -0.274 OA
HETATM   10  H8  UNL     1       8.020   8.738   3.172  1.00  0.00     0.162 HD
BRANCH   8  11
HETATM   11  C6  UNL     1       7.840   7.878   0.805  1.00  0.00     0.122 C 
BRANCH  11  12
HETATM   12  C7  UNL     1       6.593   7.460   0.026  1.00  0.00     0.132 C 
BRANCH  12  13
HETATM   13  N2  UNL     1       5.498   8.397   0.164  1.00  0.00    -0.358 N 
HETATM   14  C8  UNL     1       4.687   8.684  -0.918  1.00  0.00     0.247 C 
HETATM   15  O3  UNL     1       4.926   8.262  -2.042  1.00  0.00    -0.271 OA
HETATM   16  H13 UNL     1       5.075   8.443   1.089  1.00  0.00     0.162 HD
BRANCH  14  17
HETATM   17  C9  UNL     1       3.462   9.552  -0.592  1.00  0.00     0.219 C 
BRANCH  17  18
HETATM   18  C10 UNL     1       3.067  10.552  -1.711  1.00  0.00     0.009 C 
HETATM   19  C11 UNL     1       2.392   9.852  -2.900  1.00  0.00     0.020 C 
HETATM   20  C12 UNL     1       2.101  11.634  -1.186  1.00  0.00     0.020 C 
BRANCH  18  21
HETATM   21  C13 UNL     1       4.394  11.215  -2.178  1.00  0.00     0.192 C 
BRANCH  21  22
HETATM   22  O4  UNL     1       4.356  12.624  -2.076  1.00  0.00    -0.296 OA
BRANCH  22  23
HETATM   23  P1  UNL     1       5.409  13.579  -2.819  1.00  0.00     0.401 P 
HETATM   24  O5  UNL     1       5.634  13.239  -4.258  1.00  0.00    -0.631 OA
BRANCH  23  25
HETATM   25  O6  UNL     1       6.752  13.570  -1.931  1.00  0.00    -0.307 OA
HETATM   26  H23 UNL     1       6.650  13.045  -1.127  1.00  0.00     0.222 HD
ENDBRANCH  23  25
BRANCH  23  27
HETATM   27  O7  UNL     1       4.877  15.056  -2.560  1.00  0.00    -0.195 OA
BRANCH  27  28
HETATM   28  P2  UNL     1       5.191  16.187  -3.637  1.00  0.00     0.401 P 
HETATM   29  O8  UNL     1       4.414  16.141  -4.912  1.00  0.00    -0.631 OA
BRANCH  28  30
HETATM   30  O9  UNL     1       5.007  17.541  -2.811  1.00  0.00    -0.307 OA
HETATM   31  H24 UNL     1       5.830  17.857  -2.365  1.00  0.00     0.222 HD
ENDBRANCH  28  30
BRANCH  28  32
HETATM   32  O10 UNL     1       6.780  16.148  -3.787  1.00  0.00    -0.294 OA
BRANCH  32  33
HETATM   33  C14 UNL     1       7.529  17.325  -3.632  1.00  0.00     0.215 C 
BRANCH  33  34
HETATM   34  C15 UNL     1       7.721  17.897  -5.035  1.00  0.00     0.180 C 
HETATM   35  C16 UNL     1       8.794  18.977  -5.010  1.00  0.00     0.197 C 
HETATM   36  C17 UNL     1       8.075  20.244  -5.433  1.00  0.00     0.199 C 
HETATM   37  C18 UNL     1       6.908  19.693  -6.256  1.00  0.00     0.262 C 
HETATM   38  O11 UNL     1       6.527  18.481  -5.568  1.00  0.00    -0.353 OA
BRANCH  35  39
HETATM   39  O13 UNL     1       9.815  18.607  -5.930  1.00  0.00    -0.286 OA
BRANCH  39  40
HETATM   40  P3  UNL     1      11.313  18.890  -5.449  1.00  0.00     0.391 P 
HETATM   41  O14 UNL     1      11.440  19.117  -3.978  1.00  0.00    -0.632 OA
BRANCH  40  42
HETATM   42  O15 UNL     1      11.717  20.094  -6.422  1.00  0.00    -0.307 OA
HETATM   43  H36 UNL     1      11.143  20.101  -7.225  1.00  0.00     0.222 HD
ENDBRANCH  40  42
BRANCH  40  44
HETATM   44  O16 UNL     1      12.085  17.647  -6.072  1.00  0.00    -0.307 OA
HETATM   45  H37 UNL     1      11.570  16.825  -6.031  1.00  0.00     0.222 HD
ENDBRANCH  40  44
ENDBRANCH  39  40
ENDBRANCH  35  39
BRANCH  36  46
HETATM   46  O12 UNL     1       8.981  21.133  -6.091  1.00  0.00    -0.388 OA
HETATM   47  H35 UNL     1       9.046  21.936  -5.521  1.00  0.00     0.210 HD
ENDBRANCH  36  46
BRANCH  37  48
HETATM   48  N3  UNL     1       5.772  20.592  -6.282  1.00  0.00    -0.297 N 
HETATM   49  C19 UNL     1       5.339  21.354  -7.342  1.00  0.00     0.188 A 
HETATM   50  N4  UNL     1       4.204  21.967  -7.085  1.00  0.00    -0.346 N 
HETATM   51  C20 UNL     1       3.882  21.579  -5.796  1.00  0.00     0.116 A 
HETATM   52  H4  UNL     1       3.677  22.589  -7.698  1.00  0.00     0.167 HD
HETATM   53  C21 UNL     1       2.782  21.852  -4.965  1.00  0.00     0.109 A 
HETATM   54  C23 UNL     1       4.865  20.759  -5.273  1.00  0.00     0.142 A 
HETATM   55  N5  UNL     1       2.762  21.320  -3.719  1.00  0.00    -0.341 N 
HETATM   56  C22 UNL     1       3.803  20.556  -3.334  1.00  0.00     0.183 A 
HETATM   57  H5  UNL     1       1.978  21.493  -3.089  1.00  0.00     0.167 HD
HETATM   58  N6  UNL     1       4.901  20.220  -4.041  1.00  0.00    -0.336 N 
HETATM   59  H6  UNL     1       5.659  19.634  -3.689  1.00  0.00     0.168 HD
BRANCH  53  60
HETATM   60  N7  UNL     1       1.716  22.649  -5.350  1.00  0.00    -0.287 NA
HETATM   61  H33 UNL     1       1.581  23.477  -4.773  1.00  0.00     0.125 HD
HETATM   62  H34 UNL     1       0.888  22.116  -5.582  1.00  0.00     0.125 HD
ENDBRANCH  53  60
ENDBRANCH  37  48
ENDBRANCH  33  34
ENDBRANCH  32  33
ENDBRANCH  28  32
ENDBRANCH  27  28
ENDBRANCH  23  27
ENDBRANCH  22  23
ENDBRANCH  21  22
ENDBRANCH  18  21
ENDBRANCH  17  18
BRANCH  17  63
HETATM   63  O17 UNL     1       2.331   8.721  -0.306  1.00  0.00    -0.385 OA
HETATM   64  H38 UNL     1       1.760   8.707  -1.092  1.00  0.00     0.210 HD
ENDBRANCH  17  63
ENDBRANCH  14  17
ENDBRANCH  12  13
ENDBRANCH  11  12
ENDBRANCH   8  11
ENDBRANCH   6   7
ENDBRANCH   5   6
ENDBRANCH   4   5
ENDBRANCH   2   4
TORSDOF 27
ENDMDL
MODEL 13
REMARK VINA RESULT:      -4.5      3.054     11.337
REMARK  27 active torsions:
REMARK  status: ('A' for Active; 'I' for Inactive)
REMARK    1  A    between atoms: C2_2  and  S1_4 
REMARK    2  A    between atoms: S1_4  and  C3_5 
REMARK    3  A    between atoms: C3_5  and  C4_6 
REMARK    4  A    between atoms: C4_6  and  N1_7 
REMARK       I    between atoms: N1_7  and  C5_8 
REMARK    5  A    between atoms: C5_8  and  C6_10 
REMARK    6  A    between atoms: C6_10  and  C7_11 
REMARK    7  A    between atoms: C7_11  and  N2_12 
REMARK       I    between atoms: N2_12  and  C8_13 
REMARK    8  A    between atoms: C8_13  and  C9_15 
REMARK    9  A    between atoms: C9_15  and  C10_16 
REMARK   10  A    between atoms: C9_15  and  O17_54 
REMARK   11  A    between atoms: C10_16  and  C13_19 
REMARK   12  A    between atoms: C13_19  and  O4_20 
REMARK   13  A    between atoms: O4_20  and  P1_21 
REMARK   14  A    between atoms: P1_21  and  O6_23 
REMARK   15  A    between atoms: P1_21  and  O7_24 
REMARK   16  A    between atoms: O7_24  and  P2_25 
REMARK   17  A    between atoms: P2_25  and  O9_27 
REMARK   18  A    between atoms: P2_25  and  O10_28 
REMARK   19  A    between atoms: O10_28  and  C14_29 
REMARK   20  A    between atoms: C14_29  and  C15_30 
REMARK   21  A    between atoms: C16_31  and  O13_49 
REMARK   22  A    between atoms: C17_32  and  O12_48 
REMARK   23  A    between atoms: C18_33  and  N3_35 
REMARK   24  A    between atoms: C21_40  and  N7_47 
REMARK   25  A    between atoms: O13_49  and  P3_50 
REMARK   26  A    between atoms: P3_50  and  O15_52 
REMARK   27  A    between atoms: P3_50  and  O16_53 
ROOT
HETATM    1  C1  UNL     1       3.926  16.086  -5.675  1.00  0.00     0.104 C 
HETATM    2  C2  UNL     1       4.495  17.431  -6.009  1.00  0.00     0.182 C 
HETATM    3  O1  UNL     1       4.693  18.307  -5.171  1.00  0.00    -0.286 OA
ENDROOT
BRANCH   2   4
HETATM    4  S1  UNL     1       4.824  17.673  -7.720  1.00  0.00    -0.091 SA
BRANCH   4   5
HETATM    5  C3  UNL     1       5.769  19.229  -7.650  1.00  0.00     0.102 C 
BRANCH   5   6
HETATM    6  C4  UNL     1       4.876  20.450  -7.881  1.00  0.00     0.133 C 
BRANCH   6   7
HETATM    7  N1  UNL     1       5.480  21.681  -7.416  1.00  0.00    -0.360 N 
HETATM    8  C5  UNL     1       4.959  22.387  -6.356  1.00  0.00     0.219 C 
HETATM    9  O2  UNL     1       3.918  22.066  -5.797  1.00  0.00    -0.274 OA
HETATM   10  H8  UNL     1       6.310  22.023  -7.882  1.00  0.00     0.162 HD
BRANCH   8  11
HETATM   11  C6  UNL     1       5.771  23.613  -5.996  1.00  0.00     0.122 C 
BRANCH  11  12
HETATM   12  C7  UNL     1       6.247  23.577  -4.544  1.00  0.00     0.132 C 
BRANCH  12  13
HETATM   13  N2  UNL     1       6.327  22.235  -4.007  1.00  0.00    -0.358 N 
HETATM   14  C8  UNL     1       7.380  21.408  -4.352  1.00  0.00     0.247 C 
HETATM   15  O3  UNL     1       8.205  21.723  -5.200  1.00  0.00    -0.271 OA
HETATM   16  H13 UNL     1       5.919  22.108  -3.083  1.00  0.00     0.162 HD
BRANCH  14  17
HETATM   17  C9  UNL     1       7.440  20.083  -3.577  1.00  0.00     0.219 C 
BRANCH  17  18
HETATM   18  C10 UNL     1       8.555  19.113  -4.048  1.00  0.00     0.009 C 
HETATM   19  C11 UNL     1       8.213  18.445  -5.388  1.00  0.00     0.020 C 
HETATM   20  C12 UNL     1       9.905  19.840  -4.211  1.00  0.00     0.020 C 
BRANCH  18  21
HETATM   21  C13 UNL     1       8.673  18.028  -2.939  1.00  0.00     0.192 C 
BRANCH  21  22
HETATM   22  O4  UNL     1       8.556  16.717  -3.454  1.00  0.00    -0.296 OA
BRANCH  22  23
HETATM   23  P1  UNL     1       7.151  15.955  -3.582  1.00  0.00     0.401 P 
HETATM   24  O5  UNL     1       6.879  15.397  -4.944  1.00  0.00    -0.631 OA
BRANCH  23  25
HETATM   25  O6  UNL     1       6.019  16.974  -3.061  1.00  0.00    -0.307 OA
HETATM   26  H23 UNL     1       6.064  17.826  -3.512  1.00  0.00     0.222 HD
ENDBRANCH  23  25
BRANCH  23  27
HETATM   27  O7  UNL     1       7.159  14.877  -2.412  1.00  0.00    -0.195 OA
BRANCH  27  28
HETATM   28  P2  UNL     1       5.775  14.444  -1.754  1.00  0.00     0.401 P 
HETATM   29  O8  UNL     1       5.371  15.151  -0.501  1.00  0.00    -0.631 OA
BRANCH  28  30
HETATM   30  O9  UNL     1       4.734  14.600  -2.954  1.00  0.00    -0.307 OA
HETATM   31  H24 UNL     1       5.143  14.873  -3.811  1.00  0.00     0.222 HD
ENDBRANCH  28  30
BRANCH  28  32
HETATM   32  O10 UNL     1       5.875  12.853  -1.655  1.00  0.00    -0.294 OA
BRANCH  32  33
HETATM   33  C14 UNL     1       4.706  12.078  -1.607  1.00  0.00     0.215 C 
BRANCH  33  34
HETATM   34  C15 UNL     1       5.146  10.629  -1.809  1.00  0.00     0.180 C 
HETATM   35  C16 UNL     1       4.115   9.688  -1.200  1.00  0.00     0.197 C 
HETATM   36  C17 UNL     1       4.866   8.949  -0.109  1.00  0.00     0.199 C 
HETATM   37  C18 UNL     1       6.314   9.031  -0.601  1.00  0.00     0.262 C 
HETATM   38  O11 UNL     1       6.412  10.340  -1.204  1.00  0.00    -0.353 OA
BRANCH  35  39
HETATM   39  O13 UNL     1       3.659   8.811  -2.226  1.00  0.00    -0.286 OA
BRANCH  39  40
HETATM   40  P3  UNL     1       2.073   8.645  -2.334  1.00  0.00     0.391 P 
HETATM   41  O14 UNL     1       1.599   8.259  -3.698  1.00  0.00    -0.632 OA
BRANCH  40  42
HETATM   42  O15 UNL     1       1.584  10.052  -1.751  1.00  0.00    -0.307 OA
HETATM   43  H36 UNL     1       0.903  10.456  -2.340  1.00  0.00     0.222 HD
ENDBRANCH  40  42
BRANCH  40  44
HETATM   44  O16 UNL     1       1.779   7.637  -1.140  1.00  0.00    -0.307 OA
HETATM   45  H37 UNL     1       2.297   7.835  -0.344  1.00  0.00     0.222 HD
ENDBRANCH  40  44
ENDBRANCH  39  40
ENDBRANCH  35  39
BRANCH  36  46
HETATM   46  O12 UNL     1       4.310   7.645   0.081  1.00  0.00    -0.388 OA
HETATM   47  H35 UNL     1       3.330   7.753   0.045  1.00  0.00     0.210 HD
ENDBRANCH  36  46
BRANCH  37  48
HETATM   48  N3  UNL     1       7.274   8.943   0.481  1.00  0.00    -0.297 N 
HETATM   49  C19 UNL     1       7.766   7.798   1.065  1.00  0.00     0.188 A 
HETATM   50  N4  UNL     1       8.719   8.052   1.934  1.00  0.00    -0.346 N 
HETATM   51  C20 UNL     1       8.857   9.429   1.909  1.00  0.00     0.116 A 
HETATM   52  H4  UNL     1       9.242   7.384   2.500  1.00  0.00     0.167 HD
HETATM   53  C21 UNL     1       9.727  10.312   2.572  1.00  0.00     0.109 A 
HETATM   54  C23 UNL     1       7.941   9.996   1.042  1.00  0.00     0.142 A 
HETATM   55  N5  UNL     1       9.604  11.641   2.339  1.00  0.00    -0.341 N 
HETATM   56  C22 UNL     1       8.647  12.053   1.484  1.00  0.00     0.183 A 
HETATM   57  H5  UNL     1      10.219  12.312   2.799  1.00  0.00     0.167 HD
HETATM   58  N6  UNL     1       7.767  11.305   0.788  1.00  0.00    -0.336 N 
HETATM   59  H6  UNL     1       7.062  11.682   0.153  1.00  0.00     0.168 HD
BRANCH  53  60
HETATM   60  N7  UNL     1      10.702   9.895   3.463  1.00  0.00    -0.287 NA
HETATM   61  H33 UNL     1      11.491  10.532   3.550  1.00  0.00     0.125 HD
HETATM   62  H34 UNL     1      10.920   8.911   3.379  1.00  0.00     0.125 HD
ENDBRANCH  53  60
ENDBRANCH  37  48
ENDBRANCH  33  34
ENDBRANCH  32  33
ENDBRANCH  28  32
ENDBRANCH  27  28
ENDBRANCH  23  27
ENDBRANCH  22  23
ENDBRANCH  21  22
ENDBRANCH  18  21
ENDBRANCH  17  18
BRANCH  17  63
HETATM   63  O17 UNL     1       7.619  20.337  -2.180  1.00  0.00    -0.385 OA
HETATM   64  H38 UNL     1       6.740  20.430  -1.775  1.00  0.00     0.210 HD
ENDBRANCH  17  63
ENDBRANCH  14  17
ENDBRANCH  12  13
ENDBRANCH  11  12
ENDBRANCH   8  11
ENDBRANCH   6   7
ENDBRANCH   5   6
ENDBRANCH   4   5
ENDBRANCH   2   4
TORSDOF 27
ENDMDL
MODEL 14
REMARK VINA RESULT:      -4.4     16.229     19.932
REMARK  27 active torsions:
REMARK  status: ('A' for Active; 'I' for Inactive)
REMARK    1  A    between atoms: C2_2  and  S1_4 
REMARK    2  A    between atoms: S1_4  and  C3_5 
REMARK    3  A    between atoms: C3_5  and  C4_6 
REMARK    4  A    between atoms: C4_6  and  N1_7 
REMARK       I    between atoms: N1_7  and  C5_8 
REMARK    5  A    between atoms: C5_8  and  C6_10 
REMARK    6  A    between atoms: C6_10  and  C7_11 
REMARK    7  A    between atoms: C7_11  and  N2_12 
REMARK       I    between atoms: N2_12  and  C8_13 
REMARK    8  A    between atoms: C8_13  and  C9_15 
REMARK    9  A    between atoms: C9_15  and  C10_16 
REMARK   10  A    between atoms: C9_15  and  O17_54 
REMARK   11  A    between atoms: C10_16  and  C13_19 
REMARK   12  A    between atoms: C13_19  and  O4_20 
REMARK   13  A    between atoms: O4_20  and  P1_21 
REMARK   14  A    between atoms: P1_21  and  O6_23 
REMARK   15  A    between atoms: P1_21  and  O7_24 
REMARK   16  A    between atoms: O7_24  and  P2_25 
REMARK   17  A    between atoms: P2_25  and  O9_27 
REMARK   18  A    between atoms: P2_25  and  O10_28 
REMARK   19  A    between atoms: O10_28  and  C14_29 
REMARK   20  A    between atoms: C14_29  and  C15_30 
REMARK   21  A    between atoms: C16_31  and  O13_49 
REMARK   22  A    between atoms: C17_32  and  O12_48 
REMARK   23  A    between atoms: C18_33  and  N3_35 
REMARK   24  A    between atoms: C21_40  and  N7_47 
REMARK   25  A    between atoms: O13_49  and  P3_50 
REMARK   26  A    between atoms: P3_50  and  O15_52 
REMARK   27  A    between atoms: P3_50  and  O16_53 
ROOT
HETATM    1  C1  UNL     1     -13.835  22.634  -1.594  1.00  0.00     0.104 C 
HETATM    2  C2  UNL     1     -12.655  22.013  -0.910  1.00  0.00     0.182 C 
HETATM    3  O1  UNL     1     -12.741  21.035  -0.172  1.00  0.00    -0.286 OA
ENDROOT
BRANCH   2   4
HETATM    4  S1  UNL     1     -11.127  22.827  -1.219  1.00  0.00    -0.091 SA
BRANCH   4   5
HETATM    5  C3  UNL     1      -9.972  21.432  -1.025  1.00  0.00     0.102 C 
BRANCH   5   6
HETATM    6  C4  UNL     1      -9.727  20.707  -2.350  1.00  0.00     0.133 C 
BRANCH   6   7
HETATM    7  N1  UNL     1      -9.363  19.316  -2.168  1.00  0.00    -0.360 N 
HETATM    8  C5  UNL     1      -9.355  18.427  -3.217  1.00  0.00     0.219 C 
HETATM    9  O2  UNL     1      -9.729  18.731  -4.343  1.00  0.00    -0.274 OA
HETATM   10  H8  UNL     1      -9.101  18.999  -1.244  1.00  0.00     0.162 HD
BRANCH   8  11
HETATM   11  C6  UNL     1      -8.892  17.041  -2.823  1.00  0.00     0.122 C 
BRANCH  11  12
HETATM   12  C7  UNL     1      -7.641  16.617  -3.592  1.00  0.00     0.132 C 
BRANCH  12  13
HETATM   13  N2  UNL     1      -6.656  17.673  -3.701  1.00  0.00    -0.358 N 
HETATM   14  C8  UNL     1      -5.965  17.861  -4.884  1.00  0.00     0.247 C 
HETATM   15  O3  UNL     1      -6.065  17.088  -5.828  1.00  0.00    -0.271 OA
HETATM   16  H13 UNL     1      -6.831  18.495  -3.128  1.00  0.00     0.162 HD
BRANCH  14  17
HETATM   17  C9  UNL     1      -5.086  19.120  -4.922  1.00  0.00     0.219 C 
BRANCH  17  18
HETATM   18  C10 UNL     1      -5.521  20.177  -5.971  1.00  0.00     0.009 C 
HETATM   19  C11 UNL     1      -4.887  21.550  -5.706  1.00  0.00     0.020 C 
HETATM   20  C12 UNL     1      -5.137  19.745  -7.401  1.00  0.00     0.020 C 
BRANCH  18  21
HETATM   21  C13 UNL     1      -7.068  20.284  -5.853  1.00  0.00     0.192 C 
BRANCH  21  22
HETATM   22  O4  UNL     1      -7.724  19.968  -7.064  1.00  0.00    -0.296 OA
BRANCH  22  23
HETATM   23  P1  UNL     1      -9.199  20.488  -7.417  1.00  0.00     0.401 P 
HETATM   24  O5  UNL     1      -9.698  21.572  -6.515  1.00  0.00    -0.631 OA
BRANCH  23  25
HETATM   25  O6  UNL     1     -10.152  19.191  -7.462  1.00  0.00    -0.307 OA
HETATM   26  H23 UNL     1      -9.916  18.546  -6.783  1.00  0.00     0.222 HD
ENDBRANCH  23  25
BRANCH  23  27
HETATM   27  O7  UNL     1      -9.139  20.880  -8.958  1.00  0.00    -0.195 OA
BRANCH  27  28
HETATM   28  P2  UNL     1     -10.503  21.057  -9.761  1.00  0.00     0.401 P 
HETATM   29  O8  UNL     1     -11.698  21.494  -8.978  1.00  0.00    -0.631 OA
BRANCH  28  30
HETATM   30  O9  UNL     1     -10.104  22.048 -10.948  1.00  0.00    -0.307 OA
HETATM   31  H24 UNL     1     -10.201  23.006 -10.723  1.00  0.00     0.222 HD
ENDBRANCH  28  30
BRANCH  28  32
HETATM   32  O10 UNL     1     -10.659  19.686 -10.564  1.00  0.00    -0.294 OA
BRANCH  32  33
HETATM   33  C14 UNL     1      -9.844  19.427 -11.678  1.00  0.00     0.215 C 
BRANCH  33  34
HETATM   34  C15 UNL     1     -10.407  18.168 -12.336  1.00  0.00     0.180 C 
HETATM   35  C16 UNL     1     -11.135  18.540 -13.621  1.00  0.00     0.197 C 
HETATM   36  C17 UNL     1     -12.573  18.120 -13.383  1.00  0.00     0.199 C 
HETATM   37  C18 UNL     1     -12.418  17.014 -12.337  1.00  0.00     0.262 C 
HETATM   38  O11 UNL     1     -11.332  17.466 -11.498  1.00  0.00    -0.353 OA
BRANCH  35  39
HETATM   39  O13 UNL     1     -10.535  17.818 -14.692  1.00  0.00    -0.286 OA
BRANCH  39  40
HETATM   40  P3  UNL     1     -10.027  18.704 -15.921  1.00  0.00     0.391 P 
HETATM   41  O14 UNL     1      -8.993  18.030 -16.763  1.00  0.00    -0.632 OA
BRANCH  40  42
HETATM   42  O15 UNL     1      -9.606  20.050 -15.166  1.00  0.00    -0.307 OA
HETATM   43  H36 UNL     1      -9.636  20.820 -15.783  1.00  0.00     0.222 HD
ENDBRANCH  40  42
BRANCH  40  44
HETATM   44  O16 UNL     1     -11.403  19.095 -16.617  1.00  0.00    -0.307 OA
HETATM   45  H37 UNL     1     -11.596  20.044 -16.562  1.00  0.00     0.222 HD
ENDBRANCH  40  44
ENDBRANCH  39  40
ENDBRANCH  35  39
BRANCH  36  46
HETATM   46  O12 UNL     1     -13.199  17.770 -14.620  1.00  0.00    -0.388 OA
HETATM   47  H35 UNL     1     -13.405  16.807 -14.565  1.00  0.00     0.210 HD
ENDBRANCH  36  46
BRANCH  37  48
HETATM   48  N3  UNL     1     -13.603  16.851 -11.518  1.00  0.00    -0.297 N 
HETATM   49  C19 UNL     1     -14.762  16.193 -11.856  1.00  0.00     0.188 A 
HETATM   50  N4  UNL     1     -15.602  16.113 -10.847  1.00  0.00    -0.346 N 
HETATM   51  C20 UNL     1     -14.954  16.748  -9.802  1.00  0.00     0.116 A 
HETATM   52  H4  UNL     1     -16.526  15.681 -10.837  1.00  0.00     0.167 HD
HETATM   53  C21 UNL     1     -15.298  16.961  -8.456  1.00  0.00     0.109 A 
HETATM   54  C23 UNL     1     -13.731  17.244 -10.215  1.00  0.00     0.142 A 
HETATM   55  N5  UNL     1     -14.434  17.643  -7.666  1.00  0.00    -0.341 N 
HETATM   56  C22 UNL     1     -13.285  18.089  -8.212  1.00  0.00     0.183 A 
HETATM   57  H5  UNL     1     -14.647  17.814  -6.683  1.00  0.00     0.167 HD
HETATM   58  N6  UNL     1     -12.846  17.939  -9.478  1.00  0.00    -0.336 N 
HETATM   59  H6  UNL     1     -11.961  18.304  -9.831  1.00  0.00     0.168 HD
BRANCH  53  60
HETATM   60  N7  UNL     1     -16.484  16.517  -7.893  1.00  0.00    -0.287 NA
HETATM   61  H33 UNL     1     -16.651  16.854  -6.948  1.00  0.00     0.125 HD
HETATM   62  H34 UNL     1     -16.659  15.536  -8.065  1.00  0.00     0.125 HD
ENDBRANCH  53  60
ENDBRANCH  37  48
ENDBRANCH  33  34
ENDBRANCH  32  33
ENDBRANCH  28  32
ENDBRANCH  27  28
ENDBRANCH  23  27
ENDBRANCH  22  23
ENDBRANCH  21  22
ENDBRANCH  18  21
ENDBRANCH  17  18
BRANCH  17  63
HETATM   63  O17 UNL     1      -5.060  19.743  -3.633  1.00  0.00    -0.385 OA
HETATM   64  H38 UNL     1      -4.838  19.064  -2.974  1.00  0.00     0.210 HD
ENDBRANCH  17  63
ENDBRANCH  14  17
ENDBRANCH  12  13
ENDBRANCH  11  12
ENDBRANCH   8  11
ENDBRANCH   6   7
ENDBRANCH   5   6
ENDBRANCH   4   5
ENDBRANCH   2   4
TORSDOF 27
ENDMDL
MODEL 15
REMARK VINA RESULT:      -4.4     13.423     16.785
REMARK  27 active torsions:
REMARK  status: ('A' for Active; 'I' for Inactive)
REMARK    1  A    between atoms: C2_2  and  S1_4 
REMARK    2  A    between atoms: S1_4  and  C3_5 
REMARK    3  A    between atoms: C3_5  and  C4_6 
REMARK    4  A    between atoms: C4_6  and  N1_7 
REMARK       I    between atoms: N1_7  and  C5_8 
REMARK    5  A    between atoms: C5_8  and  C6_10 
REMARK    6  A    between atoms: C6_10  and  C7_11 
REMARK    7  A    between atoms: C7_11  and  N2_12 
REMARK       I    between atoms: N2_12  and  C8_13 
REMARK    8  A    between atoms: C8_13  and  C9_15 
REMARK    9  A    between atoms: C9_15  and  C10_16 
REMARK   10  A    between atoms: C9_15  and  O17_54 
REMARK   11  A    between atoms: C10_16  and  C13_19 
REMARK   12  A    between atoms: C13_19  and  O4_20 
REMARK   13  A    between atoms: O4_20  and  P1_21 
REMARK   14  A    between atoms: P1_21  and  O6_23 
REMARK   15  A    between atoms: P1_21  and  O7_24 
REMARK   16  A    between atoms: O7_24  and  P2_25 
REMARK   17  A    between atoms: P2_25  and  O9_27 
REMARK   18  A    between atoms: P2_25  and  O10_28 
REMARK   19  A    between atoms: O10_28  and  C14_29 
REMARK   20  A    between atoms: C14_29  and  C15_30 
REMARK   21  A    between atoms: C16_31  and  O13_49 
REMARK   22  A    between atoms: C17_32  and  O12_48 
REMARK   23  A    between atoms: C18_33  and  N3_35 
REMARK   24  A    between atoms: C21_40  and  N7_47 
REMARK   25  A    between atoms: O13_49  and  P3_50 
REMARK   26  A    between atoms: P3_50  and  O15_52 
REMARK   27  A    between atoms: P3_50  and  O16_53 
ROOT
HETATM    1  C1  UNL     1     -14.930  21.424  -1.515  1.00  0.00     0.104 C 
HETATM    2  C2  UNL     1     -13.480  21.227  -1.196  1.00  0.00     0.182 C 
HETATM    3  O1  UNL     1     -13.064  20.996  -0.063  1.00  0.00    -0.286 OA
ENDROOT
BRANCH   2   4
HETATM    4  S1  UNL     1     -12.404  21.392  -2.577  1.00  0.00    -0.091 SA
BRANCH   4   5
HETATM    5  C3  UNL     1     -10.849  21.815  -1.727  1.00  0.00     0.102 C 
BRANCH   5   6
HETATM    6  C4  UNL     1      -9.630  21.230  -2.444  1.00  0.00     0.133 C 
BRANCH   6   7
HETATM    7  N1  UNL     1      -9.415  19.833  -2.131  1.00  0.00    -0.360 N 
HETATM    8  C5  UNL     1      -9.593  18.844  -3.070  1.00  0.00     0.219 C 
HETATM    9  O2  UNL     1     -10.020  19.073  -4.196  1.00  0.00    -0.274 OA
HETATM   10  H8  UNL     1      -9.118  19.584  -1.196  1.00  0.00     0.162 HD
BRANCH   8  11
HETATM   11  C6  UNL     1      -9.262  17.460  -2.554  1.00  0.00     0.122 C 
BRANCH  11  12
HETATM   12  C7  UNL     1      -8.070  16.848  -3.289  1.00  0.00     0.132 C 
BRANCH  12  13
HETATM   13  N2  UNL     1      -7.018  17.805  -3.560  1.00  0.00    -0.358 N 
HETATM   14  C8  UNL     1      -6.049  17.525  -4.506  1.00  0.00     0.247 C 
HETATM   15  O3  UNL     1      -5.970  16.433  -5.055  1.00  0.00    -0.271 OA
HETATM   16  H13 UNL     1      -7.270  18.782  -3.426  1.00  0.00     0.162 HD
BRANCH  14  17
HETATM   17  C9  UNL     1      -5.101  18.692  -4.822  1.00  0.00     0.219 C 
BRANCH  17  18
HETATM   18  C10 UNL     1      -5.610  19.650  -5.931  1.00  0.00     0.009 C 
HETATM   19  C11 UNL     1      -5.673  21.108  -5.451  1.00  0.00     0.020 C 
HETATM   20  C12 UNL     1      -4.707  19.600  -7.180  1.00  0.00     0.020 C 
BRANCH  18  21
HETATM   21  C13 UNL     1      -7.040  19.159  -6.297  1.00  0.00     0.192 C 
BRANCH  21  22
HETATM   22  O4  UNL     1      -7.616  19.912  -7.345  1.00  0.00    -0.296 OA
BRANCH  22  23
HETATM   23  P1  UNL     1      -9.067  20.586  -7.237  1.00  0.00     0.401 P 
HETATM   24  O5  UNL     1      -9.175  21.640  -6.180  1.00  0.00    -0.631 OA
BRANCH  23  25
HETATM   25  O6  UNL     1     -10.126  19.386  -7.068  1.00  0.00    -0.307 OA
HETATM   26  H23 UNL     1     -10.035  18.941  -6.216  1.00  0.00     0.222 HD
ENDBRANCH  23  25
BRANCH  23  27
HETATM   27  O7  UNL     1      -9.398  21.086  -8.711  1.00  0.00    -0.195 OA
BRANCH  27  28
HETATM   28  P2  UNL     1      -9.459  22.652  -8.997  1.00  0.00     0.401 P 
HETATM   29  O8  UNL     1     -10.519  23.429  -8.286  1.00  0.00    -0.631 OA
BRANCH  28  30
HETATM   30  O9  UNL     1      -7.972  23.141  -8.683  1.00  0.00    -0.307 OA
HETATM   31  H24 UNL     1      -7.888  23.668  -7.851  1.00  0.00     0.222 HD
ENDBRANCH  28  30
BRANCH  28  32
HETATM   32  O10 UNL     1      -9.471  22.753 -10.591  1.00  0.00    -0.294 OA
BRANCH  32  33
HETATM   33  C14 UNL     1      -8.775  21.808 -11.359  1.00  0.00     0.215 C 
BRANCH  33  34
HETATM   34  C15 UNL     1      -7.622  22.561 -12.021  1.00  0.00     0.180 C 
HETATM   35  C16 UNL     1      -7.226  21.863 -13.316  1.00  0.00     0.197 C 
HETATM   36  C17 UNL     1      -5.790  21.427 -13.094  1.00  0.00     0.199 C 
HETATM   37  C18 UNL     1      -5.307  22.430 -12.043  1.00  0.00     0.262 C 
HETATM   38  O11 UNL     1      -6.456  22.636 -11.192  1.00  0.00    -0.353 OA
BRANCH  35  39
HETATM   39  O13 UNL     1      -7.344  22.805 -14.377  1.00  0.00    -0.286 OA
BRANCH  39  40
HETATM   40  P3  UNL     1      -8.222  22.329 -15.626  1.00  0.00     0.391 P 
HETATM   41  O14 UNL     1      -8.946  23.443 -16.312  1.00  0.00    -0.632 OA
BRANCH  40  42
HETATM   42  O15 UNL     1      -9.103  21.178 -14.951  1.00  0.00    -0.307 OA
HETATM   43  H36 UNL     1      -8.832  21.036 -14.013  1.00  0.00     0.222 HD
ENDBRANCH  40  42
BRANCH  40  44
HETATM   44  O16 UNL     1      -7.150  21.515 -16.473  1.00  0.00    -0.307 OA
HETATM   45  H37 UNL     1      -6.303  21.415 -16.011  1.00  0.00     0.222 HD
ENDBRANCH  40  44
ENDBRANCH  39  40
ENDBRANCH  35  39
BRANCH  36  46
HETATM   46  O12 UNL     1      -5.086  21.389 -14.338  1.00  0.00    -0.388 OA
HETATM   47  H35 UNL     1      -5.684  21.797 -15.009  1.00  0.00     0.210 HD
ENDBRANCH  36  46
BRANCH  37  48
HETATM   48  N3  UNL     1      -4.218  21.912 -11.239  1.00  0.00    -0.297 N 
HETATM   49  C19 UNL     1      -3.230  21.043 -11.639  1.00  0.00     0.188 A 
HETATM   50  N4  UNL     1      -2.317  20.865 -10.709  1.00  0.00    -0.346 N 
HETATM   51  C20 UNL     1      -2.731  21.661  -9.656  1.00  0.00     0.116 A 
HETATM   52  H4  UNL     1      -1.488  20.272 -10.754  1.00  0.00     0.167 HD
HETATM   53  C21 UNL     1      -2.173  21.942  -8.397  1.00  0.00     0.109 A 
HETATM   54  C23 UNL     1      -3.928  22.284  -9.956  1.00  0.00     0.142 A 
HETATM   55  N5  UNL     1      -2.840  22.776  -7.563  1.00  0.00    -0.341 N 
HETATM   56  C22 UNL     1      -4.013  23.293  -7.981  1.00  0.00     0.183 A 
HETATM   57  H5  UNL     1      -2.465  23.006  -6.643  1.00  0.00     0.167 HD
HETATM   58  N6  UNL     1      -4.638  23.105  -9.161  1.00  0.00    -0.336 N 
HETATM   59  H6  UNL     1      -5.530  23.529  -9.417  1.00  0.00     0.168 HD
BRANCH  53  60
HETATM   60  N7  UNL     1      -0.976  21.400  -7.956  1.00  0.00    -0.287 NA
HETATM   61  H33 UNL     1      -0.172  21.636  -8.534  1.00  0.00     0.125 HD
HETATM   62  H34 UNL     1      -1.062  20.435  -7.667  1.00  0.00     0.125 HD
ENDBRANCH  53  60
ENDBRANCH  37  48
ENDBRANCH  33  34
ENDBRANCH  32  33
ENDBRANCH  28  32
ENDBRANCH  27  28
ENDBRANCH  23  27
ENDBRANCH  22  23
ENDBRANCH  21  22
ENDBRANCH  18  21
ENDBRANCH  17  18
BRANCH  17  63
HETATM   63  O17 UNL     1      -4.851  19.458  -3.639  1.00  0.00    -0.385 OA
HETATM   64  H38 UNL     1      -3.889  19.567  -3.548  1.00  0.00     0.210 HD
ENDBRANCH  17  63
ENDBRANCH  14  17
ENDBRANCH  12  13
ENDBRANCH  11  12
ENDBRANCH   8  11
ENDBRANCH   6   7
ENDBRANCH   5   6
ENDBRANCH   4   5
ENDBRANCH   2   4
TORSDOF 27
ENDMDL
MODEL 16
REMARK VINA RESULT:      -4.4     15.970     19.234
REMARK  27 active torsions:
REMARK  status: ('A' for Active; 'I' for Inactive)
REMARK    1  A    between atoms: C2_2  and  S1_4 
REMARK    2  A    between atoms: S1_4  and  C3_5 
REMARK    3  A    between atoms: C3_5  and  C4_6 
REMARK    4  A    between atoms: C4_6  and  N1_7 
REMARK       I    between atoms: N1_7  and  C5_8 
REMARK    5  A    between atoms: C5_8  and  C6_10 
REMARK    6  A    between atoms: C6_10  and  C7_11 
REMARK    7  A    between atoms: C7_11  and  N2_12 
REMARK       I    between atoms: N2_12  and  C8_13 
REMARK    8  A    between atoms: C8_13  and  C9_15 
REMARK    9  A    between atoms: C9_15  and  C10_16 
REMARK   10  A    between atoms: C9_15  and  O17_54 
REMARK   11  A    between atoms: C10_16  and  C13_19 
REMARK   12  A    between atoms: C13_19  and  O4_20 
REMARK   13  A    between atoms: O4_20  and  P1_21 
REMARK   14  A    between atoms: P1_21  and  O6_23 
REMARK   15  A    between atoms: P1_21  and  O7_24 
REMARK   16  A    between atoms: O7_24  and  P2_25 
REMARK   17  A    between atoms: P2_25  and  O9_27 
REMARK   18  A    between atoms: P2_25  and  O10_28 
REMARK   19  A    between atoms: O10_28  and  C14_29 
REMARK   20  A    between atoms: C14_29  and  C15_30 
REMARK   21  A    between atoms: C16_31  and  O13_49 
REMARK   22  A    between atoms: C17_32  and  O12_48 
REMARK   23  A    between atoms: C18_33  and  N3_35 
REMARK   24  A    between atoms: C21_40  and  N7_47 
REMARK   25  A    between atoms: O13_49  and  P3_50 
REMARK   26  A    between atoms: P3_50  and  O15_52 
REMARK   27  A    between atoms: P3_50  and  O16_53 
ROOT
HETATM    1  C1  UNL     1     -14.902  21.474  -1.616  1.00  0.00     0.104 C 
HETATM    2  C2  UNL     1     -13.466  21.277  -1.236  1.00  0.00     0.182 C 
HETATM    3  O1  UNL     1     -13.102  21.000  -0.096  1.00  0.00    -0.286 OA
ENDROOT
BRANCH   2   4
HETATM    4  S1  UNL     1     -12.328  21.513  -2.555  1.00  0.00    -0.091 SA
BRANCH   4   5
HETATM    5  C3  UNL     1     -10.790  21.771  -1.613  1.00  0.00     0.102 C 
BRANCH   5   6
HETATM    6  C4  UNL     1      -9.568  21.228  -2.356  1.00  0.00     0.133 C 
BRANCH   6   7
HETATM    7  N1  UNL     1      -9.334  19.822  -2.097  1.00  0.00    -0.360 N 
HETATM    8  C5  UNL     1      -9.539  18.864  -3.062  1.00  0.00     0.219 C 
HETATM    9  O2  UNL     1     -10.004  19.127  -4.165  1.00  0.00    -0.274 OA
HETATM   10  H8  UNL     1      -9.005  19.544  -1.182  1.00  0.00     0.162 HD
BRANCH   8  11
HETATM   11  C6  UNL     1      -9.183  17.466  -2.604  1.00  0.00     0.122 C 
BRANCH  11  12
HETATM   12  C7  UNL     1      -7.982  16.904  -3.365  1.00  0.00     0.132 C 
BRANCH  12  13
HETATM   13  N2  UNL     1      -6.953  17.893  -3.611  1.00  0.00    -0.358 N 
HETATM   14  C8  UNL     1      -6.040  17.708  -4.633  1.00  0.00     0.247 C 
HETATM   15  O3  UNL     1      -5.988  16.671  -5.280  1.00  0.00    -0.271 OA
HETATM   16  H13 UNL     1      -7.202  18.852  -3.376  1.00  0.00     0.162 HD
BRANCH  14  17
HETATM   17  C9  UNL     1      -5.119  18.909  -4.898  1.00  0.00     0.219 C 
BRANCH  17  18
HETATM   18  C10 UNL     1      -5.637  19.888  -5.984  1.00  0.00     0.009 C 
HETATM   19  C11 UNL     1      -5.301  21.350  -5.652  1.00  0.00     0.020 C 
HETATM   20  C12 UNL     1      -5.039  19.565  -7.368  1.00  0.00     0.020 C 
BRANCH  18  21
HETATM   21  C13 UNL     1      -7.181  19.704  -6.024  1.00  0.00     0.192 C 
BRANCH  21  22
HETATM   22  O4  UNL     1      -7.713  19.895  -7.319  1.00  0.00    -0.296 OA
BRANCH  22  23
HETATM   23  P1  UNL     1      -9.232  20.341  -7.579  1.00  0.00     0.401 P 
HETATM   24  O5  UNL     1      -9.595  21.660  -6.972  1.00  0.00    -0.631 OA
BRANCH  23  25
HETATM   25  O6  UNL     1     -10.164  19.123  -7.093  1.00  0.00    -0.307 OA
HETATM   26  H23 UNL     1     -10.066  18.345  -7.656  1.00  0.00     0.222 HD
ENDBRANCH  23  25
BRANCH  23  27
HETATM   27  O7  UNL     1      -9.418  20.262  -9.157  1.00  0.00    -0.195 OA
BRANCH  27  28
HETATM   28  P2  UNL     1     -10.137  18.986  -9.785  1.00  0.00     0.401 P 
HETATM   29  O8  UNL     1      -9.615  17.647  -9.378  1.00  0.00    -0.631 OA
BRANCH  28  30
HETATM   30  O9  UNL     1     -11.676  19.221  -9.428  1.00  0.00    -0.307 OA
HETATM   31  H24 UNL     1     -11.898  19.064  -8.478  1.00  0.00     0.222 HD
ENDBRANCH  28  30
BRANCH  28  32
HETATM   32  O10 UNL     1     -10.151  19.283 -11.354  1.00  0.00    -0.294 OA
BRANCH  32  33
HETATM   33  C14 UNL     1     -10.923  20.339 -11.862  1.00  0.00     0.215 C 
BRANCH  33  34
HETATM   34  C15 UNL     1     -11.037  20.100 -13.366  1.00  0.00     0.180 C 
HETATM   35  C16 UNL     1     -12.095  19.040 -13.642  1.00  0.00     0.197 C 
HETATM   36  C17 UNL     1     -11.339  17.903 -14.302  1.00  0.00     0.199 C 
HETATM   37  C18 UNL     1     -10.140  18.628 -14.918  1.00  0.00     0.262 C 
HETATM   38  O11 UNL     1      -9.810  19.653 -13.955  1.00  0.00    -0.353 OA
BRANCH  35  39
HETATM   39  O13 UNL     1     -13.074  19.608 -14.506  1.00  0.00    -0.286 OA
BRANCH  39  40
HETATM   40  P3  UNL     1     -14.576  19.580 -13.960  1.00  0.00     0.391 P 
HETATM   41  O14 UNL     1     -15.379  20.781 -14.342  1.00  0.00    -0.632 OA
BRANCH  40  42
HETATM   42  O15 UNL     1     -14.323  19.324 -12.401  1.00  0.00    -0.307 OA
HETATM   43  H36 UNL     1     -13.369  19.442 -12.179  1.00  0.00     0.222 HD
ENDBRANCH  40  42
BRANCH  40  44
HETATM   44  O16 UNL     1     -15.075  18.164 -14.483  1.00  0.00    -0.307 OA
HETATM   45  H37 UNL     1     -15.436  17.607 -13.775  1.00  0.00     0.222 HD
ENDBRANCH  40  44
ENDBRANCH  39  40
ENDBRANCH  35  39
BRANCH  36  46
HETATM   46  O12 UNL     1     -12.200  17.185 -15.190  1.00  0.00    -0.388 OA
HETATM   47  H35 UNL     1     -12.505  17.835 -15.867  1.00  0.00     0.210 HD
ENDBRANCH  36  46
BRANCH  37  48
HETATM   48  N3  UNL     1      -8.992  17.760 -15.088  1.00  0.00    -0.297 N 
HETATM   49  C19 UNL     1      -7.904  17.649 -14.254  1.00  0.00     0.188 A 
HETATM   50  N4  UNL     1      -7.093  16.680 -14.619  1.00  0.00    -0.346 N 
HETATM   51  C20 UNL     1      -7.687  16.133 -15.743  1.00  0.00     0.116 A 
HETATM   52  H4  UNL     1      -6.221  16.395 -14.174  1.00  0.00     0.167 HD
HETATM   53  C21 UNL     1      -7.343  15.050 -16.571  1.00  0.00     0.109 A 
HETATM   54  C23 UNL     1      -8.843  16.818 -16.067  1.00  0.00     0.142 A 
HETATM   55  N5  UNL     1      -8.142  14.762 -17.627  1.00  0.00    -0.341 N 
HETATM   56  C22 UNL     1      -9.227  15.533 -17.835  1.00  0.00     0.183 A 
HETATM   57  H5  UNL     1      -7.926  13.982 -18.248  1.00  0.00     0.167 HD
HETATM   58  N6  UNL     1      -9.660  16.584 -17.109  1.00  0.00    -0.336 N 
HETATM   59  H6  UNL     1     -10.496  17.129 -17.322  1.00  0.00     0.168 HD
BRANCH  53  60
HETATM   60  N7  UNL     1      -6.220  14.264 -16.370  1.00  0.00    -0.287 NA
HETATM   61  H33 UNL     1      -6.040  14.031 -15.396  1.00  0.00     0.125 HD
HETATM   62  H34 UNL     1      -5.426  14.561 -16.921  1.00  0.00     0.125 HD
ENDBRANCH  53  60
ENDBRANCH  37  48
ENDBRANCH  33  34
ENDBRANCH  32  33
ENDBRANCH  28  32
ENDBRANCH  27  28
ENDBRANCH  23  27
ENDBRANCH  22  23
ENDBRANCH  21  22
ENDBRANCH  18  21
ENDBRANCH  17  18
BRANCH  17  63
HETATM   63  O17 UNL     1      -4.906  19.644  -3.688  1.00  0.00    -0.385 OA
HETATM   64  H38 UNL     1      -4.917  19.015  -2.947  1.00  0.00     0.210 HD
ENDBRANCH  17  63
ENDBRANCH  14  17
ENDBRANCH  12  13
ENDBRANCH  11  12
ENDBRANCH   8  11
ENDBRANCH   6   7
ENDBRANCH   5   6
ENDBRANCH   4   5
ENDBRANCH   2   4
TORSDOF 27
ENDMDL
MODEL 17
REMARK VINA RESULT:      -4.1      3.090     11.846
REMARK  27 active torsions:
REMARK  status: ('A' for Active; 'I' for Inactive)
REMARK    1  A    between atoms: C2_2  and  S1_4 
REMARK    2  A    between atoms: S1_4  and  C3_5 
REMARK    3  A    between atoms: C3_5  and  C4_6 
REMARK    4  A    between atoms: C4_6  and  N1_7 
REMARK       I    between atoms: N1_7  and  C5_8 
REMARK    5  A    between atoms: C5_8  and  C6_10 
REMARK    6  A    between atoms: C6_10  and  C7_11 
REMARK    7  A    between atoms: C7_11  and  N2_12 
REMARK       I    between atoms: N2_12  and  C8_13 
REMARK    8  A    between atoms: C8_13  and  C9_15 
REMARK    9  A    between atoms: C9_15  and  C10_16 
REMARK   10  A    between atoms: C9_15  and  O17_54 
REMARK   11  A    between atoms: C10_16  and  C13_19 
REMARK   12  A    between atoms: C13_19  and  O4_20 
REMARK   13  A    between atoms: O4_20  and  P1_21 
REMARK   14  A    between atoms: P1_21  and  O6_23 
REMARK   15  A    between atoms: P1_21  and  O7_24 
REMARK   16  A    between atoms: O7_24  and  P2_25 
REMARK   17  A    between atoms: P2_25  and  O9_27 
REMARK   18  A    between atoms: P2_25  and  O10_28 
REMARK   19  A    between atoms: O10_28  and  C14_29 
REMARK   20  A    between atoms: C14_29  and  C15_30 
REMARK   21  A    between atoms: C16_31  and  O13_49 
REMARK   22  A    between atoms: C17_32  and  O12_48 
REMARK   23  A    between atoms: C18_33  and  N3_35 
REMARK   24  A    between atoms: C21_40  and  N7_47 
REMARK   25  A    between atoms: O13_49  and  P3_50 
REMARK   26  A    between atoms: P3_50  and  O15_52 
REMARK   27  A    between atoms: P3_50  and  O16_53 
ROOT
HETATM    1  C1  UNL     1       4.223  15.920  -5.120  1.00  0.00     0.104 C 
HETATM    2  C2  UNL     1       4.491  17.303  -5.628  1.00  0.00     0.182 C 
HETATM    3  O1  UNL     1       4.470  18.301  -4.911  1.00  0.00    -0.286 OA
ENDROOT
BRANCH   2   4
HETATM    4  S1  UNL     1       4.802  17.393  -7.356  1.00  0.00    -0.091 SA
BRANCH   4   5
HETATM    5  C3  UNL     1       5.599  19.029  -7.457  1.00  0.00     0.102 C 
BRANCH   5   6
HETATM    6  C4  UNL     1       4.832  19.981  -8.376  1.00  0.00     0.133 C 
BRANCH   6   7
HETATM    7  N1  UNL     1       5.208  21.367  -8.184  1.00  0.00    -0.360 N 
HETATM    8  C5  UNL     1       4.455  22.221  -7.412  1.00  0.00     0.219 C 
HETATM    9  O2  UNL     1       3.388  21.888  -6.909  1.00  0.00    -0.274 OA
HETATM   10  H8  UNL     1       6.051  21.708  -8.627  1.00  0.00     0.162 HD
BRANCH   8  11
HETATM   11  C6  UNL     1       5.052  23.607  -7.296  1.00  0.00     0.122 C 
BRANCH  11  12
HETATM   12  C7  UNL     1       6.323  23.613  -6.447  1.00  0.00     0.132 C 
BRANCH  12  13
HETATM   13  N2  UNL     1       6.691  22.297  -5.969  1.00  0.00    -0.358 N 
HETATM   14  C8  UNL     1       6.416  21.927  -4.665  1.00  0.00     0.247 C 
HETATM   15  O3  UNL     1       5.968  22.718  -3.844  1.00  0.00    -0.271 OA
HETATM   16  H13 UNL     1       6.694  21.560  -6.671  1.00  0.00     0.162 HD
BRANCH  14  17
HETATM   17  C9  UNL     1       6.696  20.452  -4.341  1.00  0.00     0.219 C 
BRANCH  17  18
HETATM   18  C10 UNL     1       8.201  20.080  -4.291  1.00  0.00     0.009 C 
HETATM   19  C11 UNL     1       8.670  19.392  -5.581  1.00  0.00     0.020 C 
HETATM   20  C12 UNL     1       9.084  21.325  -4.068  1.00  0.00     0.020 C 
BRANCH  18  21
HETATM   21  C13 UNL     1       8.360  19.103  -3.090  1.00  0.00     0.192 C 
BRANCH  21  22
HETATM   22  O4  UNL     1       8.662  17.786  -3.505  1.00  0.00    -0.296 OA
BRANCH  22  23
HETATM   23  P1  UNL     1       7.558  16.627  -3.594  1.00  0.00     0.401 P 
HETATM   24  O5  UNL     1       7.452  15.985  -4.941  1.00  0.00    -0.631 OA
BRANCH  23  25
HETATM   25  O6  UNL     1       6.175  17.260  -3.066  1.00  0.00    -0.307 OA
HETATM   26  H23 UNL     1       5.430  17.026  -3.634  1.00  0.00     0.222 HD
ENDBRANCH  23  25
BRANCH  23  27
HETATM   27  O7  UNL     1       7.914  15.628  -2.408  1.00  0.00    -0.195 OA
BRANCH  27  28
HETATM   28  P2  UNL     1       6.781  14.653  -1.856  1.00  0.00     0.401 P 
HETATM   29  O8  UNL     1       5.612  15.290  -1.177  1.00  0.00    -0.631 OA
BRANCH  28  30
HETATM   30  O9  UNL     1       6.394  13.779  -3.135  1.00  0.00    -0.307 OA
HETATM   31  H24 UNL     1       7.159  13.311  -3.550  1.00  0.00     0.222 HD
ENDBRANCH  28  30
BRANCH  28  32
HETATM   32  O10 UNL     1       7.585  13.575  -0.996  1.00  0.00    -0.294 OA
BRANCH  32  33
HETATM   33  C14 UNL     1       6.896  12.540  -0.345  1.00  0.00     0.215 C 
BRANCH  33  34
HETATM   34  C15 UNL     1       7.861  11.356  -0.285  1.00  0.00     0.180 C 
HETATM   35  C16 UNL     1       7.081  10.066  -0.068  1.00  0.00     0.197 C 
HETATM   36  C17 UNL     1       7.574   9.538   1.265  1.00  0.00     0.199 C 
HETATM   37  C18 UNL     1       8.970  10.159   1.362  1.00  0.00     0.262 C 
HETATM   38  O11 UNL     1       8.819  11.470   0.774  1.00  0.00    -0.353 OA
BRANCH  35  39
HETATM   39  O13 UNL     1       7.385   9.182  -1.142  1.00  0.00    -0.286 OA
BRANCH  39  40
HETATM   40  P3  UNL     1       6.127   8.640  -1.966  1.00  0.00     0.391 P 
HETATM   41  O14 UNL     1       6.433   8.325  -3.394  1.00  0.00    -0.632 OA
BRANCH  40  42
HETATM   42  O15 UNL     1       5.059   9.795  -1.675  1.00  0.00    -0.307 OA
HETATM   43  H36 UNL     1       5.138  10.519  -2.340  1.00  0.00     0.222 HD
ENDBRANCH  40  42
BRANCH  40  44
HETATM   44  O16 UNL     1       5.632   7.447  -1.038  1.00  0.00    -0.307 OA
HETATM   45  H37 UNL     1       6.364   6.939  -0.655  1.00  0.00     0.222 HD
ENDBRANCH  40  44
ENDBRANCH  39  40
ENDBRANCH  35  39
BRANCH  36  46
HETATM   46  O12 UNL     1       7.487   8.111   1.297  1.00  0.00    -0.388 OA
HETATM   47  H35 UNL     1       8.064   7.781   0.567  1.00  0.00     0.210 HD
ENDBRANCH  36  46
BRANCH  37  48
HETATM   48  N3  UNL     1       9.417  10.312   2.732  1.00  0.00    -0.297 N 
HETATM   49  C19 UNL     1      10.681  10.080   3.225  1.00  0.00     0.188 A 
HETATM   50  N4  UNL     1      10.796  10.434   4.486  1.00  0.00    -0.346 N 
HETATM   51  C20 UNL     1       9.548  10.923   4.827  1.00  0.00     0.116 A 
HETATM   52  H4  UNL     1      11.622  10.363   5.081  1.00  0.00     0.167 HD
HETATM   53  C21 UNL     1       9.037  11.490   6.007  1.00  0.00     0.109 A 
HETATM   54  C23 UNL     1       8.673  10.817   3.761  1.00  0.00     0.142 A 
HETATM   55  N5  UNL     1       7.737  11.873   6.033  1.00  0.00    -0.341 N 
HETATM   56  C22 UNL     1       6.994  11.687   4.924  1.00  0.00     0.183 A 
HETATM   57  H5  UNL     1       7.331  12.292   6.870  1.00  0.00     0.167 HD
HETATM   58  N6  UNL     1       7.375  11.166   3.739  1.00  0.00    -0.336 N 
HETATM   59  H6  UNL     1       6.759  11.051   2.933  1.00  0.00     0.168 HD
BRANCH  53  60
HETATM   60  N7  UNL     1       9.791  11.671   7.155  1.00  0.00    -0.287 NA
HETATM   61  H33 UNL     1       9.339  11.351   8.009  1.00  0.00     0.125 HD
HETATM   62  H34 UNL     1      10.246  12.573   7.191  1.00  0.00     0.125 HD
ENDBRANCH  53  60
ENDBRANCH  37  48
ENDBRANCH  33  34
ENDBRANCH  32  33
ENDBRANCH  28  32
ENDBRANCH  27  28
ENDBRANCH  23  27
ENDBRANCH  22  23
ENDBRANCH  21  22
ENDBRANCH  18  21
ENDBRANCH  17  18
BRANCH  17  63
HETATM   63  O17 UNL     1       6.099  20.101  -3.088  1.00  0.00    -0.385 OA
HETATM   64  H38 UNL     1       6.782  20.168  -2.399  1.00  0.00     0.210 HD
ENDBRANCH  17  63
ENDBRANCH  14  17
ENDBRANCH  12  13
ENDBRANCH  11  12
ENDBRANCH   8  11
ENDBRANCH   6   7
ENDBRANCH   5   6
ENDBRANCH   4   5
ENDBRANCH   2   4
TORSDOF 27
ENDMDL
MODEL 18
REMARK VINA RESULT:      -4.1      4.215      7.375
REMARK  27 active torsions:
REMARK  status: ('A' for Active; 'I' for Inactive)
REMARK    1  A    between atoms: C2_2  and  S1_4 
REMARK    2  A    between atoms: S1_4  and  C3_5 
REMARK    3  A    between atoms: C3_5  and  C4_6 
REMARK    4  A    between atoms: C4_6  and  N1_7 
REMARK       I    between atoms: N1_7  and  C5_8 
REMARK    5  A    between atoms: C5_8  and  C6_10 
REMARK    6  A    between atoms: C6_10  and  C7_11 
REMARK    7  A    between atoms: C7_11  and  N2_12 
REMARK       I    between atoms: N2_12  and  C8_13 
REMARK    8  A    between atoms: C8_13  and  C9_15 
REMARK    9  A    between atoms: C9_15  and  C10_16 
REMARK   10  A    between atoms: C9_15  and  O17_54 
REMARK   11  A    between atoms: C10_16  and  C13_19 
REMARK   12  A    between atoms: C13_19  and  O4_20 
REMARK   13  A    between atoms: O4_20  and  P1_21 
REMARK   14  A    between atoms: P1_21  and  O6_23 
REMARK   15  A    between atoms: P1_21  and  O7_24 
REMARK   16  A    between atoms: O7_24  and  P2_25 
REMARK   17  A    between atoms: P2_25  and  O9_27 
REMARK   18  A    between atoms: P2_25  and  O10_28 
REMARK   19  A    between atoms: O10_28  and  C14_29 
REMARK   20  A    between atoms: C14_29  and  C15_30 
REMARK   21  A    between atoms: C16_31  and  O13_49 
REMARK   22  A    between atoms: C17_32  and  O12_48 
REMARK   23  A    between atoms: C18_33  and  N3_35 
REMARK   24  A    between atoms: C21_40  and  N7_47 
REMARK   25  A    between atoms: O13_49  and  P3_50 
REMARK   26  A    between atoms: P3_50  and  O15_52 
REMARK   27  A    between atoms: P3_50  and  O16_53 
ROOT
HETATM    1  C1  UNL     1      10.888  13.109   8.323  1.00  0.00     0.104 C 
HETATM    2  C2  UNL     1      10.942  11.922   7.410  1.00  0.00     0.182 C 
HETATM    3  O1  UNL     1       9.970  11.210   7.171  1.00  0.00    -0.286 OA
ENDROOT
BRANCH   2   4
HETATM    4  S1  UNL     1      12.532  11.601   6.731  1.00  0.00    -0.091 SA
BRANCH   4   5
HETATM    5  C3  UNL     1      12.083  10.467   5.378  1.00  0.00     0.102 C 
BRANCH   5   6
HETATM    6  C4  UNL     1      11.579  11.220   4.145  1.00  0.00     0.133 C 
BRANCH   6   7
HETATM    7  N1  UNL     1      10.523  10.513   3.451  1.00  0.00    -0.360 N 
HETATM    8  C5  UNL     1       9.195  10.800   3.668  1.00  0.00     0.219 C 
HETATM    9  O2  UNL     1       8.824  11.607   4.513  1.00  0.00    -0.274 OA
HETATM   10  H8  UNL     1      10.774   9.796   2.784  1.00  0.00     0.162 HD
BRANCH   8  11
HETATM   11  C6  UNL     1       8.257   9.987   2.802  1.00  0.00     0.122 C 
BRANCH  11  12
HETATM   12  C7  UNL     1       9.011   8.993   1.921  1.00  0.00     0.132 C 
BRANCH  12  13
HETATM   13  N2  UNL     1       8.235   8.537   0.786  1.00  0.00    -0.358 N 
HETATM   14  C8  UNL     1       7.477   7.385   0.879  1.00  0.00     0.247 C 
HETATM   15  O3  UNL     1       7.521   6.653   1.859  1.00  0.00    -0.271 OA
HETATM   16  H13 UNL     1       7.897   9.269   0.165  1.00  0.00     0.162 HD
BRANCH  14  17
HETATM   17  C9  UNL     1       6.567   7.114  -0.329  1.00  0.00     0.219 C 
BRANCH  17  18
HETATM   18  C10 UNL     1       5.697   8.322  -0.763  1.00  0.00     0.009 C 
HETATM   19  C11 UNL     1       5.878   9.529   0.169  1.00  0.00     0.020 C 
HETATM   20  C12 UNL     1       6.035   8.776  -2.198  1.00  0.00     0.020 C 
BRANCH  18  21
HETATM   21  C13 UNL     1       4.223   7.830  -0.701  1.00  0.00     0.192 C 
BRANCH  21  22
HETATM   22  O4  UNL     1       3.312   8.886  -0.466  1.00  0.00    -0.296 OA
BRANCH  22  23
HETATM   23  P1  UNL     1       2.471   9.587  -1.637  1.00  0.00     0.401 P 
HETATM   24  O5  UNL     1       1.128  10.090  -1.209  1.00  0.00    -0.631 OA
BRANCH  23  25
HETATM   25  O6  UNL     1       2.413   8.540  -2.859  1.00  0.00    -0.307 OA
HETATM   26  H23 UNL     1       3.242   8.055  -2.959  1.00  0.00     0.222 HD
ENDBRANCH  23  25
BRANCH  23  27
HETATM   27  O7  UNL     1       3.440  10.700  -2.230  1.00  0.00    -0.195 OA
BRANCH  27  28
HETATM   28  P2  UNL     1       2.821  12.094  -2.689  1.00  0.00     0.401 P 
HETATM   29  O8  UNL     1       1.898  12.071  -3.864  1.00  0.00    -0.631 OA
BRANCH  28  30
HETATM   30  O9  UNL     1       2.158  12.660  -1.352  1.00  0.00    -0.307 OA
HETATM   31  H24 UNL     1       2.525  13.528  -1.055  1.00  0.00     0.222 HD
ENDBRANCH  28  30
BRANCH  28  32
HETATM   32  O10 UNL     1       4.089  13.056  -2.818  1.00  0.00    -0.294 OA
BRANCH  32  33
HETATM   33  C14 UNL     1       5.084  13.042  -1.828  1.00  0.00     0.215 C 
BRANCH  33  34
HETATM   34  C15 UNL     1       6.380  13.464  -2.519  1.00  0.00     0.180 C 
HETATM   35  C16 UNL     1       7.066  14.555  -1.707  1.00  0.00     0.197 C 
HETATM   36  C17 UNL     1       7.093  15.760  -2.628  1.00  0.00     0.199 C 
HETATM   37  C18 UNL     1       7.043  15.109  -4.013  1.00  0.00     0.262 C 
HETATM   38  O11 UNL     1       6.168  13.973  -3.841  1.00  0.00    -0.353 OA
BRANCH  35  39
HETATM   39  O13 UNL     1       8.374  14.101  -1.377  1.00  0.00    -0.286 OA
BRANCH  39  40
HETATM   40  P3  UNL     1       8.503  13.319   0.011  1.00  0.00     0.391 P 
HETATM   41  O14 UNL     1       8.442  11.832  -0.127  1.00  0.00    -0.632 OA
BRANCH  40  42
HETATM   42  O15 UNL     1       7.351  14.031   0.864  1.00  0.00    -0.307 OA
HETATM   43  H36 UNL     1       6.506  14.057   0.355  1.00  0.00     0.222 HD
ENDBRANCH  40  42
BRANCH  40  44
HETATM   44  O16 UNL     1       9.836  13.950   0.607  1.00  0.00    -0.307 OA
HETATM   45  H37 UNL     1      10.140  14.725   0.108  1.00  0.00     0.222 HD
ENDBRANCH  40  44
ENDBRANCH  39  40
ENDBRANCH  35  39
BRANCH  36  46
HETATM   46  O12 UNL     1       8.223  16.585  -2.331  1.00  0.00    -0.388 OA
HETATM   47  H35 UNL     1       8.246  17.285  -3.026  1.00  0.00     0.210 HD
ENDBRANCH  36  46
BRANCH  37  48
HETATM   48  N3  UNL     1       6.478  15.986  -5.019  1.00  0.00    -0.297 N 
HETATM   49  C19 UNL     1       5.250  15.868  -5.629  1.00  0.00     0.188 A 
HETATM   50  N4  UNL     1       4.979  16.895  -6.405  1.00  0.00    -0.346 N 
HETATM   51  C20 UNL     1       6.083  17.722  -6.288  1.00  0.00     0.116 A 
HETATM   52  H4  UNL     1       4.142  17.048  -6.966  1.00  0.00     0.167 HD
HETATM   53  C21 UNL     1       6.390  18.982  -6.829  1.00  0.00     0.109 A 
HETATM   54  C23 UNL     1       7.036  17.152  -5.464  1.00  0.00     0.142 A 
HETATM   55  N5  UNL     1       7.587  19.543  -6.529  1.00  0.00    -0.341 N 
HETATM   56  C22 UNL     1       8.429  18.859  -5.728  1.00  0.00     0.183 A 
HETATM   57  H5  UNL     1       7.844  20.458  -6.899  1.00  0.00     0.167 HD
HETATM   58  N6  UNL     1       8.242  17.656  -5.148  1.00  0.00    -0.336 N 
HETATM   59  H6  UNL     1       8.924  17.190  -4.549  1.00  0.00     0.168 HD
BRANCH  53  60
HETATM   60  N7  UNL     1       5.534  19.683  -7.664  1.00  0.00    -0.287 NA
HETATM   61  H33 UNL     1       5.348  20.638  -7.367  1.00  0.00     0.125 HD
HETATM   62  H34 UNL     1       4.739  19.135  -7.963  1.00  0.00     0.125 HD
ENDBRANCH  53  60
ENDBRANCH  37  48
ENDBRANCH  33  34
ENDBRANCH  32  33
ENDBRANCH  28  32
ENDBRANCH  27  28
ENDBRANCH  23  27
ENDBRANCH  22  23
ENDBRANCH  21  22
ENDBRANCH  18  21
ENDBRANCH  17  18
BRANCH  17  63
HETATM   63  O17 UNL     1       7.351   6.692  -1.451  1.00  0.00    -0.385 OA
HETATM   64  H38 UNL     1       8.260   6.538  -1.143  1.00  0.00     0.210 HD
ENDBRANCH  17  63
ENDBRANCH  14  17
ENDBRANCH  12  13
ENDBRANCH  11  12
ENDBRANCH   8  11
ENDBRANCH   6   7
ENDBRANCH   5   6
ENDBRANCH   4   5
ENDBRANCH   2   4
TORSDOF 27
ENDMDL
MODEL 19
REMARK VINA RESULT:      -4.1      3.200      5.423
REMARK  27 active torsions:
REMARK  status: ('A' for Active; 'I' for Inactive)
REMARK    1  A    between atoms: C2_2  and  S1_4 
REMARK    2  A    between atoms: S1_4  and  C3_5 
REMARK    3  A    between atoms: C3_5  and  C4_6 
REMARK    4  A    between atoms: C4_6  and  N1_7 
REMARK       I    between atoms: N1_7  and  C5_8 
REMARK    5  A    between atoms: C5_8  and  C6_10 
REMARK    6  A    between atoms: C6_10  and  C7_11 
REMARK    7  A    between atoms: C7_11  and  N2_12 
REMARK       I    between atoms: N2_12  and  C8_13 
REMARK    8  A    between atoms: C8_13  and  C9_15 
REMARK    9  A    between atoms: C9_15  and  C10_16 
REMARK   10  A    between atoms: C9_15  and  O17_54 
REMARK   11  A    between atoms: C10_16  and  C13_19 
REMARK   12  A    between atoms: C13_19  and  O4_20 
REMARK   13  A    between atoms: O4_20  and  P1_21 
REMARK   14  A    between atoms: P1_21  and  O6_23 
REMARK   15  A    between atoms: P1_21  and  O7_24 
REMARK   16  A    between atoms: O7_24  and  P2_25 
REMARK   17  A    between atoms: P2_25  and  O9_27 
REMARK   18  A    between atoms: P2_25  and  O10_28 
REMARK   19  A    between atoms: O10_28  and  C14_29 
REMARK   20  A    between atoms: C14_29  and  C15_30 
REMARK   21  A    between atoms: C16_31  and  O13_49 
REMARK   22  A    between atoms: C17_32  and  O12_48 
REMARK   23  A    between atoms: C18_33  and  N3_35 
REMARK   24  A    between atoms: C21_40  and  N7_47 
REMARK   25  A    between atoms: O13_49  and  P3_50 
REMARK   26  A    between atoms: P3_50  and  O15_52 
REMARK   27  A    between atoms: P3_50  and  O16_53 
ROOT
HETATM    1  C1  UNL     1       4.042   7.864  -0.560  1.00  0.00     0.104 C 
HETATM    2  C2  UNL     1       2.836   8.712  -0.831  1.00  0.00     0.182 C 
HETATM    3  O1  UNL     1       2.265   9.368   0.037  1.00  0.00    -0.286 OA
ENDROOT
BRANCH   2   4
HETATM    4  S1  UNL     1       2.273   8.662  -2.496  1.00  0.00    -0.091 SA
BRANCH   4   5
HETATM    5  C3  UNL     1       1.170  10.112  -2.508  1.00  0.00     0.102 C 
BRANCH   5   6
HETATM    6  C4  UNL     1       1.941  11.412  -2.747  1.00  0.00     0.133 C 
BRANCH   6   7
HETATM    7  N1  UNL     1       3.150  11.499  -1.953  1.00  0.00    -0.360 N 
HETATM    8  C5  UNL     1       4.148  12.397  -2.252  1.00  0.00     0.219 C 
HETATM    9  O2  UNL     1       4.116  13.115  -3.244  1.00  0.00    -0.274 OA
HETATM   10  H8  UNL     1       3.253  10.887  -1.155  1.00  0.00     0.162 HD
BRANCH   8  11
HETATM   11  C6  UNL     1       5.297  12.364  -1.267  1.00  0.00     0.122 C 
BRANCH  11  12
HETATM   12  C7  UNL     1       5.938  10.979  -1.183  1.00  0.00     0.132 C 
BRANCH  12  13
HETATM   13  N2  UNL     1       7.138  10.957  -0.374  1.00  0.00    -0.358 N 
HETATM   14  C8  UNL     1       7.350   9.933   0.531  1.00  0.00     0.247 C 
HETATM   15  O3  UNL     1       6.497   9.087   0.769  1.00  0.00    -0.271 OA
HETATM   16  H13 UNL     1       7.961  11.380  -0.799  1.00  0.00     0.162 HD
BRANCH  14  17
HETATM   17  C9  UNL     1       8.736   9.934   1.192  1.00  0.00     0.219 C 
BRANCH  17  18
HETATM   18  C10 UNL     1       8.891  10.944   2.360  1.00  0.00     0.009 C 
HETATM   19  C11 UNL     1       7.541  11.296   3.003  1.00  0.00     0.020 C 
HETATM   20  C12 UNL     1       9.815  10.393   3.465  1.00  0.00     0.020 C 
BRANCH  18  21
HETATM   21  C13 UNL     1       9.522  12.222   1.737  1.00  0.00     0.192 C 
BRANCH  21  22
HETATM   22  O4  UNL     1       8.592  12.965   0.974  1.00  0.00    -0.296 OA
BRANCH  22  23
HETATM   23  P1  UNL     1       8.986  13.719  -0.385  1.00  0.00     0.401 P 
HETATM   24  O5  UNL     1       9.412  12.806  -1.491  1.00  0.00    -0.631 OA
BRANCH  23  25
HETATM   25  O6  UNL     1      10.088  14.828   0.002  1.00  0.00    -0.307 OA
HETATM   26  H23 UNL     1      10.786  14.465   0.562  1.00  0.00     0.222 HD
ENDBRANCH  23  25
BRANCH  23  27
HETATM   27  O7  UNL     1       7.731  14.636  -0.724  1.00  0.00    -0.195 OA
BRANCH  27  28
HETATM   28  P2  UNL     1       7.463  15.043  -2.241  1.00  0.00     0.401 P 
HETATM   29  O8  UNL     1       7.325  13.929  -3.227  1.00  0.00    -0.631 OA
BRANCH  28  30
HETATM   30  O9  UNL     1       6.182  15.991  -2.145  1.00  0.00    -0.307 OA
HETATM   31  H24 UNL     1       6.389  16.928  -1.911  1.00  0.00     0.222 HD
ENDBRANCH  28  30
BRANCH  28  32
HETATM   32  O10 UNL     1       8.600  16.119  -2.558  1.00  0.00    -0.294 OA
BRANCH  32  33
HETATM   33  C14 UNL     1       8.278  17.483  -2.624  1.00  0.00     0.215 C 
BRANCH  33  34
HETATM   34  C15 UNL     1       8.004  17.787  -4.096  1.00  0.00     0.180 C 
HETATM   35  C16 UNL     1       8.828  18.989  -4.537  1.00  0.00     0.197 C 
HETATM   36  C17 UNL     1       7.802  20.034  -4.933  1.00  0.00     0.199 C 
HETATM   37  C18 UNL     1       6.592  19.174  -5.305  1.00  0.00     0.262 C 
HETATM   38  O11 UNL     1       6.628  18.081  -4.360  1.00  0.00    -0.353 OA
BRANCH  35  39
HETATM   39  O13 UNL     1       9.639  18.589  -5.636  1.00  0.00    -0.286 OA
BRANCH  39  40
HETATM   40  P3  UNL     1      11.185  18.987  -5.533  1.00  0.00     0.391 P 
HETATM   41  O14 UNL     1      11.666  19.176  -4.131  1.00  0.00    -0.632 OA
BRANCH  40  42
HETATM   42  O15 UNL     1      11.234  20.252  -6.511  1.00  0.00    -0.307 OA
HETATM   43  H36 UNL     1      11.276  21.091  -5.993  1.00  0.00     0.222 HD
ENDBRANCH  40  42
BRANCH  40  44
HETATM   44  O16 UNL     1      11.864  17.836  -6.396  1.00  0.00    -0.307 OA
HETATM   45  H37 UNL     1      12.537  18.173  -7.009  1.00  0.00     0.222 HD
ENDBRANCH  40  44
ENDBRANCH  39  40
ENDBRANCH  35  39
BRANCH  36  46
HETATM   46  O12 UNL     1       8.334  20.892  -5.946  1.00  0.00    -0.388 OA
HETATM   47  H35 UNL     1       9.054  20.384  -6.391  1.00  0.00     0.210 HD
ENDBRANCH  36  46
BRANCH  37  48
HETATM   48  N3  UNL     1       5.338  19.882  -5.152  1.00  0.00    -0.297 N 
HETATM   49  C19 UNL     1       4.486  19.841  -4.072  1.00  0.00     0.188 A 
HETATM   50  N4  UNL     1       3.493  20.696  -4.188  1.00  0.00    -0.346 N 
HETATM   51  C20 UNL     1       3.715  21.326  -5.400  1.00  0.00     0.116 A 
HETATM   52  H4  UNL     1       2.731  20.859  -3.530  1.00  0.00     0.167 HD
HETATM   53  C21 UNL     1       3.041  22.360  -6.073  1.00  0.00     0.109 A 
HETATM   54  C23 UNL     1       4.832  20.804  -6.025  1.00  0.00     0.142 A 
HETATM   55  N5  UNL     1       3.509  22.760  -7.280  1.00  0.00    -0.341 N 
HETATM   56  C22 UNL     1       4.597  22.143  -7.780  1.00  0.00     0.183 A 
HETATM   57  H5  UNL     1       3.048  23.510  -7.797  1.00  0.00     0.167 HD
HETATM   58  N6  UNL     1       5.327  21.153  -7.226  1.00  0.00    -0.336 N 
HETATM   59  H6  UNL     1       6.146  20.726  -7.660  1.00  0.00     0.168 HD
BRANCH  53  60
HETATM   60  N7  UNL     1       1.912  22.988  -5.571  1.00  0.00    -0.287 NA
HETATM   61  H33 UNL     1       1.070  22.418  -5.596  1.00  0.00     0.125 HD
HETATM   62  H34 UNL     1       1.824  23.946  -5.880  1.00  0.00     0.125 HD
ENDBRANCH  53  60
ENDBRANCH  37  48
ENDBRANCH  33  34
ENDBRANCH  32  33
ENDBRANCH  28  32
ENDBRANCH  27  28
ENDBRANCH  23  27
ENDBRANCH  22  23
ENDBRANCH  21  22
ENDBRANCH  18  21
ENDBRANCH  17  18
BRANCH  17  63
HETATM   63  O17 UNL     1       9.051   8.625   1.679  1.00  0.00    -0.385 OA
HETATM   64  H38 UNL     1      10.009   8.491   1.588  1.00  0.00     0.210 HD
ENDBRANCH  17  63
ENDBRANCH  14  17
ENDBRANCH  12  13
ENDBRANCH  11  12
ENDBRANCH   8  11
ENDBRANCH   6   7
ENDBRANCH   5   6
ENDBRANCH   4   5
ENDBRANCH   2   4
TORSDOF 27
ENDMDL
MODEL 20
REMARK VINA RESULT:      -3.7      2.145      3.838
REMARK  27 active torsions:
REMARK  status: ('A' for Active; 'I' for Inactive)
REMARK    1  A    between atoms: C2_2  and  S1_4 
REMARK    2  A    between atoms: S1_4  and  C3_5 
REMARK    3  A    between atoms: C3_5  and  C4_6 
REMARK    4  A    between atoms: C4_6  and  N1_7 
REMARK       I    between atoms: N1_7  and  C5_8 
REMARK    5  A    between atoms: C5_8  and  C6_10 
REMARK    6  A    between atoms: C6_10  and  C7_11 
REMARK    7  A    between atoms: C7_11  and  N2_12 
REMARK       I    between atoms: N2_12  and  C8_13 
REMARK    8  A    between atoms: C8_13  and  C9_15 
REMARK    9  A    between atoms: C9_15  and  C10_16 
REMARK   10  A    between atoms: C9_15  and  O17_54 
REMARK   11  A    between atoms: C10_16  and  C13_19 
REMARK   12  A    between atoms: C13_19  and  O4_20 
REMARK   13  A    between atoms: O4_20  and  P1_21 
REMARK   14  A    between atoms: P1_21  and  O6_23 
REMARK   15  A    between atoms: P1_21  and  O7_24 
REMARK   16  A    between atoms: O7_24  and  P2_25 
REMARK   17  A    between atoms: P2_25  and  O9_27 
REMARK   18  A    between atoms: P2_25  and  O10_28 
REMARK   19  A    between atoms: O10_28  and  C14_29 
REMARK   20  A    between atoms: C14_29  and  C15_30 
REMARK   21  A    between atoms: C16_31  and  O13_49 
REMARK   22  A    between atoms: C17_32  and  O12_48 
REMARK   23  A    between atoms: C18_33  and  N3_35 
REMARK   24  A    between atoms: C21_40  and  N7_47 
REMARK   25  A    between atoms: O13_49  and  P3_50 
REMARK   26  A    between atoms: P3_50  and  O15_52 
REMARK   27  A    between atoms: P3_50  and  O16_53 
ROOT
HETATM    1  C1  UNL     1       3.993   7.866  -0.523  1.00  0.00     0.104 C 
HETATM    2  C2  UNL     1       2.831   8.785  -0.748  1.00  0.00     0.182 C 
HETATM    3  O1  UNL     1       2.252   9.375   0.162  1.00  0.00    -0.286 OA
ENDROOT
BRANCH   2   4
HETATM    4  S1  UNL     1       2.331   8.925  -2.428  1.00  0.00    -0.091 SA
BRANCH   4   5
HETATM    5  C3  UNL     1       1.333  10.447  -2.343  1.00  0.00     0.102 C 
BRANCH   5   6
HETATM    6  C4  UNL     1       2.168  11.693  -2.641  1.00  0.00     0.133 C 
BRANCH   6   7
HETATM    7  N1  UNL     1       3.446  11.687  -1.958  1.00  0.00    -0.360 N 
HETATM    8  C5  UNL     1       4.472  12.522  -2.334  1.00  0.00     0.219 C 
HETATM    9  O2  UNL     1       4.399  13.258  -3.311  1.00  0.00    -0.274 OA
HETATM   10  H8  UNL     1       3.579  11.054  -1.180  1.00  0.00     0.162 HD
BRANCH   8  11
HETATM   11  C6  UNL     1       5.699  12.396  -1.457  1.00  0.00     0.122 C 
BRANCH  11  12
HETATM   12  C7  UNL     1       6.140  10.941  -1.298  1.00  0.00     0.132 C 
BRANCH  12  13
HETATM   13  N2  UNL     1       7.300  10.790  -0.445  1.00  0.00    -0.358 N 
HETATM   14  C8  UNL     1       7.244   9.975   0.670  1.00  0.00     0.247 C 
HETATM   15  O3  UNL     1       6.201   9.453   1.044  1.00  0.00    -0.271 OA
HETATM   16  H13 UNL     1       8.201  10.880  -0.911  1.00  0.00     0.162 HD
BRANCH  14  17
HETATM   17  C9  UNL     1       8.588   9.764   1.383  1.00  0.00     0.219 C 
BRANCH  17  18
HETATM   18  C10 UNL     1       8.814  10.682   2.613  1.00  0.00     0.009 C 
HETATM   19  C11 UNL     1       7.494  11.071   3.295  1.00  0.00     0.020 C 
HETATM   20  C12 UNL     1       9.710  10.002   3.668  1.00  0.00     0.020 C 
BRANCH  18  21
HETATM   21  C13 UNL     1       9.518  11.958   2.070  1.00  0.00     0.192 C 
BRANCH  21  22
HETATM   22  O4  UNL     1       8.721  12.655   1.134  1.00  0.00    -0.296 OA
BRANCH  22  23
HETATM   23  P1  UNL     1       9.325  13.339  -0.185  1.00  0.00     0.401 P 
HETATM   24  O5  UNL     1       9.822  12.365  -1.207  1.00  0.00    -0.631 OA
BRANCH  23  25
HETATM   25  O6  UNL     1      10.440  14.391   0.306  1.00  0.00    -0.307 OA
HETATM   26  H23 UNL     1      11.311  14.195  -0.064  1.00  0.00     0.222 HD
ENDBRANCH  23  25
BRANCH  23  27
HETATM   27  O7  UNL     1       8.182  14.318  -0.700  1.00  0.00    -0.195 OA
BRANCH  27  28
HETATM   28  P2  UNL     1       8.517  15.344  -1.872  1.00  0.00     0.401 P 
HETATM   29  O8  UNL     1       9.526  16.405  -1.574  1.00  0.00    -0.631 OA
BRANCH  28  30
HETATM   30  O9  UNL     1       8.914  14.392  -3.091  1.00  0.00    -0.307 OA
HETATM   31  H24 UNL     1       8.584  13.465  -3.002  1.00  0.00     0.222 HD
ENDBRANCH  28  30
BRANCH  28  32
HETATM   32  O10 UNL     1       7.085  15.859  -2.356  1.00  0.00    -0.294 OA
BRANCH  32  33
HETATM   33  C14 UNL     1       6.935  16.416  -3.635  1.00  0.00     0.215 C 
BRANCH  33  34
HETATM   34  C15 UNL     1       7.337  17.884  -3.512  1.00  0.00     0.180 C 
HETATM   35  C16 UNL     1       6.505  18.729  -4.468  1.00  0.00     0.197 C 
HETATM   36  C17 UNL     1       7.515  19.336  -5.423  1.00  0.00     0.199 C 
HETATM   37  C18 UNL     1       8.794  19.336  -4.583  1.00  0.00     0.262 C 
HETATM   38  O11 UNL     1       8.718  18.113  -3.818  1.00  0.00    -0.353 OA
BRANCH  35  39
HETATM   39  O13 UNL     1       5.825  19.720  -3.704  1.00  0.00    -0.286 OA
BRANCH  39  40
HETATM   40  P3  UNL     1       4.236  19.564  -3.632  1.00  0.00     0.391 P 
HETATM   41  O14 UNL     1       3.781  18.195  -3.241  1.00  0.00    -0.632 OA
BRANCH  40  42
HETATM   42  O15 UNL     1       3.817  20.098  -5.081  1.00  0.00    -0.307 OA
HETATM   43  H36 UNL     1       3.775  19.355  -5.728  1.00  0.00     0.222 HD
ENDBRANCH  40  42
BRANCH  40  44
HETATM   44  O16 UNL     1       3.844  20.772  -2.674  1.00  0.00    -0.307 OA
HETATM   45  H37 UNL     1       3.435  20.477  -1.845  1.00  0.00     0.222 HD
ENDBRANCH  40  44
ENDBRANCH  39  40
ENDBRANCH  35  39
BRANCH  36  46
HETATM   46  O12 UNL     1       7.045  20.599  -5.904  1.00  0.00    -0.388 OA
HETATM   47  H35 UNL     1       7.562  20.795  -6.721  1.00  0.00     0.210 HD
ENDBRANCH  36  46
BRANCH  37  48
HETATM   48  N3  UNL     1       9.993  19.302  -5.396  1.00  0.00    -0.297 N 
HETATM   49  C19 UNL     1      10.708  18.191  -5.778  1.00  0.00     0.188 A 
HETATM   50  N4  UNL     1      11.674  18.484  -6.620  1.00  0.00    -0.346 N 
HETATM   51  C20 UNL     1      11.579  19.853  -6.797  1.00  0.00     0.116 A 
HETATM   52  H4  UNL     1      12.345  17.846  -7.048  1.00  0.00     0.167 HD
HETATM   53  C21 UNL     1      12.290  20.762  -7.600  1.00  0.00     0.109 A 
HETATM   54  C23 UNL     1      10.567  20.378  -6.014  1.00  0.00     0.142 A 
HETATM   55  N5  UNL     1      11.958  22.075  -7.544  1.00  0.00    -0.341 N 
HETATM   56  C22 UNL     1      10.963  22.447  -6.715  1.00  0.00     0.183 A 
HETATM   57  H5  UNL     1      12.449  22.764  -8.114  1.00  0.00     0.167 HD
HETATM   58  N6  UNL     1      10.209  21.670  -5.910  1.00  0.00    -0.336 N 
HETATM   59  H6  UNL     1       9.466  22.016  -5.302  1.00  0.00     0.168 HD
BRANCH  53  60
HETATM   60  N7  UNL     1      13.324  20.388  -8.443  1.00  0.00    -0.287 NA
HETATM   61  H33 UNL     1      13.826  19.554  -8.145  1.00  0.00     0.125 HD
HETATM   62  H34 UNL     1      13.885  21.170  -8.752  1.00  0.00     0.125 HD
ENDBRANCH  53  60
ENDBRANCH  37  48
ENDBRANCH  33  34
ENDBRANCH  32  33
ENDBRANCH  28  32
ENDBRANCH  27  28
ENDBRANCH  23  27
ENDBRANCH  22  23
ENDBRANCH  21  22
ENDBRANCH  18  21
ENDBRANCH  17  18
BRANCH  17  63
HETATM   63  O17 UNL     1       8.715   8.401   1.803  1.00  0.00    -0.385 OA
HETATM   64  H38 UNL     1       8.076   8.245   2.519  1.00  0.00     0.210 HD
ENDBRANCH  17  63
ENDBRANCH  14  17
ENDBRANCH  12  13
ENDBRANCH  11  12
ENDBRANCH   8  11
ENDBRANCH   6   7
ENDBRANCH   5   6
ENDBRANCH   4   5
ENDBRANCH   2   4
TORSDOF 27
ENDMDL
