MODEL 1
REMARK VINA RESULT:      -3.6      0.000      0.000
REMARK  2 active torsions:
REMARK  status: ('A' for Active; 'I' for Inactive)
REMARK    1  A    between atoms: C3_3  and  O1_8 
REMARK    2  A    between atoms: C6_6  and  N1_7 
ROOT
HETATM    1  C1  UNL     1       4.668   9.837  -9.986  1.00  0.00     0.026 A 
HETATM    2  C2  UNL     1       4.605  10.996 -10.763  1.00  0.00     0.038 A 
HETATM    3  C3  UNL     1       5.662  11.894 -10.744  1.00  0.00     0.065 A 
HETATM    4  C4  UNL     1       6.791  11.643  -9.972  1.00  0.00     0.038 A 
HETATM    5  C5  UNL     1       6.846  10.481  -9.196  1.00  0.00     0.026 A 
HETATM    6  C6  UNL     1       5.767   9.594  -9.157  1.00  0.00     0.005 A 
ENDROOT
BRANCH   6   7
HETATM    7  N1  UNL     1       5.879   8.378  -8.473  1.00  0.00    -0.303 NA
HETATM    8  H5  UNL     1       6.683   8.330  -7.855  1.00  0.00     0.124 HD
HETATM    9  H6  UNL     1       5.802   7.562  -9.071  1.00  0.00     0.124 HD
ENDBRANCH   6   7
BRANCH   3  10
HETATM   10  O1  UNL     1       5.564  13.012 -11.517  1.00  0.00    -0.361 OA
HETATM   11  H7  UNL     1       6.202  13.669 -11.195  1.00  0.00     0.217 HD
ENDBRANCH   3  10
TORSDOF 2
ENDMDL
MODEL 2
REMARK VINA RESULT:      -3.5      0.080      1.705
REMARK  2 active torsions:
REMARK  status: ('A' for Active; 'I' for Inactive)
REMARK    1  A    between atoms: C3_3  and  O1_8 
REMARK    2  A    between atoms: C6_6  and  N1_7 
ROOT
HETATM    1  C1  UNL     1       6.837  10.453  -9.169  1.00  0.00     0.026 A 
HETATM    2  C2  UNL     1       6.786  11.618  -9.939  1.00  0.00     0.038 A 
HETATM    3  C3  UNL     1       5.668  11.877 -10.720  1.00  0.00     0.065 A 
HETATM    4  C4  UNL     1       4.593  10.996 -10.731  1.00  0.00     0.038 A 
HETATM    5  C5  UNL     1       4.652   9.832  -9.959  1.00  0.00     0.026 A 
HETATM    6  C6  UNL     1       5.793   9.524  -9.212  1.00  0.00     0.005 A 
ENDROOT
BRANCH   6   7
HETATM    7  N1  UNL     1       5.796   8.420  -8.352  1.00  0.00    -0.303 NA
HETATM    8  H5  UNL     1       6.473   8.492  -7.598  1.00  0.00     0.124 HD
HETATM    9  H6  UNL     1       5.845   7.527  -8.831  1.00  0.00     0.124 HD
ENDBRANCH   6   7
BRANCH   3  10
HETATM   10  O1  UNL     1       5.655  13.025 -11.454  1.00  0.00    -0.361 OA
HETATM   11  H7  UNL     1       6.426  13.025 -12.043  1.00  0.00     0.217 HD
ENDBRANCH   3  10
TORSDOF 2
ENDMDL
MODEL 3
REMARK VINA RESULT:      -3.5      2.777      3.680
REMARK  2 active torsions:
REMARK  status: ('A' for Active; 'I' for Inactive)
REMARK    1  A    between atoms: C3_3  and  O1_8 
REMARK    2  A    between atoms: C6_6  and  N1_7 
ROOT
HETATM    1  C1  UNL     1       6.762  11.614  -9.984  1.00  0.00     0.026 A 
HETATM    2  C2  UNL     1       6.851  10.468  -9.191  1.00  0.00     0.038 A 
HETATM    3  C3  UNL     1       5.802   9.559  -9.175  1.00  0.00     0.065 A 
HETATM    4  C4  UNL     1       4.670   9.771  -9.955  1.00  0.00     0.038 A 
HETATM    5  C5  UNL     1       4.588  10.922 -10.745  1.00  0.00     0.026 A 
HETATM    6  C6  UNL     1       5.608  11.878 -10.729  1.00  0.00     0.005 A 
ENDROOT
BRANCH   6   7
HETATM    7  N1  UNL     1       5.571  12.964 -11.611  1.00  0.00    -0.303 NA
HETATM    8  H5  UNL     1       6.314  12.953 -12.302  1.00  0.00     0.124 HD
HETATM    9  H6  UNL     1       5.484  13.863 -11.150  1.00  0.00     0.124 HD
ENDBRANCH   6   7
BRANCH   3  10
HETATM   10  O1  UNL     1       5.928   8.452  -8.391  1.00  0.00    -0.361 OA
HETATM   11  H7  UNL     1       6.827   8.432  -8.026  1.00  0.00     0.217 HD
ENDBRANCH   3  10
TORSDOF 2
ENDMDL
MODEL 4
REMARK VINA RESULT:      -3.5      2.839      3.316
REMARK  2 active torsions:
REMARK  status: ('A' for Active; 'I' for Inactive)
REMARK    1  A    between atoms: C3_3  and  O1_8 
REMARK    2  A    between atoms: C6_6  and  N1_7 
ROOT
HETATM    1  C1  UNL     1       4.436  10.556 -10.361  1.00  0.00     0.026 A 
HETATM    2  C2  UNL     1       4.502   9.382  -9.607  1.00  0.00     0.038 A 
HETATM    3  C3  UNL     1       5.665   9.074  -8.915  1.00  0.00     0.065 A 
HETATM    4  C4  UNL     1       6.759   9.931  -8.953  1.00  0.00     0.038 A 
HETATM    5  C5  UNL     1       6.686  11.103  -9.711  1.00  0.00     0.026 A 
HETATM    6  C6  UNL     1       5.544  11.402 -10.461  1.00  0.00     0.005 A 
ENDROOT
BRANCH   6   7
HETATM    7  N1  UNL     1       5.435  12.632 -11.120  1.00  0.00    -0.303 NA
HETATM    8  H5  UNL     1       4.954  13.343 -10.578  1.00  0.00     0.124 HD
HETATM    9  H6  UNL     1       5.079  12.561 -12.067  1.00  0.00     0.124 HD
ENDBRANCH   6   7
BRANCH   3  10
HETATM   10  O1  UNL     1       5.689   7.921  -8.189  1.00  0.00    -0.361 OA
HETATM   11  H7  UNL     1       4.869   7.863  -7.672  1.00  0.00     0.217 HD
ENDBRANCH   3  10
TORSDOF 2
ENDMDL
MODEL 5
REMARK VINA RESULT:      -3.2      2.872      3.345
REMARK  2 active torsions:
REMARK  status: ('A' for Active; 'I' for Inactive)
REMARK    1  A    between atoms: C3_3  and  O1_8 
REMARK    2  A    between atoms: C6_6  and  N1_7 
ROOT
HETATM    1  C1  UNL     1       4.704  11.470 -11.324  1.00  0.00     0.026 A 
HETATM    2  C2  UNL     1       4.718  10.391 -10.437  1.00  0.00     0.038 A 
HETATM    3  C3  UNL     1       5.791  10.227  -9.572  1.00  0.00     0.065 A 
HETATM    4  C4  UNL     1       6.843  11.136  -9.568  1.00  0.00     0.038 A 
HETATM    5  C5  UNL     1       6.822  12.213 -10.460  1.00  0.00     0.026 A 
HETATM    6  C6  UNL     1       5.779  12.362 -11.380  1.00  0.00     0.005 A 
ENDROOT
BRANCH   6   7
HETATM    7  N1  UNL     1       5.707  13.505 -12.184  1.00  0.00    -0.303 NA
HETATM    8  H5  UNL     1       4.760  13.758 -12.449  1.00  0.00     0.124 HD
HETATM    9  H6  UNL     1       6.338  13.489 -12.978  1.00  0.00     0.124 HD
ENDBRANCH   6   7
BRANCH   3  10
HETATM   10  O1  UNL     1       5.767   9.164  -8.720  1.00  0.00    -0.361 OA
HETATM   11  H7  UNL     1       5.821   8.348  -9.242  1.00  0.00     0.217 HD
ENDBRANCH   3  10
TORSDOF 2
ENDMDL
MODEL 6
REMARK VINA RESULT:      -3.0      6.798      7.538
REMARK  2 active torsions:
REMARK  status: ('A' for Active; 'I' for Inactive)
REMARK    1  A    between atoms: C3_3  and  O1_8 
REMARK    2  A    between atoms: C6_6  and  N1_7 
ROOT
HETATM    1  C1  UNL     1       9.734  17.696 -10.015  1.00  0.00     0.026 A 
HETATM    2  C2  UNL     1       8.827  17.145 -10.923  1.00  0.00     0.038 A 
HETATM    3  C3  UNL     1       7.621  16.633 -10.465  1.00  0.00     0.065 A 
HETATM    4  C4  UNL     1       7.301  16.679  -9.112  1.00  0.00     0.038 A 
HETATM    5  C5  UNL     1       8.214  17.231  -8.210  1.00  0.00     0.026 A 
HETATM    6  C6  UNL     1       9.459  17.698  -8.644  1.00  0.00     0.005 A 
ENDROOT
BRANCH   6   7
HETATM    7  N1  UNL     1      10.315  18.356  -7.754  1.00  0.00    -0.303 NA
HETATM    8  H5  UNL     1      10.542  17.811  -6.928  1.00  0.00     0.124 HD
HETATM    9  H6  UNL     1      10.022  19.300  -7.525  1.00  0.00     0.124 HD
ENDBRANCH   6   7
BRANCH   3  10
HETATM   10  O1  UNL     1       6.762  16.106 -11.382  1.00  0.00    -0.361 OA
HETATM   11  H7  UNL     1       7.233  16.004 -12.224  1.00  0.00     0.217 HD
ENDBRANCH   3  10
TORSDOF 2
ENDMDL
MODEL 7
REMARK VINA RESULT:      -2.9      6.712      7.478
REMARK  2 active torsions:
REMARK  status: ('A' for Active; 'I' for Inactive)
REMARK    1  A    between atoms: C3_3  and  O1_8 
REMARK    2  A    between atoms: C6_6  and  N1_7 
ROOT
HETATM    1  C1  UNL     1       9.054  16.849 -10.792  1.00  0.00     0.026 A 
HETATM    2  C2  UNL     1       9.869  17.495  -9.860  1.00  0.00     0.038 A 
HETATM    3  C3  UNL     1       9.405  17.705  -8.569  1.00  0.00     0.065 A 
HETATM    4  C4  UNL     1       8.142  17.263  -8.190  1.00  0.00     0.038 A 
HETATM    5  C5  UNL     1       7.331  16.619  -9.129  1.00  0.00     0.026 A 
HETATM    6  C6  UNL     1       7.758  16.450 -10.451  1.00  0.00     0.005 A 
ENDROOT
BRANCH   6   7
HETATM    7  N1  UNL     1       6.991  15.700 -11.349  1.00  0.00    -0.303 NA
HETATM    8  H5  UNL     1       6.529  14.902 -10.924  1.00  0.00     0.124 HD
HETATM    9  H6  UNL     1       7.483  15.453 -12.201  1.00  0.00     0.124 HD
ENDBRANCH   6   7
BRANCH   3  10
HETATM   10  O1  UNL     1      10.231  18.336  -7.688  1.00  0.00    -0.361 OA
HETATM   11  H7  UNL     1      10.422  19.226  -8.026  1.00  0.00     0.217 HD
ENDBRANCH   3  10
TORSDOF 2
ENDMDL
MODEL 8
REMARK VINA RESULT:      -2.8      7.333      7.923
REMARK  2 active torsions:
REMARK  status: ('A' for Active; 'I' for Inactive)
REMARK    1  A    between atoms: C3_3  and  O1_8 
REMARK    2  A    between atoms: C6_6  and  N1_7 
ROOT
HETATM    1  C1  UNL     1       8.214  18.144 -10.359  1.00  0.00     0.026 A 
HETATM    2  C2  UNL     1       7.044  17.599  -9.825  1.00  0.00     0.038 A 
HETATM    3  C3  UNL     1       7.059  17.053  -8.550  1.00  0.00     0.065 A 
HETATM    4  C4  UNL     1       8.224  17.057  -7.792  1.00  0.00     0.038 A 
HETATM    5  C5  UNL     1       9.392  17.602  -8.333  1.00  0.00     0.026 A 
HETATM    6  C6  UNL     1       9.412  18.105  -9.638  1.00  0.00     0.005 A 
ENDROOT
BRANCH   6   7
HETATM    7  N1  UNL     1      10.551  18.755 -10.126  1.00  0.00    -0.303 NA
HETATM    8  H5  UNL     1      10.479  19.768 -10.113  1.00  0.00     0.124 HD
HETATM    9  H6  UNL     1      10.873  18.402 -11.020  1.00  0.00     0.124 HD
ENDBRANCH   6   7
BRANCH   3  10
HETATM   10  O1  UNL     1       5.896  16.534  -8.065  1.00  0.00    -0.361 OA
HETATM   11  H7  UNL     1       6.111  15.880  -7.379  1.00  0.00     0.217 HD
ENDBRANCH   3  10
TORSDOF 2
ENDMDL
MODEL 9
REMARK VINA RESULT:      -2.7     13.365     14.001
REMARK  2 active torsions:
REMARK  status: ('A' for Active; 'I' for Inactive)
REMARK    1  A    between atoms: C3_3  and  O1_8 
REMARK    2  A    between atoms: C6_6  and  N1_7 
ROOT
HETATM    1  C1  UNL     1       7.269  21.165  -1.777  1.00  0.00     0.026 A 
HETATM    2  C2  UNL     1       8.154  20.774  -2.784  1.00  0.00     0.038 A 
HETATM    3  C3  UNL     1       9.517  20.978  -2.620  1.00  0.00     0.065 A 
HETATM    4  C4  UNL     1      10.011  21.554  -1.455  1.00  0.00     0.038 A 
HETATM    5  C5  UNL     1       9.119  21.945  -0.452  1.00  0.00     0.026 A 
HETATM    6  C6  UNL     1       7.739  21.801  -0.623  1.00  0.00     0.005 A 
ENDROOT
BRANCH   6   7
HETATM    7  N1  UNL     1       6.864  22.083   0.432  1.00  0.00    -0.303 NA
HETATM    8  H5  UNL     1       6.006  21.541   0.407  1.00  0.00     0.124 HD
HETATM    9  H6  UNL     1       6.690  23.074   0.567  1.00  0.00     0.124 HD
ENDBRANCH   6   7
BRANCH   3  10
HETATM   10  O1  UNL     1      10.348  20.580  -3.624  1.00  0.00    -0.361 OA
HETATM   11  H7  UNL     1      10.543  21.346  -4.186  1.00  0.00     0.217 HD
ENDBRANCH   3  10
TORSDOF 2
ENDMDL
MODEL 10
REMARK VINA RESULT:      -2.7      6.649      7.182
REMARK  2 active torsions:
REMARK  status: ('A' for Active; 'I' for Inactive)
REMARK    1  A    between atoms: C3_3  and  O1_8 
REMARK    2  A    between atoms: C6_6  and  N1_7 
ROOT
HETATM    1  C1  UNL     1       7.509  16.592 -10.270  1.00  0.00     0.026 A 
HETATM    2  C2  UNL     1       8.730  16.678 -10.944  1.00  0.00     0.038 A 
HETATM    3  C3  UNL     1       9.875  17.041 -10.250  1.00  0.00     0.065 A 
HETATM    4  C4  UNL     1       9.822  17.305  -8.886  1.00  0.00     0.038 A 
HETATM    5  C5  UNL     1       8.597  17.219  -8.218  1.00  0.00     0.026 A 
HETATM    6  C6  UNL     1       7.422  16.912  -8.912  1.00  0.00     0.005 A 
ENDROOT
BRANCH   6   7
HETATM    7  N1  UNL     1       6.225  16.712  -8.215  1.00  0.00    -0.303 NA
HETATM    8  H5  UNL     1       5.508  17.398  -8.430  1.00  0.00     0.124 HD
HETATM    9  H6  UNL     1       6.347  16.581  -7.217  1.00  0.00     0.124 HD
ENDBRANCH   6   7
BRANCH   3  10
HETATM   10  O1  UNL     1      11.046  17.110 -10.943  1.00  0.00    -0.361 OA
HETATM   11  H7  UNL     1      11.057  17.936 -11.452  1.00  0.00     0.217 HD
ENDBRANCH   3  10
TORSDOF 2
ENDMDL
MODEL 11
REMARK VINA RESULT:      -2.7     13.417     14.147
REMARK  2 active torsions:
REMARK  status: ('A' for Active; 'I' for Inactive)
REMARK    1  A    between atoms: C3_3  and  O1_8 
REMARK    2  A    between atoms: C6_6  and  N1_7 
ROOT
HETATM    1  C1  UNL     1       9.080  22.001  -0.437  1.00  0.00     0.026 A 
HETATM    2  C2  UNL     1       9.967  21.656  -1.459  1.00  0.00     0.038 A 
HETATM    3  C3  UNL     1       9.485  21.065  -2.618  1.00  0.00     0.065 A 
HETATM    4  C4  UNL     1       8.124  20.829  -2.779  1.00  0.00     0.038 A 
HETATM    5  C5  UNL     1       7.242  21.175  -1.751  1.00  0.00     0.026 A 
HETATM    6  C6  UNL     1       7.716  21.717  -0.552  1.00  0.00     0.005 A 
ENDROOT
BRANCH   6   7
HETATM    7  N1  UNL     1       6.817  22.170   0.421  1.00  0.00    -0.303 NA
HETATM    8  H5  UNL     1       6.566  23.149   0.320  1.00  0.00     0.124 HD
HETATM    9  H6  UNL     1       7.087  21.936   1.370  1.00  0.00     0.124 HD
ENDBRANCH   6   7
BRANCH   3  10
HETATM   10  O1  UNL     1      10.382  20.746  -3.593  1.00  0.00    -0.361 OA
HETATM   11  H7  UNL     1       9.979  20.087  -4.181  1.00  0.00     0.217 HD
ENDBRANCH   3  10
TORSDOF 2
ENDMDL
MODEL 12
REMARK VINA RESULT:      -2.7      6.699      7.395
REMARK  2 active torsions:
REMARK  status: ('A' for Active; 'I' for Inactive)
REMARK    1  A    between atoms: C3_3  and  O1_8 
REMARK    2  A    between atoms: C6_6  and  N1_7 
ROOT
HETATM    1  C1  UNL     1       9.782  17.137  -9.272  1.00  0.00     0.026 A 
HETATM    2  C2  UNL     1       8.634  17.177  -8.477  1.00  0.00     0.038 A 
HETATM    3  C3  UNL     1       7.399  16.889  -9.040  1.00  0.00     0.065 A 
HETATM    4  C4  UNL     1       7.295  16.546 -10.383  1.00  0.00     0.038 A 
HETATM    5  C5  UNL     1       8.448  16.510 -11.172  1.00  0.00     0.026 A 
HETATM    6  C6  UNL     1       9.694  16.854 -10.638  1.00  0.00     0.005 A 
ENDROOT
BRANCH   6   7
HETATM    7  N1  UNL     1      10.856  16.700 -11.403  1.00  0.00    -0.303 NA
HETATM    8  H5  UNL     1      11.031  17.471 -12.039  1.00  0.00     0.124 HD
HETATM    9  H6  UNL     1      10.929  15.797 -11.861  1.00  0.00     0.124 HD
ENDBRANCH   6   7
BRANCH   3  10
HETATM   10  O1  UNL     1       6.303  16.936  -8.231  1.00  0.00    -0.361 OA
HETATM   11  H7  UNL     1       5.679  17.585  -8.592  1.00  0.00     0.217 HD
ENDBRANCH   3  10
TORSDOF 2
ENDMDL
MODEL 13
REMARK VINA RESULT:      -2.7     13.508     14.156
REMARK  2 active torsions:
REMARK  status: ('A' for Active; 'I' for Inactive)
REMARK    1  A    between atoms: C3_3  and  O1_8 
REMARK    2  A    between atoms: C6_6  and  N1_7 
ROOT
HETATM    1  C1  UNL     1       8.185  20.865  -2.724  1.00  0.00     0.026 A 
HETATM    2  C2  UNL     1       7.254  21.184  -1.733  1.00  0.00     0.038 A 
HETATM    3  C3  UNL     1       7.685  21.746  -0.539  1.00  0.00     0.065 A 
HETATM    4  C4  UNL     1       9.034  22.008  -0.327  1.00  0.00     0.038 A 
HETATM    5  C5  UNL     1       9.960  21.685  -1.323  1.00  0.00     0.026 A 
HETATM    6  C6  UNL     1       9.552  21.065  -2.508  1.00  0.00     0.005 A 
ENDROOT
BRANCH   6   7
HETATM    7  N1  UNL     1      10.467  20.854  -3.545  1.00  0.00    -0.303 NA
HETATM    8  H5  UNL     1      11.300  21.431  -3.478  1.00  0.00     0.124 HD
HETATM    9  H6  UNL     1      10.053  20.881  -4.471  1.00  0.00     0.124 HD
ENDBRANCH   6   7
BRANCH   3  10
HETATM   10  O1  UNL     1       6.746  22.046   0.402  1.00  0.00    -0.361 OA
HETATM   11  H7  UNL     1       6.337  21.220   0.705  1.00  0.00     0.217 HD
ENDBRANCH   3  10
TORSDOF 2
ENDMDL
MODEL 14
REMARK VINA RESULT:      -2.5     14.644     15.331
REMARK  2 active torsions:
REMARK  status: ('A' for Active; 'I' for Inactive)
REMARK    1  A    between atoms: C3_3  and  O1_8 
REMARK    2  A    between atoms: C6_6  and  N1_7 
ROOT
HETATM    1  C1  UNL     1       9.193  21.286  -1.417  1.00  0.00     0.026 A 
HETATM    2  C2  UNL     1      10.158  21.677  -0.486  1.00  0.00     0.038 A 
HETATM    3  C3  UNL     1       9.762  22.142   0.760  1.00  0.00     0.065 A 
HETATM    4  C4  UNL     1       8.414  22.205   1.097  1.00  0.00     0.038 A 
HETATM    5  C5  UNL     1       7.454  21.812   0.159  1.00  0.00     0.026 A 
HETATM    6  C6  UNL     1       7.831  21.397  -1.122  1.00  0.00     0.005 A 
ENDROOT
BRANCH   6   7
HETATM    7  N1  UNL     1       6.874  20.894  -2.010  1.00  0.00    -0.303 NA
HETATM    8  H5  UNL     1       5.948  20.805  -1.604  1.00  0.00     0.124 HD
HETATM    9  H6  UNL     1       7.166  20.052  -2.495  1.00  0.00     0.124 HD
ENDBRANCH   6   7
BRANCH   3  10
HETATM   10  O1  UNL     1      10.733  22.512   1.642  1.00  0.00    -0.361 OA
HETATM   11  H7  UNL     1      11.460  22.922   1.147  1.00  0.00     0.217 HD
ENDBRANCH   3  10
TORSDOF 2
ENDMDL
MODEL 15
REMARK VINA RESULT:      -2.5     14.156     14.868
REMARK  2 active torsions:
REMARK  status: ('A' for Active; 'I' for Inactive)
REMARK    1  A    between atoms: C3_3  and  O1_8 
REMARK    2  A    between atoms: C6_6  and  N1_7 
ROOT
HETATM    1  C1  UNL     1       9.945  21.832  -0.086  1.00  0.00     0.026 A 
HETATM    2  C2  UNL     1       8.767  22.238   0.546  1.00  0.00     0.038 A 
HETATM    3  C3  UNL     1       7.543  22.003  -0.065  1.00  0.00     0.065 A 
HETATM    4  C4  UNL     1       7.478  21.353  -1.293  1.00  0.00     0.038 A 
HETATM    5  C5  UNL     1       8.661  20.952  -1.920  1.00  0.00     0.026 A 
HETATM    6  C6  UNL     1       9.906  21.232  -1.348  1.00  0.00     0.005 A 
ENDROOT
BRANCH   6   7
HETATM    7  N1  UNL     1      11.076  20.722  -1.922  1.00  0.00    -0.303 NA
HETATM    8  H5  UNL     1      10.980  20.490  -2.906  1.00  0.00     0.124 HD
HETATM    9  H6  UNL     1      11.502  19.972  -1.388  1.00  0.00     0.124 HD
ENDBRANCH   6   7
BRANCH   3  10
HETATM   10  O1  UNL     1       6.416  22.411   0.584  1.00  0.00    -0.361 OA
HETATM   11  H7  UNL     1       6.355  23.377   0.521  1.00  0.00     0.217 HD
ENDBRANCH   3  10
TORSDOF 2
ENDMDL
MODEL 16
REMARK VINA RESULT:      -2.4      7.851      8.755
REMARK  2 active torsions:
REMARK  status: ('A' for Active; 'I' for Inactive)
REMARK    1  A    between atoms: C3_3  and  O1_8 
REMARK    2  A    between atoms: C6_6  and  N1_7 
ROOT
HETATM    1  C1  UNL     1       9.857  17.811  -8.482  1.00  0.00     0.026 A 
HETATM    2  C2  UNL     1       8.623  17.215  -8.750  1.00  0.00     0.038 A 
HETATM    3  C3  UNL     1       7.838  17.694  -9.789  1.00  0.00     0.065 A 
HETATM    4  C4  UNL     1       8.277  18.752 -10.578  1.00  0.00     0.038 A 
HETATM    5  C5  UNL     1       9.514  19.344 -10.303  1.00  0.00     0.026 A 
HETATM    6  C6  UNL     1      10.292  18.914  -9.224  1.00  0.00     0.005 A 
ENDROOT
BRANCH   6   7
HETATM    7  N1  UNL     1      11.577  19.431  -9.031  1.00  0.00    -0.303 NA
HETATM    8  H5  UNL     1      12.200  19.281  -9.818  1.00  0.00     0.124 HD
HETATM    9  H6  UNL     1      11.999  19.163  -8.148  1.00  0.00     0.124 HD
ENDBRANCH   6   7
BRANCH   3  10
HETATM   10  O1  UNL     1       6.642  17.085 -10.020  1.00  0.00    -0.361 OA
HETATM   11  H7  UNL     1       6.146  17.049  -9.186  1.00  0.00     0.217 HD
ENDBRANCH   3  10
TORSDOF 2
ENDMDL
MODEL 17
REMARK VINA RESULT:      -2.4     14.045     14.737
REMARK  2 active torsions:
REMARK  status: ('A' for Active; 'I' for Inactive)
REMARK    1  A    between atoms: C3_3  and  O1_8 
REMARK    2  A    between atoms: C6_6  and  N1_7 
ROOT
HETATM    1  C1  UNL     1      10.281  21.114  -1.424  1.00  0.00     0.026 A 
HETATM    2  C2  UNL     1       9.076  20.747  -2.027  1.00  0.00     0.038 A 
HETATM    3  C3  UNL     1       7.873  21.139  -1.456  1.00  0.00     0.065 A 
HETATM    4  C4  UNL     1       7.857  21.908  -0.298  1.00  0.00     0.038 A 
HETATM    5  C5  UNL     1       9.067  22.271   0.301  1.00  0.00     0.026 A 
HETATM    6  C6  UNL     1      10.287  21.836  -0.226  1.00  0.00     0.005 A 
ENDROOT
BRANCH   6   7
HETATM    7  N1  UNL     1      11.493  22.302   0.310  1.00  0.00    -0.303 NA
HETATM    8  H5  UNL     1      11.816  21.768   1.112  1.00  0.00     0.124 HD
HETATM    9  H6  UNL     1      11.507  23.302   0.481  1.00  0.00     0.124 HD
ENDBRANCH   6   7
BRANCH   3  10
HETATM   10  O1  UNL     1       6.719  20.764  -2.076  1.00  0.00    -0.361 OA
HETATM   11  H7  UNL     1       5.969  21.034  -1.524  1.00  0.00     0.217 HD
ENDBRANCH   3  10
TORSDOF 2
ENDMDL
MODEL 18
REMARK VINA RESULT:      -2.2     12.901     13.629
REMARK  2 active torsions:
REMARK  status: ('A' for Active; 'I' for Inactive)
REMARK    1  A    between atoms: C3_3  and  O1_8 
REMARK    2  A    between atoms: C6_6  and  N1_7 
ROOT
HETATM    1  C1  UNL     1       9.649  21.467  -1.246  1.00  0.00     0.026 A 
HETATM    2  C2  UNL     1       9.134  20.848  -2.387  1.00  0.00     0.038 A 
HETATM    3  C3  UNL     1       9.729  19.690  -2.868  1.00  0.00     0.065 A 
HETATM    4  C4  UNL     1      10.822  19.131  -2.216  1.00  0.00     0.038 A 
HETATM    5  C5  UNL     1      11.333  19.758  -1.075  1.00  0.00     0.026 A 
HETATM    6  C6  UNL     1      10.785  20.957  -0.609  1.00  0.00     0.005 A 
ENDROOT
BRANCH   6   7
HETATM    7  N1  UNL     1      11.225  21.511   0.598  1.00  0.00    -0.303 NA
HETATM    8  H5  UNL     1      11.761  22.366   0.483  1.00  0.00     0.124 HD
HETATM    9  H6  UNL     1      11.685  20.846   1.211  1.00  0.00     0.124 HD
ENDBRANCH   6   7
BRANCH   3  10
HETATM   10  O1  UNL     1       9.195  19.114  -3.982  1.00  0.00    -0.361 OA
HETATM   11  H7  UNL     1       9.877  18.568  -4.406  1.00  0.00     0.217 HD
ENDBRANCH   3  10
TORSDOF 2
ENDMDL
MODEL 19
REMARK VINA RESULT:      -0.1     14.017     14.115
REMARK  2 active torsions:
REMARK  status: ('A' for Active; 'I' for Inactive)
REMARK    1  A    between atoms: C3_3  and  O1_8 
REMARK    2  A    between atoms: C6_6  and  N1_7 
ROOT
HETATM    1  C1  UNL     1       9.295  21.114  -1.205  1.00  0.00     0.026 A 
HETATM    2  C2  UNL     1      10.141  21.604  -2.202  1.00  0.00     0.038 A 
HETATM    3  C3  UNL     1       9.623  22.403  -3.212  1.00  0.00     0.065 A 
HETATM    4  C4  UNL     1       8.272  22.733  -3.231  1.00  0.00     0.038 A 
HETATM    5  C5  UNL     1       7.432  22.238  -2.230  1.00  0.00     0.026 A 
HETATM    6  C6  UNL     1       7.924  21.384  -1.238  1.00  0.00     0.005 A 
ENDROOT
BRANCH   6   7
HETATM    7  N1  UNL     1       7.102  20.991  -0.175  1.00  0.00    -0.303 NA
HETATM    8  H5  UNL     1       7.000  19.984  -0.089  1.00  0.00     0.124 HD
HETATM    9  H6  UNL     1       6.210  21.473  -0.146  1.00  0.00     0.124 HD
ENDBRANCH   6   7
BRANCH   3  10
HETATM   10  O1  UNL     1      10.481  22.864  -4.165  1.00  0.00    -0.361 OA
HETATM   11  H7  UNL     1      11.119  23.463  -3.745  1.00  0.00     0.217 HD
ENDBRANCH   3  10
TORSDOF 2
ENDMDL
