MODEL 1
REMARK VINA RESULT:      -4.3      0.000      0.000
REMARK  2 active torsions:
REMARK  status: ('A' for Active; 'I' for Inactive)
REMARK    1  A    between atoms: C3_3  and  O1_8 
REMARK    2  A    between atoms: C6_6  and  N1_7 
ROOT
HETATM    1  C1  UNL     1       7.619   5.410  -5.285  1.00  0.00     0.026 A 
HETATM    2  C2  UNL     1       6.667   6.029  -6.099  1.00  0.00     0.038 A 
HETATM    3  C3  UNL     1       6.943   6.238  -7.442  1.00  0.00     0.065 A 
HETATM    4  C4  UNL     1       8.152   5.822  -7.990  1.00  0.00     0.038 A 
HETATM    5  C5  UNL     1       9.100   5.205  -7.169  1.00  0.00     0.026 A 
HETATM    6  C6  UNL     1       8.864   5.038  -5.801  1.00  0.00     0.005 A 
ENDROOT
BRANCH   6   7
HETATM    7  N1  UNL     1       9.766   4.314  -5.013  1.00  0.00    -0.303 NA
HETATM    8  H5  UNL     1      10.673   4.181  -5.449  1.00  0.00     0.124 HD
HETATM    9  H6  UNL     1       9.386   3.450  -4.643  1.00  0.00     0.124 HD
ENDBRANCH   6   7
BRANCH   3  10
HETATM   10  O1  UNL     1       5.988   6.842  -8.204  1.00  0.00    -0.361 OA
HETATM   11  H7  UNL     1       5.796   6.275  -8.967  1.00  0.00     0.217 HD
ENDBRANCH   3  10
TORSDOF 2
ENDMDL
MODEL 2
REMARK VINA RESULT:      -4.3      2.278      2.970
REMARK  2 active torsions:
REMARK  status: ('A' for Active; 'I' for Inactive)
REMARK    1  A    between atoms: C3_3  and  O1_8 
REMARK    2  A    between atoms: C6_6  and  N1_7 
ROOT
HETATM    1  C1  UNL     1       9.142   5.036  -6.585  1.00  0.00     0.026 A 
HETATM    2  C2  UNL     1       8.650   5.123  -5.281  1.00  0.00     0.038 A 
HETATM    3  C3  UNL     1       7.309   5.411  -5.070  1.00  0.00     0.065 A 
HETATM    4  C4  UNL     1       6.447   5.597  -6.145  1.00  0.00     0.038 A 
HETATM    5  C5  UNL     1       6.947   5.510  -7.447  1.00  0.00     0.026 A 
HETATM    6  C6  UNL     1       8.307   5.279  -7.680  1.00  0.00     0.005 A 
ENDROOT
BRANCH   6   7
HETATM    7  N1  UNL     1       8.775   5.075  -8.983  1.00  0.00    -0.303 NA
HETATM    8  H5  UNL     1       9.356   4.249  -9.083  1.00  0.00     0.124 HD
HETATM    9  H6  UNL     1       9.197   5.898  -9.401  1.00  0.00     0.124 HD
ENDBRANCH   6   7
BRANCH   3  10
HETATM   10  O1  UNL     1       6.867   5.484  -3.783  1.00  0.00    -0.361 OA
HETATM   11  H7  UNL     1       6.305   4.713  -3.604  1.00  0.00     0.217 HD
ENDBRANCH   3  10
TORSDOF 2
ENDMDL
MODEL 3
REMARK VINA RESULT:      -4.3      0.107      1.707
REMARK  2 active torsions:
REMARK  status: ('A' for Active; 'I' for Inactive)
REMARK    1  A    between atoms: C3_3  and  O1_8 
REMARK    2  A    between atoms: C6_6  and  N1_7 
ROOT
HETATM    1  C1  UNL     1       9.005   5.210  -7.155  1.00  0.00     0.026 A 
HETATM    2  C2  UNL     1       8.068   5.858  -7.962  1.00  0.00     0.038 A 
HETATM    3  C3  UNL     1       6.865   6.283  -7.415  1.00  0.00     0.065 A 
HETATM    4  C4  UNL     1       6.591   6.085  -6.067  1.00  0.00     0.038 A 
HETATM    5  C5  UNL     1       7.534   5.434  -5.265  1.00  0.00     0.026 A 
HETATM    6  C6  UNL     1       8.726   4.947  -5.810  1.00  0.00     0.005 A 
ENDROOT
BRANCH   6   7
HETATM    7  N1  UNL     1       9.712   4.405  -4.978  1.00  0.00    -0.303 NA
HETATM    8  H5  UNL     1       9.798   3.396  -5.051  1.00  0.00     0.124 HD
HETATM    9  H6  UNL     1       9.654   4.719  -4.015  1.00  0.00     0.124 HD
ENDBRANCH   6   7
BRANCH   3  10
HETATM   10  O1  UNL     1       5.978   6.914  -8.235  1.00  0.00    -0.361 OA
HETATM   11  H7  UNL     1       5.674   7.725  -7.797  1.00  0.00     0.217 HD
ENDBRANCH   3  10
TORSDOF 2
ENDMDL
MODEL 4
REMARK VINA RESULT:      -4.2      2.778      3.681
REMARK  2 active torsions:
REMARK  status: ('A' for Active; 'I' for Inactive)
REMARK    1  A    between atoms: C3_3  and  O1_8 
REMARK    2  A    between atoms: C6_6  and  N1_7 
ROOT
HETATM    1  C1  UNL     1       8.180   5.857  -8.024  1.00  0.00     0.026 A 
HETATM    2  C2  UNL     1       9.135   5.208  -7.238  1.00  0.00     0.038 A 
HETATM    3  C3  UNL     1       8.886   4.993  -5.890  1.00  0.00     0.065 A 
HETATM    4  C4  UNL     1       7.687   5.403  -5.317  1.00  0.00     0.038 A 
HETATM    5  C5  UNL     1       6.736   6.053  -6.110  1.00  0.00     0.026 A 
HETATM    6  C6  UNL     1       6.993   6.331  -7.456  1.00  0.00     0.005 A 
ENDROOT
BRANCH   6   7
HETATM    7  N1  UNL     1       5.991   6.873  -8.269  1.00  0.00    -0.303 NA
HETATM    8  H5  UNL     1       5.409   7.558  -7.796  1.00  0.00     0.124 HD
HETATM    9  H6  UNL     1       5.443   6.177  -8.764  1.00  0.00     0.124 HD
ENDBRANCH   6   7
BRANCH   3  10
HETATM   10  O1  UNL     1       9.841   4.355  -5.157  1.00  0.00    -0.361 OA
HETATM   11  H7  UNL     1       9.863   4.745  -4.269  1.00  0.00     0.217 HD
ENDBRANCH   3  10
TORSDOF 2
ENDMDL
MODEL 5
REMARK VINA RESULT:      -4.0      2.917      3.423
REMARK  2 active torsions:
REMARK  status: ('A' for Active; 'I' for Inactive)
REMARK    1  A    between atoms: C3_3  and  O1_8 
REMARK    2  A    between atoms: C6_6  and  N1_7 
ROOT
HETATM    1  C1  UNL     1       7.202   6.249  -7.225  1.00  0.00     0.026 A 
HETATM    2  C2  UNL     1       7.905   5.493  -6.284  1.00  0.00     0.038 A 
HETATM    3  C3  UNL     1       9.171   5.016  -6.593  1.00  0.00     0.065 A 
HETATM    4  C4  UNL     1       9.753   5.298  -7.824  1.00  0.00     0.038 A 
HETATM    5  C5  UNL     1       9.042   6.054  -8.761  1.00  0.00     0.026 A 
HETATM    6  C6  UNL     1       7.742   6.493  -8.491  1.00  0.00     0.005 A 
ENDROOT
BRANCH   6   7
HETATM    7  N1  UNL     1       7.087   7.348  -9.384  1.00  0.00    -0.303 NA
HETATM    8  H5  UNL     1       6.223   7.735  -9.019  1.00  0.00     0.124 HD
HETATM    9  H6  UNL     1       6.974   6.960 -10.315  1.00  0.00     0.124 HD
ENDBRANCH   6   7
BRANCH   3  10
HETATM   10  O1  UNL     1       9.826   4.285  -5.648  1.00  0.00    -0.361 OA
HETATM   11  H7  UNL     1      10.289   3.554  -6.088  1.00  0.00     0.217 HD
ENDBRANCH   3  10
TORSDOF 2
ENDMDL
MODEL 6
REMARK VINA RESULT:      -4.0      2.035      2.584
REMARK  2 active torsions:
REMARK  status: ('A' for Active; 'I' for Inactive)
REMARK    1  A    between atoms: C3_3  and  O1_8 
REMARK    2  A    between atoms: C6_6  and  N1_7 
ROOT
HETATM    1  C1  UNL     1       6.834   5.458  -6.708  1.00  0.00     0.026 A 
HETATM    2  C2  UNL     1       7.590   5.239  -7.861  1.00  0.00     0.038 A 
HETATM    3  C3  UNL     1       8.953   5.003  -7.756  1.00  0.00     0.065 A 
HETATM    4  C4  UNL     1       9.571   4.966  -6.511  1.00  0.00     0.038 A 
HETATM    5  C5  UNL     1       8.808   5.187  -5.360  1.00  0.00     0.026 A 
HETATM    6  C6  UNL     1       7.444   5.485  -5.450  1.00  0.00     0.005 A 
ENDROOT
BRANCH   6   7
HETATM    7  N1  UNL     1       6.667   5.586  -4.290  1.00  0.00    -0.303 NA
HETATM    8  H5  UNL     1       5.683   5.758  -4.473  1.00  0.00     0.124 HD
HETATM    9  H6  UNL     1       7.047   6.220  -3.596  1.00  0.00     0.124 HD
ENDBRANCH   6   7
BRANCH   3  10
HETATM   10  O1  UNL     1       9.655   4.791  -8.904  1.00  0.00    -0.361 OA
HETATM   11  H7  UNL     1      10.317   4.101  -8.740  1.00  0.00     0.217 HD
ENDBRANCH   3  10
TORSDOF 2
ENDMDL
MODEL 7
REMARK VINA RESULT:      -3.9      2.440      3.169
REMARK  2 active torsions:
REMARK  status: ('A' for Active; 'I' for Inactive)
REMARK    1  A    between atoms: C3_3  and  O1_8 
REMARK    2  A    between atoms: C6_6  and  N1_7 
ROOT
HETATM    1  C1  UNL     1       8.714   5.447  -7.589  1.00  0.00     0.026 A 
HETATM    2  C2  UNL     1       8.240   5.161  -6.307  1.00  0.00     0.038 A 
HETATM    3  C3  UNL     1       7.062   5.744  -5.864  1.00  0.00     0.065 A 
HETATM    4  C4  UNL     1       6.340   6.598  -6.690  1.00  0.00     0.038 A 
HETATM    5  C5  UNL     1       6.821   6.880  -7.972  1.00  0.00     0.026 A 
HETATM    6  C6  UNL     1       8.036   6.349  -8.415  1.00  0.00     0.005 A 
ENDROOT
BRANCH   6   7
HETATM    7  N1  UNL     1       8.449   6.541  -9.739  1.00  0.00    -0.303 NA
HETATM    8  H5  UNL     1       9.047   5.799 -10.091  1.00  0.00     0.124 HD
HETATM    9  H6  UNL     1       8.830   7.463  -9.920  1.00  0.00     0.124 HD
ENDBRANCH   6   7
BRANCH   3  10
HETATM   10  O1  UNL     1       6.631   5.439  -4.607  1.00  0.00    -0.361 OA
HETATM   11  H7  UNL     1       7.212   5.878  -3.965  1.00  0.00     0.217 HD
ENDBRANCH   3  10
TORSDOF 2
ENDMDL
MODEL 8
REMARK VINA RESULT:      -3.9      1.778      2.576
REMARK  2 active torsions:
REMARK  status: ('A' for Active; 'I' for Inactive)
REMARK    1  A    between atoms: C3_3  and  O1_8 
REMARK    2  A    between atoms: C6_6  and  N1_7 
ROOT
HETATM    1  C1  UNL     1       9.831   4.857  -6.643  1.00  0.00     0.026 A 
HETATM    2  C2  UNL     1      10.067   4.962  -8.016  1.00  0.00     0.038 A 
HETATM    3  C3  UNL     1       9.088   5.492  -8.844  1.00  0.00     0.065 A 
HETATM    4  C4  UNL     1       7.880   5.936  -8.317  1.00  0.00     0.038 A 
HETATM    5  C5  UNL     1       7.650   5.827  -6.943  1.00  0.00     0.026 A 
HETATM    6  C6  UNL     1       8.601   5.241  -6.101  1.00  0.00     0.005 A 
ENDROOT
BRANCH   6   7
HETATM    7  N1  UNL     1       8.412   5.245  -4.714  1.00  0.00    -0.303 NA
HETATM    8  H5  UNL     1       8.978   5.933  -4.227  1.00  0.00     0.124 HD
HETATM    9  H6  UNL     1       8.471   4.326  -4.289  1.00  0.00     0.124 HD
ENDBRANCH   6   7
BRANCH   3  10
HETATM   10  O1  UNL     1       9.358   5.580 -10.177  1.00  0.00    -0.361 OA
HETATM   11  H7  UNL     1       8.575   5.935 -10.628  1.00  0.00     0.217 HD
ENDBRANCH   3  10
TORSDOF 2
ENDMDL
MODEL 9
REMARK VINA RESULT:      -3.9      1.782      2.294
REMARK  2 active torsions:
REMARK  status: ('A' for Active; 'I' for Inactive)
REMARK    1  A    between atoms: C3_3  and  O1_8 
REMARK    2  A    between atoms: C6_6  and  N1_7 
ROOT
HETATM    1  C1  UNL     1       7.575   5.885  -6.959  1.00  0.00     0.026 A 
HETATM    2  C2  UNL     1       7.873   5.940  -8.322  1.00  0.00     0.038 A 
HETATM    3  C3  UNL     1       9.097   5.470  -8.778  1.00  0.00     0.065 A 
HETATM    4  C4  UNL     1      10.022   4.930  -7.892  1.00  0.00     0.038 A 
HETATM    5  C5  UNL     1       9.717   4.879  -6.528  1.00  0.00     0.026 A 
HETATM    6  C6  UNL     1       8.514   5.401  -6.043  1.00  0.00     0.005 A 
ENDROOT
BRANCH   6   7
HETATM    7  N1  UNL     1       8.167   5.238  -4.697  1.00  0.00    -0.303 NA
HETATM    8  H5  UNL     1       7.504   4.487  -4.534  1.00  0.00     0.124 HD
HETATM    9  H6  UNL     1       7.895   6.100  -4.235  1.00  0.00     0.124 HD
ENDBRANCH   6   7
BRANCH   3  10
HETATM   10  O1  UNL     1       9.349   5.539 -10.115  1.00  0.00    -0.361 OA
HETATM   11  H7  UNL     1       8.947   6.350 -10.465  1.00  0.00     0.217 HD
ENDBRANCH   3  10
TORSDOF 2
ENDMDL
MODEL 10
REMARK VINA RESULT:      -3.8      2.342      2.929
REMARK  2 active torsions:
REMARK  status: ('A' for Active; 'I' for Inactive)
REMARK    1  A    between atoms: C3_3  and  O1_8 
REMARK    2  A    between atoms: C6_6  and  N1_7 
ROOT
HETATM    1  C1  UNL     1       7.724   6.153  -8.422  1.00  0.00     0.026 A 
HETATM    2  C2  UNL     1       7.134   6.089  -7.157  1.00  0.00     0.038 A 
HETATM    3  C3  UNL     1       7.853   5.572  -6.089  1.00  0.00     0.065 A 
HETATM    4  C4  UNL     1       9.161   5.133  -6.261  1.00  0.00     0.038 A 
HETATM    5  C5  UNL     1       9.745   5.200  -7.530  1.00  0.00     0.026 A 
HETATM    6  C6  UNL     1       9.016   5.662  -8.631  1.00  0.00     0.005 A 
ENDROOT
BRANCH   6   7
HETATM    7  N1  UNL     1       9.645   5.837  -9.869  1.00  0.00    -0.303 NA
HETATM    8  H5  UNL     1       9.682   4.992 -10.431  1.00  0.00     0.124 HD
HETATM    9  H6  UNL     1      10.546   6.301  -9.810  1.00  0.00     0.124 HD
ENDBRANCH   6   7
BRANCH   3  10
HETATM   10  O1  UNL     1       7.244   5.528  -4.871  1.00  0.00    -0.361 OA
HETATM   11  H7  UNL     1       6.706   6.329  -4.764  1.00  0.00     0.217 HD
ENDBRANCH   3  10
TORSDOF 2
ENDMDL
MODEL 11
REMARK VINA RESULT:      -3.8      1.519      2.536
REMARK  2 active torsions:
REMARK  status: ('A' for Active; 'I' for Inactive)
REMARK    1  A    between atoms: C3_3  and  O1_8 
REMARK    2  A    between atoms: C6_6  and  N1_7 
ROOT
HETATM    1  C1  UNL     1       9.878   5.678  -8.993  1.00  0.00     0.026 A 
HETATM    2  C2  UNL     1       8.860   6.537  -9.414  1.00  0.00     0.038 A 
HETATM    3  C3  UNL     1       7.703   6.657  -8.657  1.00  0.00     0.065 A 
HETATM    4  C4  UNL     1       7.554   5.941  -7.474  1.00  0.00     0.038 A 
HETATM    5  C5  UNL     1       8.576   5.082  -7.060  1.00  0.00     0.026 A 
HETATM    6  C6  UNL     1       9.724   4.904  -7.839  1.00  0.00     0.005 A 
ENDROOT
BRANCH   6   7
HETATM    7  N1  UNL     1      10.790   4.135  -7.358  1.00  0.00    -0.303 NA
HETATM    8  H5  UNL     1      10.737   3.155  -7.617  1.00  0.00     0.124 HD
HETATM    9  H6  UNL     1      10.975   4.263  -6.368  1.00  0.00     0.124 HD
ENDBRANCH   6   7
BRANCH   3  10
HETATM   10  O1  UNL     1       6.735   7.507  -9.100  1.00  0.00    -0.361 OA
HETATM   11  H7  UNL     1       6.579   7.335 -10.043  1.00  0.00     0.217 HD
ENDBRANCH   3  10
TORSDOF 2
ENDMDL
MODEL 12
REMARK VINA RESULT:      -3.7      5.830      6.624
REMARK  2 active torsions:
REMARK  status: ('A' for Active; 'I' for Inactive)
REMARK    1  A    between atoms: C3_3  and  O1_8 
REMARK    2  A    between atoms: C6_6  and  N1_7 
ROOT
HETATM    1  C1  UNL     1      12.098   6.698  -9.157  1.00  0.00     0.026 A 
HETATM    2  C2  UNL     1      12.147   7.344  -7.919  1.00  0.00     0.038 A 
HETATM    3  C3  UNL     1      13.318   7.969  -7.515  1.00  0.00     0.065 A 
HETATM    4  C4  UNL     1      14.438   7.973  -8.339  1.00  0.00     0.038 A 
HETATM    5  C5  UNL     1      14.382   7.323  -9.576  1.00  0.00     0.026 A 
HETATM    6  C6  UNL     1      13.230   6.638  -9.974  1.00  0.00     0.005 A 
ENDROOT
BRANCH   6   7
HETATM    7  N1  UNL     1      13.143   6.094 -11.261  1.00  0.00    -0.303 NA
HETATM    8  H5  UNL     1      12.495   6.586 -11.868  1.00  0.00     0.124 HD
HETATM    9  H6  UNL     1      12.998   5.090 -11.273  1.00  0.00     0.124 HD
ENDBRANCH   6   7
BRANCH   3  10
HETATM   10  O1  UNL     1      13.325   8.590  -6.303  1.00  0.00    -0.361 OA
HETATM   11  H7  UNL     1      13.867   9.392  -6.369  1.00  0.00     0.217 HD
ENDBRANCH   3  10
TORSDOF 2
ENDMDL
MODEL 13
REMARK VINA RESULT:      -3.6      5.284      5.969
REMARK  2 active torsions:
REMARK  status: ('A' for Active; 'I' for Inactive)
REMARK    1  A    between atoms: C3_3  and  O1_8 
REMARK    2  A    between atoms: C6_6  and  N1_7 
ROOT
HETATM    1  C1  UNL     1      11.869   7.489  -7.832  1.00  0.00     0.026 A 
HETATM    2  C2  UNL     1      11.557   6.914  -9.066  1.00  0.00     0.038 A 
HETATM    3  C3  UNL     1      12.511   6.887 -10.073  1.00  0.00     0.065 A 
HETATM    4  C4  UNL     1      13.780   7.413  -9.860  1.00  0.00     0.038 A 
HETATM    5  C5  UNL     1      14.085   7.988  -8.623  1.00  0.00     0.026 A 
HETATM    6  C6  UNL     1      13.119   8.078  -7.616  1.00  0.00     0.005 A 
ENDROOT
BRANCH   6   7
HETATM    7  N1  UNL     1      13.467   8.546  -6.344  1.00  0.00    -0.303 NA
HETATM    8  H5  UNL     1      14.355   8.186  -6.006  1.00  0.00     0.124 HD
HETATM    9  H6  UNL     1      12.727   8.456  -5.656  1.00  0.00     0.124 HD
ENDBRANCH   6   7
BRANCH   3  10
HETATM   10  O1  UNL     1      12.169   6.315 -11.262  1.00  0.00    -0.361 OA
HETATM   11  H7  UNL     1      11.812   7.003 -11.846  1.00  0.00     0.217 HD
ENDBRANCH   3  10
TORSDOF 2
ENDMDL
MODEL 14
REMARK VINA RESULT:      -3.6      6.410      7.133
REMARK  2 active torsions:
REMARK  status: ('A' for Active; 'I' for Inactive)
REMARK    1  A    between atoms: C3_3  and  O1_8 
REMARK    2  A    between atoms: C6_6  and  N1_7 
ROOT
HETATM    1  C1  UNL     1      12.116   8.050  -9.650  1.00  0.00     0.026 A 
HETATM    2  C2  UNL     1      12.435   7.811  -8.311  1.00  0.00     0.038 A 
HETATM    3  C3  UNL     1      13.014   8.818  -7.552  1.00  0.00     0.065 A 
HETATM    4  C4  UNL     1      13.265  10.068  -8.108  1.00  0.00     0.038 A 
HETATM    5  C5  UNL     1      12.944  10.299  -9.449  1.00  0.00     0.026 A 
HETATM    6  C6  UNL     1      12.415   9.279 -10.246  1.00  0.00     0.005 A 
ENDROOT
BRANCH   6   7
HETATM    7  N1  UNL     1      11.988   9.553 -11.550  1.00  0.00    -0.303 NA
HETATM    8  H5  UNL     1      11.669   8.733 -12.056  1.00  0.00     0.124 HD
HETATM    9  H6  UNL     1      12.644  10.109 -12.088  1.00  0.00     0.124 HD
ENDBRANCH   6   7
BRANCH   3  10
HETATM   10  O1  UNL     1      13.307   8.547  -6.249  1.00  0.00    -0.361 OA
HETATM   11  H7  UNL     1      13.144   9.346  -5.723  1.00  0.00     0.217 HD
ENDBRANCH   3  10
TORSDOF 2
ENDMDL
MODEL 15
REMARK VINA RESULT:      -3.5      6.059      6.534
REMARK  2 active torsions:
REMARK  status: ('A' for Active; 'I' for Inactive)
REMARK    1  A    between atoms: C3_3  and  O1_8 
REMARK    2  A    between atoms: C6_6  and  N1_7 
ROOT
HETATM    1  C1  UNL     1      12.832  10.135  -8.223  1.00  0.00     0.026 A 
HETATM    2  C2  UNL     1      12.471  10.388  -9.549  1.00  0.00     0.038 A 
HETATM    3  C3  UNL     1      12.264   9.328 -10.420  1.00  0.00     0.065 A 
HETATM    4  C4  UNL     1      12.398   8.015  -9.981  1.00  0.00     0.038 A 
HETATM    5  C5  UNL     1      12.762   7.770  -8.653  1.00  0.00     0.026 A 
HETATM    6  C6  UNL     1      13.031   8.826  -7.777  1.00  0.00     0.005 A 
ENDROOT
BRANCH   6   7
HETATM    7  N1  UNL     1      13.277   8.572  -6.422  1.00  0.00    -0.303 NA
HETATM    8  H5  UNL     1      14.263   8.564  -6.181  1.00  0.00     0.124 HD
HETATM    9  H6  UNL     1      12.784   7.762  -6.061  1.00  0.00     0.124 HD
ENDBRANCH   6   7
BRANCH   3  10
HETATM   10  O1  UNL     1      11.910   9.616 -11.703  1.00  0.00    -0.361 OA
HETATM   11  H7  UNL     1      11.752   8.782 -12.175  1.00  0.00     0.217 HD
ENDBRANCH   3  10
TORSDOF 2
ENDMDL
MODEL 16
REMARK VINA RESULT:      -3.4      6.058      6.843
REMARK  2 active torsions:
REMARK  status: ('A' for Active; 'I' for Inactive)
REMARK    1  A    between atoms: C3_3  and  O1_8 
REMARK    2  A    between atoms: C6_6  and  N1_7 
ROOT
HETATM    1  C1  UNL     1      11.839   8.819  -9.887  1.00  0.00     0.026 A 
HETATM    2  C2  UNL     1      11.703   7.740  -9.011  1.00  0.00     0.038 A 
HETATM    3  C3  UNL     1      12.386   6.559  -9.264  1.00  0.00     0.065 A 
HETATM    4  C4  UNL     1      13.217   6.445 -10.373  1.00  0.00     0.038 A 
HETATM    5  C5  UNL     1      13.347   7.529 -11.246  1.00  0.00     0.026 A 
HETATM    6  C6  UNL     1      12.621   8.707 -11.040  1.00  0.00     0.005 A 
ENDROOT
BRANCH   6   7
HETATM    7  N1  UNL     1      12.849   9.826 -11.850  1.00  0.00    -0.303 NA
HETATM    8  H5  UNL     1      12.029  10.413 -11.974  1.00  0.00     0.124 HD
HETATM    9  H6  UNL     1      13.305   9.609 -12.730  1.00  0.00     0.124 HD
ENDBRANCH   6   7
BRANCH   3  10
HETATM   10  O1  UNL     1      12.229   5.530  -8.384  1.00  0.00    -0.361 OA
HETATM   11  H7  UNL     1      13.076   5.062  -8.301  1.00  0.00     0.217 HD
ENDBRANCH   3  10
TORSDOF 2
ENDMDL
MODEL 17
REMARK VINA RESULT:      -3.3      5.765      6.445
REMARK  2 active torsions:
REMARK  status: ('A' for Active; 'I' for Inactive)
REMARK    1  A    between atoms: C3_3  and  O1_8 
REMARK    2  A    between atoms: C6_6  and  N1_7 
ROOT
HETATM    1  C1  UNL     1      11.715   8.100  -9.088  1.00  0.00     0.026 A 
HETATM    2  C2  UNL     1      11.873   9.113 -10.036  1.00  0.00     0.038 A 
HETATM    3  C3  UNL     1      12.691   8.903 -11.137  1.00  0.00     0.065 A 
HETATM    4  C4  UNL     1      13.343   7.687 -11.313  1.00  0.00     0.038 A 
HETATM    5  C5  UNL     1      13.181   6.678 -10.359  1.00  0.00     0.026 A 
HETATM    6  C6  UNL     1      12.408   6.892  -9.214  1.00  0.00     0.005 A 
ENDROOT
BRANCH   6   7
HETATM    7  N1  UNL     1      12.156   5.838  -8.327  1.00  0.00    -0.303 NA
HETATM    8  H5  UNL     1      12.799   5.059  -8.427  1.00  0.00     0.124 HD
HETATM    9  H6  UNL     1      11.187   5.540  -8.309  1.00  0.00     0.124 HD
ENDBRANCH   6   7
BRANCH   3  10
HETATM   10  O1  UNL     1      12.817   9.915 -12.041  1.00  0.00    -0.361 OA
HETATM   11  H7  UNL     1      12.913   9.529 -12.926  1.00  0.00     0.217 HD
ENDBRANCH   3  10
TORSDOF 2
ENDMDL
MODEL 18
REMARK VINA RESULT:      -3.3      3.246      3.846
REMARK  2 active torsions:
REMARK  status: ('A' for Active; 'I' for Inactive)
REMARK    1  A    between atoms: C3_3  and  O1_8 
REMARK    2  A    between atoms: C6_6  and  N1_7 
ROOT
HETATM    1  C1  UNL     1       9.787   7.156  -9.319  1.00  0.00     0.026 A 
HETATM    2  C2  UNL     1       8.715   6.298  -9.066  1.00  0.00     0.038 A 
HETATM    3  C3  UNL     1       8.945   5.066  -8.470  1.00  0.00     0.065 A 
HETATM    4  C4  UNL     1      10.232   4.684  -8.109  1.00  0.00     0.038 A 
HETATM    5  C5  UNL     1      11.301   5.547  -8.367  1.00  0.00     0.026 A 
HETATM    6  C6  UNL     1      11.096   6.768  -9.019  1.00  0.00     0.005 A 
ENDROOT
BRANCH   6   7
HETATM    7  N1  UNL     1      12.152   7.675  -9.165  1.00  0.00    -0.303 NA
HETATM    8  H5  UNL     1      12.946   7.298  -9.674  1.00  0.00     0.124 HD
HETATM    9  H6  UNL     1      12.428   8.126  -8.299  1.00  0.00     0.124 HD
ENDBRANCH   6   7
BRANCH   3  10
HETATM   10  O1  UNL     1       7.872   4.259  -8.237  1.00  0.00    -0.361 OA
HETATM   11  H7  UNL     1       7.978   3.446  -8.756  1.00  0.00     0.217 HD
ENDBRANCH   3  10
TORSDOF 2
ENDMDL
MODEL 19
REMARK VINA RESULT:      -2.9      7.145      8.144
REMARK  2 active torsions:
REMARK  status: ('A' for Active; 'I' for Inactive)
REMARK    1  A    between atoms: C3_3  and  O1_8 
REMARK    2  A    between atoms: C6_6  and  N1_7 
ROOT
HETATM    1  C1  UNL     1       2.082   7.138 -11.754  1.00  0.00     0.026 A 
HETATM    2  C2  UNL     1       0.732   6.925 -12.041  1.00  0.00     0.038 A 
HETATM    3  C3  UNL     1      -0.082   6.311 -11.100  1.00  0.00     0.065 A 
HETATM    4  C4  UNL     1       0.430   5.921  -9.867  1.00  0.00     0.038 A 
HETATM    5  C5  UNL     1       1.783   6.136  -9.588  1.00  0.00     0.026 A 
HETATM    6  C6  UNL     1       2.632   6.700 -10.545  1.00  0.00     0.005 A 
ENDROOT
BRANCH   6   7
HETATM    7  N1  UNL     1       3.954   7.021 -10.214  1.00  0.00    -0.303 NA
HETATM    8  H5  UNL     1       4.544   6.209 -10.062  1.00  0.00     0.124 HD
HETATM    9  H6  UNL     1       4.036   7.703  -9.468  1.00  0.00     0.124 HD
ENDBRANCH   6   7
BRANCH   3  10
HETATM   10  O1  UNL     1      -1.394   6.122 -11.417  1.00  0.00    -0.361 OA
HETATM   11  H7  UNL     1      -1.936   6.677 -10.833  1.00  0.00     0.217 HD
ENDBRANCH   3  10
TORSDOF 2
ENDMDL
MODEL 20
REMARK VINA RESULT:      -2.8      6.101      6.996
REMARK  2 active torsions:
REMARK  status: ('A' for Active; 'I' for Inactive)
REMARK    1  A    between atoms: C3_3  and  O1_8 
REMARK    2  A    between atoms: C6_6  and  N1_7 
ROOT
HETATM    1  C1  UNL     1       4.115   9.072 -12.041  1.00  0.00     0.026 A 
HETATM    2  C2  UNL     1       3.616   7.805 -11.731  1.00  0.00     0.038 A 
HETATM    3  C3  UNL     1       3.681   7.341 -10.425  1.00  0.00     0.065 A 
HETATM    4  C4  UNL     1       4.224   8.132  -9.419  1.00  0.00     0.038 A 
HETATM    5  C5  UNL     1       4.723   9.399  -9.737  1.00  0.00     0.026 A 
HETATM    6  C6  UNL     1       4.719   9.860 -11.057  1.00  0.00     0.005 A 
ENDROOT
BRANCH   6   7
HETATM    7  N1  UNL     1       5.110  11.173 -11.346  1.00  0.00    -0.303 NA
HETATM    8  H5  UNL     1       5.973  11.234 -11.877  1.00  0.00     0.124 HD
HETATM    9  H6  UNL     1       5.109  11.788 -10.539  1.00  0.00     0.124 HD
ENDBRANCH   6   7
BRANCH   3  10
HETATM   10  O1  UNL     1       3.181   6.101 -10.163  1.00  0.00    -0.361 OA
HETATM   11  H7  UNL     1       2.800   6.103  -9.270  1.00  0.00     0.217 HD
ENDBRANCH   3  10
TORSDOF 2
ENDMDL
