MODEL 1
REMARK VINA RESULT:      -6.6      0.000      0.000
REMARK  27 active torsions:
REMARK  status: ('A' for Active; 'I' for Inactive)
REMARK    1  A    between atoms: C2_2  and  S1_4 
REMARK    2  A    between atoms: S1_4  and  C3_5 
REMARK    3  A    between atoms: C3_5  and  C4_6 
REMARK    4  A    between atoms: C4_6  and  N1_7 
REMARK       I    between atoms: N1_7  and  C5_8 
REMARK    5  A    between atoms: C5_8  and  C6_10 
REMARK    6  A    between atoms: C6_10  and  C7_11 
REMARK    7  A    between atoms: C7_11  and  N2_12 
REMARK       I    between atoms: N2_12  and  C8_13 
REMARK    8  A    between atoms: C8_13  and  C9_15 
REMARK    9  A    between atoms: C9_15  and  C10_16 
REMARK   10  A    between atoms: C9_15  and  O17_54 
REMARK   11  A    between atoms: C10_16  and  C13_19 
REMARK   12  A    between atoms: C13_19  and  O4_20 
REMARK   13  A    between atoms: O4_20  and  P1_21 
REMARK   14  A    between atoms: P1_21  and  O6_23 
REMARK   15  A    between atoms: P1_21  and  O7_24 
REMARK   16  A    between atoms: O7_24  and  P2_25 
REMARK   17  A    between atoms: P2_25  and  O9_27 
REMARK   18  A    between atoms: P2_25  and  O10_28 
REMARK   19  A    between atoms: O10_28  and  C14_29 
REMARK   20  A    between atoms: C14_29  and  C15_30 
REMARK   21  A    between atoms: C16_31  and  O13_49 
REMARK   22  A    between atoms: C17_32  and  O12_48 
REMARK   23  A    between atoms: C18_33  and  N3_35 
REMARK   24  A    between atoms: C21_40  and  N7_47 
REMARK   25  A    between atoms: O13_49  and  P3_50 
REMARK   26  A    between atoms: P3_50  and  O15_52 
REMARK   27  A    between atoms: P3_50  and  O16_53 
ROOT
HETATM    1  C1  UNL     1       3.600  14.566  -3.792  1.00  0.00     0.104 C 
HETATM    2  C2  UNL     1       4.451  15.364  -4.732  1.00  0.00     0.182 C 
HETATM    3  O1  UNL     1       4.036  16.338  -5.356  1.00  0.00    -0.286 OA
ENDROOT
BRANCH   2   4
HETATM    4  S1  UNL     1       6.096  14.768  -4.905  1.00  0.00    -0.091 SA
BRANCH   4   5
HETATM    5  C3  UNL     1       6.251  13.796  -3.372  1.00  0.00     0.102 C 
BRANCH   5   6
HETATM    6  C4  UNL     1       7.499  14.182  -2.576  1.00  0.00     0.133 C 
BRANCH   6   7
HETATM    7  N1  UNL     1       8.531  14.769  -3.404  1.00  0.00    -0.360 N 
HETATM    8  C5  UNL     1       9.592  15.456  -2.861  1.00  0.00     0.219 C 
HETATM    9  O2  UNL     1       9.687  15.683  -1.661  1.00  0.00    -0.274 OA
HETATM   10  H8  UNL     1       8.469  14.662  -4.408  1.00  0.00     0.162 HD
BRANCH   8  11
HETATM   11  C6  UNL     1      10.585  15.940  -3.896  1.00  0.00     0.122 C 
BRANCH  11  12
HETATM   12  C7  UNL     1      10.052  15.779  -5.319  1.00  0.00     0.132 C 
BRANCH  12  13
HETATM   13  N2  UNL     1      10.822  14.843  -6.111  1.00  0.00    -0.358 N 
HETATM   14  C8  UNL     1      10.421  13.524  -6.217  1.00  0.00     0.247 C 
HETATM   15  O3  UNL     1       9.487  13.073  -5.566  1.00  0.00    -0.271 OA
HETATM   16  H13 UNL     1      11.317  15.245  -6.905  1.00  0.00     0.162 HD
BRANCH  14  17
HETATM   17  C9  UNL     1      11.222  12.687  -7.225  1.00  0.00     0.219 C 
BRANCH  17  18
HETATM   18  C10 UNL     1      10.755  12.832  -8.697  1.00  0.00     0.009 C 
HETATM   19  C11 UNL     1      10.596  11.472  -9.391  1.00  0.00     0.020 C 
HETATM   20  C12 UNL     1       9.406  13.574  -8.792  1.00  0.00     0.020 C 
BRANCH  18  21
HETATM   21  C13 UNL     1      11.859  13.659  -9.416  1.00  0.00     0.192 C 
BRANCH  21  22
HETATM   22  O4  UNL     1      12.639  12.870 -10.291  1.00  0.00    -0.296 OA
BRANCH  22  23
HETATM   23  P1  UNL     1      14.151  12.445  -9.967  1.00  0.00     0.401 P 
HETATM   24  O5  UNL     1      14.964  13.521  -9.319  1.00  0.00    -0.631 OA
BRANCH  23  25
HETATM   25  O6  UNL     1      14.783  11.891 -11.340  1.00  0.00    -0.307 OA
HETATM   26  H23 UNL     1      15.201  11.028 -11.224  1.00  0.00     0.222 HD
ENDBRANCH  23  25
BRANCH  23  27
HETATM   27  O7  UNL     1      14.028  11.103  -9.121  1.00  0.00    -0.195 OA
BRANCH  27  28
HETATM   28  P2  UNL     1      15.316  10.549  -8.365  1.00  0.00     0.401 P 
HETATM   29  O8  UNL     1      16.529  10.290  -9.196  1.00  0.00    -0.631 OA
BRANCH  28  30
HETATM   30  O9  UNL     1      15.541  11.613  -7.196  1.00  0.00    -0.307 OA
HETATM   31  H24 UNL     1      14.805  12.265  -7.096  1.00  0.00     0.222 HD
ENDBRANCH  28  30
BRANCH  28  32
HETATM   32  O10 UNL     1      14.766   9.305  -7.527  1.00  0.00    -0.294 OA
BRANCH  32  33
HETATM   33  C14 UNL     1      13.387   9.046  -7.477  1.00  0.00     0.215 C 
BRANCH  33  34
HETATM   34  C15 UNL     1      13.205   7.609  -7.962  1.00  0.00     0.180 C 
HETATM   35  C16 UNL     1      13.145   7.583  -9.484  1.00  0.00     0.197 C 
HETATM   36  C17 UNL     1      11.763   7.045  -9.805  1.00  0.00     0.199 C 
HETATM   37  C18 UNL     1      11.433   6.233  -8.550  1.00  0.00     0.262 C 
HETATM   38  O11 UNL     1      12.006   7.000  -7.468  1.00  0.00    -0.353 OA
BRANCH  35  39
HETATM   39  O13 UNL     1      14.178   6.722  -9.951  1.00  0.00    -0.286 OA
BRANCH  39  40
HETATM   40  P3  UNL     1      15.133   7.338 -11.075  1.00  0.00     0.391 P 
HETATM   41  O14 UNL     1      16.590   7.154 -10.795  1.00  0.00    -0.632 OA
BRANCH  40  42
HETATM   42  O15 UNL     1      14.578   8.837 -11.151  1.00  0.00    -0.307 OA
HETATM   43  H36 UNL     1      14.277   9.143 -10.262  1.00  0.00     0.222 HD
ENDBRANCH  40  42
BRANCH  40  44
HETATM   44  O16 UNL     1      14.546   6.667 -12.391  1.00  0.00    -0.307 OA
HETATM   45  H37 UNL     1      13.980   5.902 -12.203  1.00  0.00     0.222 HD
ENDBRANCH  40  44
ENDBRANCH  39  40
ENDBRANCH  35  39
BRANCH  36  46
HETATM   46  O12 UNL     1      11.781   6.347 -11.052  1.00  0.00    -0.388 OA
HETATM   47  H35 UNL     1      11.445   6.981 -11.730  1.00  0.00     0.210 HD
ENDBRANCH  36  46
BRANCH  37  48
HETATM   48  N3  UNL     1      10.007   6.107  -8.327  1.00  0.00    -0.297 N 
HETATM   49  C19 UNL     1       9.000   6.364  -9.228  1.00  0.00     0.188 A 
HETATM   50  N4  UNL     1       7.816   6.031  -8.761  1.00  0.00    -0.346 N 
HETATM   51  C20 UNL     1       8.069   5.530  -7.496  1.00  0.00     0.116 A 
HETATM   52  H4  UNL     1       6.913   6.122  -9.226  1.00  0.00     0.167 HD
HETATM   53  C21 UNL     1       7.238   4.975  -6.507  1.00  0.00     0.109 A 
HETATM   54  C23 UNL     1       9.418   5.608  -7.200  1.00  0.00     0.142 A 
HETATM   55  N5  UNL     1       7.797   4.575  -5.339  1.00  0.00    -0.341 N 
HETATM   56  C22 UNL     1       9.126   4.734  -5.180  1.00  0.00     0.183 A 
HETATM   57  H5  UNL     1       7.227   4.164  -4.600  1.00  0.00     0.167 HD
HETATM   58  N6  UNL     1      10.019   5.242  -6.054  1.00  0.00    -0.336 N 
HETATM   59  H6  UNL     1      11.019   5.336  -5.871  1.00  0.00     0.168 HD
BRANCH  53  60
HETATM   60  N7  UNL     1       5.869   4.822  -6.660  1.00  0.00    -0.287 NA
HETATM   61  H33 UNL     1       5.315   5.262  -5.928  1.00  0.00     0.125 HD
HETATM   62  H34 UNL     1       5.604   3.885  -6.931  1.00  0.00     0.125 HD
ENDBRANCH  53  60
ENDBRANCH  37  48
ENDBRANCH  33  34
ENDBRANCH  32  33
ENDBRANCH  28  32
ENDBRANCH  27  28
ENDBRANCH  23  27
ENDBRANCH  22  23
ENDBRANCH  21  22
ENDBRANCH  18  21
ENDBRANCH  17  18
BRANCH  17  63
HETATM   63  O17 UNL     1      12.611  13.025  -7.154  1.00  0.00    -0.385 OA
HETATM   64  H38 UNL     1      13.101  12.232  -6.879  1.00  0.00     0.210 HD
ENDBRANCH  17  63
ENDBRANCH  14  17
ENDBRANCH  12  13
ENDBRANCH  11  12
ENDBRANCH   8  11
ENDBRANCH   6   7
ENDBRANCH   5   6
ENDBRANCH   4   5
ENDBRANCH   2   4
TORSDOF 27
ENDMDL
MODEL 2
REMARK VINA RESULT:      -6.4      4.686      7.557
REMARK  27 active torsions:
REMARK  status: ('A' for Active; 'I' for Inactive)
REMARK    1  A    between atoms: C2_2  and  S1_4 
REMARK    2  A    between atoms: S1_4  and  C3_5 
REMARK    3  A    between atoms: C3_5  and  C4_6 
REMARK    4  A    between atoms: C4_6  and  N1_7 
REMARK       I    between atoms: N1_7  and  C5_8 
REMARK    5  A    between atoms: C5_8  and  C6_10 
REMARK    6  A    between atoms: C6_10  and  C7_11 
REMARK    7  A    between atoms: C7_11  and  N2_12 
REMARK       I    between atoms: N2_12  and  C8_13 
REMARK    8  A    between atoms: C8_13  and  C9_15 
REMARK    9  A    between atoms: C9_15  and  C10_16 
REMARK   10  A    between atoms: C9_15  and  O17_54 
REMARK   11  A    between atoms: C10_16  and  C13_19 
REMARK   12  A    between atoms: C13_19  and  O4_20 
REMARK   13  A    between atoms: O4_20  and  P1_21 
REMARK   14  A    between atoms: P1_21  and  O6_23 
REMARK   15  A    between atoms: P1_21  and  O7_24 
REMARK   16  A    between atoms: O7_24  and  P2_25 
REMARK   17  A    between atoms: P2_25  and  O9_27 
REMARK   18  A    between atoms: P2_25  and  O10_28 
REMARK   19  A    between atoms: O10_28  and  C14_29 
REMARK   20  A    between atoms: C14_29  and  C15_30 
REMARK   21  A    between atoms: C16_31  and  O13_49 
REMARK   22  A    between atoms: C17_32  and  O12_48 
REMARK   23  A    between atoms: C18_33  and  N3_35 
REMARK   24  A    between atoms: C21_40  and  N7_47 
REMARK   25  A    between atoms: O13_49  and  P3_50 
REMARK   26  A    between atoms: P3_50  and  O15_52 
REMARK   27  A    between atoms: P3_50  and  O16_53 
ROOT
HETATM    1  C1  UNL     1       8.975   5.210  -6.278  1.00  0.00     0.104 C 
HETATM    2  C2  UNL     1       8.236   4.890  -7.542  1.00  0.00     0.182 C 
HETATM    3  O1  UNL     1       7.266   4.137  -7.584  1.00  0.00    -0.286 OA
ENDROOT
BRANCH   2   4
HETATM    4  S1  UNL     1       8.897   5.653  -8.982  1.00  0.00    -0.091 SA
BRANCH   4   5
HETATM    5  C3  UNL     1       8.090   7.283  -8.884  1.00  0.00     0.102 C 
BRANCH   5   6
HETATM    6  C4  UNL     1       6.629   7.170  -8.443  1.00  0.00     0.133 C 
BRANCH   6   7
HETATM    7  N1  UNL     1       5.917   8.428  -8.541  1.00  0.00    -0.360 N 
HETATM    8  C5  UNL     1       5.195   8.766  -9.662  1.00  0.00     0.219 C 
HETATM    9  O2  UNL     1       5.175   8.069 -10.669  1.00  0.00    -0.274 OA
HETATM   10  H8  UNL     1       5.949   9.067  -7.758  1.00  0.00     0.162 HD
BRANCH   8  11
HETATM   11  C6  UNL     1       4.482  10.095  -9.537  1.00  0.00     0.122 C 
BRANCH  11  12
HETATM   12  C7  UNL     1       4.878  11.063 -10.652  1.00  0.00     0.132 C 
BRANCH  12  13
HETATM   13  N2  UNL     1       6.254  11.505 -10.557  1.00  0.00    -0.358 N 
HETATM   14  C8  UNL     1       6.618  12.754 -11.027  1.00  0.00     0.247 C 
HETATM   15  O3  UNL     1       5.837  13.473 -11.637  1.00  0.00    -0.271 OA
HETATM   16  H13 UNL     1       6.781  11.132  -9.770  1.00  0.00     0.162 HD
BRANCH  14  17
HETATM   17  C9  UNL     1       8.062  13.167 -10.705  1.00  0.00     0.219 C 
BRANCH  17  18
HETATM   18  C10 UNL     1       8.253  13.793  -9.299  1.00  0.00     0.009 C 
HETATM   19  C11 UNL     1       7.019  14.588  -8.847  1.00  0.00     0.020 C 
HETATM   20  C12 UNL     1       8.539  12.714  -8.234  1.00  0.00     0.020 C 
BRANCH  18  21
HETATM   21  C13 UNL     1       9.475  14.748  -9.419  1.00  0.00     0.192 C 
BRANCH  21  22
HETATM   22  O4  UNL     1      10.513  14.197 -10.203  1.00  0.00    -0.296 OA
BRANCH  22  23
HETATM   23  P1  UNL     1      11.829  13.538  -9.567  1.00  0.00     0.401 P 
HETATM   24  O5  UNL     1      12.086  13.934  -8.147  1.00  0.00    -0.631 OA
BRANCH  23  25
HETATM   25  O6  UNL     1      13.047  13.873 -10.564  1.00  0.00    -0.307 OA
HETATM   26  H23 UNL     1      13.810  13.302 -10.408  1.00  0.00     0.222 HD
ENDBRANCH  23  25
BRANCH  23  27
HETATM   27  O7  UNL     1      11.659  11.974  -9.801  1.00  0.00    -0.195 OA
BRANCH  27  28
HETATM   28  P2  UNL     1      12.742  10.981  -9.184  1.00  0.00     0.401 P 
HETATM   29  O8  UNL     1      14.179  11.342  -9.377  1.00  0.00    -0.631 OA
BRANCH  28  30
HETATM   30  O9  UNL     1      12.300  10.861  -7.654  1.00  0.00    -0.307 OA
HETATM   31  H24 UNL     1      11.400  10.475  -7.523  1.00  0.00     0.222 HD
ENDBRANCH  28  30
BRANCH  28  32
HETATM   32  O10 UNL     1      12.304   9.545  -9.729  1.00  0.00    -0.294 OA
BRANCH  32  33
HETATM   33  C14 UNL     1      13.027   8.937 -10.767  1.00  0.00     0.215 C 
BRANCH  33  34
HETATM   34  C15 UNL     1      13.436   7.558 -10.252  1.00  0.00     0.180 C 
HETATM   35  C16 UNL     1      14.690   7.679  -9.395  1.00  0.00     0.197 C 
HETATM   36  C17 UNL     1      15.735   6.859 -10.127  1.00  0.00     0.199 C 
HETATM   37  C18 UNL     1      14.876   5.864 -10.910  1.00  0.00     0.262 C 
HETATM   38  O11 UNL     1      13.715   6.628 -11.304  1.00  0.00    -0.353 OA
BRANCH  35  39
HETATM   39  O13 UNL     1      14.396   7.149  -8.107  1.00  0.00    -0.286 OA
BRANCH  39  40
HETATM   40  P3  UNL     1      14.709   8.119  -6.875  1.00  0.00     0.391 P 
HETATM   41  O14 UNL     1      15.630   9.246  -7.214  1.00  0.00    -0.632 OA
BRANCH  40  42
HETATM   42  O15 UNL     1      15.203   7.062  -5.780  1.00  0.00    -0.307 OA
HETATM   43  H36 UNL     1      14.710   7.180  -4.934  1.00  0.00     0.222 HD
ENDBRANCH  40  42
BRANCH  40  44
HETATM   44  O16 UNL     1      13.242   8.488  -6.385  1.00  0.00    -0.307 OA
HETATM   45  H37 UNL     1      12.681   7.707  -6.255  1.00  0.00     0.222 HD
ENDBRANCH  40  44
ENDBRANCH  39  40
ENDBRANCH  35  39
BRANCH  36  46
HETATM   46  O12 UNL     1      16.682   6.322  -9.200  1.00  0.00    -0.388 OA
HETATM   47  H35 UNL     1      17.399   6.995  -9.113  1.00  0.00     0.210 HD
ENDBRANCH  36  46
BRANCH  37  48
HETATM   48  N3  UNL     1      15.538   5.373 -12.101  1.00  0.00    -0.297 N 
HETATM   49  C19 UNL     1      15.269   5.720 -13.405  1.00  0.00     0.188 A 
HETATM   50  N4  UNL     1      16.131   5.197 -14.249  1.00  0.00    -0.346 N 
HETATM   51  C20 UNL     1      17.006   4.478 -13.453  1.00  0.00     0.116 A 
HETATM   52  H4  UNL     1      16.151   5.298 -15.263  1.00  0.00     0.167 HD
HETATM   53  C21 UNL     1      18.162   3.732 -13.740  1.00  0.00     0.109 A 
HETATM   54  C23 UNL     1      16.627   4.547 -12.124  1.00  0.00     0.142 A 
HETATM   55  N5  UNL     1      18.811   3.121 -12.719  1.00  0.00    -0.341 N 
HETATM   56  C22 UNL     1      18.312   3.256 -11.474  1.00  0.00     0.183 A 
HETATM   57  H5  UNL     1      19.655   2.574 -12.888  1.00  0.00     0.167 HD
HETATM   58  N6  UNL     1      17.224   3.949 -11.078  1.00  0.00    -0.336 N 
HETATM   59  H6  UNL     1      16.898   4.011 -10.114  1.00  0.00     0.168 HD
BRANCH  53  60
HETATM   60  N7  UNL     1      18.671   3.578 -15.020  1.00  0.00    -0.287 NA
HETATM   61  H33 UNL     1      19.482   2.966 -15.077  1.00  0.00     0.125 HD
HETATM   62  H34 UNL     1      18.719   4.447 -15.533  1.00  0.00     0.125 HD
ENDBRANCH  53  60
ENDBRANCH  37  48
ENDBRANCH  33  34
ENDBRANCH  32  33
ENDBRANCH  28  32
ENDBRANCH  27  28
ENDBRANCH  23  27
ENDBRANCH  22  23
ENDBRANCH  21  22
ENDBRANCH  18  21
ENDBRANCH  17  18
BRANCH  17  63
HETATM   63  O17 UNL     1       8.935  12.039 -10.823  1.00  0.00    -0.385 OA
HETATM   64  H38 UNL     1       8.925  11.559  -9.978  1.00  0.00     0.210 HD
ENDBRANCH  17  63
ENDBRANCH  14  17
ENDBRANCH  12  13
ENDBRANCH  11  12
ENDBRANCH   8  11
ENDBRANCH   6   7
ENDBRANCH   5   6
ENDBRANCH   4   5
ENDBRANCH   2   4
TORSDOF 27
ENDMDL
MODEL 3
REMARK VINA RESULT:      -6.4      6.077      9.786
REMARK  27 active torsions:
REMARK  status: ('A' for Active; 'I' for Inactive)
REMARK    1  A    between atoms: C2_2  and  S1_4 
REMARK    2  A    between atoms: S1_4  and  C3_5 
REMARK    3  A    between atoms: C3_5  and  C4_6 
REMARK    4  A    between atoms: C4_6  and  N1_7 
REMARK       I    between atoms: N1_7  and  C5_8 
REMARK    5  A    between atoms: C5_8  and  C6_10 
REMARK    6  A    between atoms: C6_10  and  C7_11 
REMARK    7  A    between atoms: C7_11  and  N2_12 
REMARK       I    between atoms: N2_12  and  C8_13 
REMARK    8  A    between atoms: C8_13  and  C9_15 
REMARK    9  A    between atoms: C9_15  and  C10_16 
REMARK   10  A    between atoms: C9_15  and  O17_54 
REMARK   11  A    between atoms: C10_16  and  C13_19 
REMARK   12  A    between atoms: C13_19  and  O4_20 
REMARK   13  A    between atoms: O4_20  and  P1_21 
REMARK   14  A    between atoms: P1_21  and  O6_23 
REMARK   15  A    between atoms: P1_21  and  O7_24 
REMARK   16  A    between atoms: O7_24  and  P2_25 
REMARK   17  A    between atoms: P2_25  and  O9_27 
REMARK   18  A    between atoms: P2_25  and  O10_28 
REMARK   19  A    between atoms: O10_28  and  C14_29 
REMARK   20  A    between atoms: C14_29  and  C15_30 
REMARK   21  A    between atoms: C16_31  and  O13_49 
REMARK   22  A    between atoms: C17_32  and  O12_48 
REMARK   23  A    between atoms: C18_33  and  N3_35 
REMARK   24  A    between atoms: C21_40  and  N7_47 
REMARK   25  A    between atoms: O13_49  and  P3_50 
REMARK   26  A    between atoms: P3_50  and  O15_52 
REMARK   27  A    between atoms: P3_50  and  O16_53 
ROOT
HETATM    1  C1  UNL     1       6.270   6.638  -7.069  1.00  0.00     0.104 C 
HETATM    2  C2  UNL     1       6.674   5.335  -6.450  1.00  0.00     0.182 C 
HETATM    3  O1  UNL     1       5.870   4.465  -6.125  1.00  0.00    -0.286 OA
ENDROOT
BRANCH   2   4
HETATM    4  S1  UNL     1       8.404   5.163  -6.187  1.00  0.00    -0.091 SA
BRANCH   4   5
HETATM    5  C3  UNL     1       9.008   5.308  -7.900  1.00  0.00     0.102 C 
BRANCH   5   6
HETATM    6  C4  UNL     1      10.436   4.780  -8.048  1.00  0.00     0.133 C 
BRANCH   6   7
HETATM    7  N1  UNL     1      11.398   5.833  -8.302  1.00  0.00    -0.360 N 
HETATM    8  C5  UNL     1      11.484   6.455  -9.525  1.00  0.00     0.219 C 
HETATM    9  O2  UNL     1      10.815   6.107 -10.491  1.00  0.00    -0.274 OA
HETATM   10  H8  UNL     1      12.016   6.118  -7.554  1.00  0.00     0.162 HD
BRANCH   8  11
HETATM   11  C6  UNL     1      12.515   7.563  -9.563  1.00  0.00     0.122 C 
BRANCH  11  12
HETATM   12  C7  UNL     1      13.223   7.637 -10.915  1.00  0.00     0.132 C 
BRANCH  12  13
HETATM   13  N2  UNL     1      13.820   6.380 -11.313  1.00  0.00    -0.358 N 
HETATM   14  C8  UNL     1      15.193   6.266 -11.430  1.00  0.00     0.247 C 
HETATM   15  O3  UNL     1      15.939   7.232 -11.322  1.00  0.00    -0.271 OA
HETATM   16  H13 UNL     1      13.305   5.545 -11.040  1.00  0.00     0.162 HD
BRANCH  14  17
HETATM   17  C9  UNL     1      15.702   4.839 -11.684  1.00  0.00     0.219 C 
BRANCH  17  18
HETATM   18  C10 UNL     1      16.309   4.614 -13.094  1.00  0.00     0.009 C 
HETATM   19  C11 UNL     1      16.103   3.175 -13.589  1.00  0.00     0.020 C 
HETATM   20  C12 UNL     1      15.688   5.568 -14.135  1.00  0.00     0.020 C 
BRANCH  18  21
HETATM   21  C13 UNL     1      17.830   4.907 -12.956  1.00  0.00     0.192 C 
BRANCH  21  22
HETATM   22  O4  UNL     1      18.611   3.730 -13.003  1.00  0.00    -0.296 OA
BRANCH  22  23
HETATM   23  P1  UNL     1      20.180   3.713 -12.673  1.00  0.00     0.401 P 
HETATM   24  O5  UNL     1      21.024   4.441 -13.672  1.00  0.00    -0.631 OA
BRANCH  23  25
HETATM   25  O6  UNL     1      20.597   2.171 -12.472  1.00  0.00    -0.307 OA
HETATM   26  H23 UNL     1      20.720   1.948 -11.540  1.00  0.00     0.222 HD
ENDBRANCH  23  25
BRANCH  23  27
HETATM   27  O7  UNL     1      20.293   4.260 -11.183  1.00  0.00    -0.195 OA
BRANCH  27  28
HETATM   28  P2  UNL     1      20.008   3.264  -9.973  1.00  0.00     0.401 P 
HETATM   29  O8  UNL     1      18.896   2.283 -10.152  1.00  0.00    -0.631 OA
BRANCH  28  30
HETATM   30  O9  UNL     1      21.433   2.592  -9.709  1.00  0.00    -0.307 OA
HETATM   31  H24 UNL     1      22.142   2.894 -10.327  1.00  0.00     0.222 HD
ENDBRANCH  28  30
BRANCH  28  32
HETATM   32  O10 UNL     1      19.896   4.223  -8.702  1.00  0.00    -0.294 OA
BRANCH  32  33
HETATM   33  C14 UNL     1      20.863   5.216  -8.483  1.00  0.00     0.215 C 
BRANCH  33  34
HETATM   34  C15 UNL     1      20.223   6.236  -7.543  1.00  0.00     0.180 C 
HETATM   35  C16 UNL     1      18.917   5.680  -6.991  1.00  0.00     0.197 C 
HETATM   36  C17 UNL     1      17.849   6.633  -7.495  1.00  0.00     0.199 C 
HETATM   37  C18 UNL     1      18.642   7.926  -7.701  1.00  0.00     0.262 C 
HETATM   38  O11 UNL     1      19.929   7.482  -8.186  1.00  0.00    -0.353 OA
BRANCH  35  39
HETATM   39  O13 UNL     1      19.004   5.675  -5.570  1.00  0.00    -0.286 OA
BRANCH  39  40
HETATM   40  P3  UNL     1      19.674   4.374  -4.925  1.00  0.00     0.391 P 
HETATM   41  O14 UNL     1      21.116   4.550  -4.574  1.00  0.00    -0.632 OA
BRANCH  40  42
HETATM   42  O15 UNL     1      19.307   3.272  -6.025  1.00  0.00    -0.307 OA
HETATM   43  H36 UNL     1      18.901   3.694  -6.819  1.00  0.00     0.222 HD
ENDBRANCH  40  42
BRANCH  40  44
HETATM   44  O16 UNL     1      18.662   4.053  -3.741  1.00  0.00    -0.307 OA
HETATM   45  H37 UNL     1      17.848   4.580  -3.788  1.00  0.00     0.222 HD
ENDBRANCH  40  44
ENDBRANCH  39  40
ENDBRANCH  35  39
BRANCH  36  46
HETATM   46  O12 UNL     1      16.750   6.674  -6.582  1.00  0.00    -0.388 OA
HETATM   47  H35 UNL     1      16.901   5.947  -5.932  1.00  0.00     0.210 HD
ENDBRANCH  36  46
BRANCH  37  48
HETATM   48  N3  UNL     1      18.044   8.793  -8.695  1.00  0.00    -0.297 N 
HETATM   49  C19 UNL     1      18.537   9.090  -9.944  1.00  0.00     0.188 A 
HETATM   50  N4  UNL     1      17.695   9.808 -10.655  1.00  0.00    -0.346 N 
HETATM   51  C20 UNL     1      16.599   9.981  -9.828  1.00  0.00     0.116 A 
HETATM   52  H4  UNL     1      17.821  10.159 -11.604  1.00  0.00     0.167 HD
HETATM   53  C21 UNL     1      15.358  10.615 -10.010  1.00  0.00     0.109 A 
HETATM   54  C23 UNL     1      16.818   9.391  -8.596  1.00  0.00     0.142 A 
HETATM   55  N5  UNL     1      14.476  10.624  -8.981  1.00  0.00    -0.341 N 
HETATM   56  C22 UNL     1      14.836  10.027  -7.827  1.00  0.00     0.183 A 
HETATM   57  H5  UNL     1      13.564  11.071  -9.077  1.00  0.00     0.167 HD
HETATM   58  N6  UNL     1      15.986   9.385  -7.540  1.00  0.00    -0.336 N 
HETATM   59  H6  UNL     1      16.198   8.952  -6.640  1.00  0.00     0.168 HD
BRANCH  53  60
HETATM   60  N7  UNL     1      14.989  11.243 -11.190  1.00  0.00    -0.287 NA
HETATM   61  H33 UNL     1      15.764  11.651 -11.707  1.00  0.00     0.125 HD
HETATM   62  H34 UNL     1      14.158  11.811 -11.091  1.00  0.00     0.125 HD
ENDBRANCH  53  60
ENDBRANCH  37  48
ENDBRANCH  33  34
ENDBRANCH  32  33
ENDBRANCH  28  32
ENDBRANCH  27  28
ENDBRANCH  23  27
ENDBRANCH  22  23
ENDBRANCH  21  22
ENDBRANCH  18  21
ENDBRANCH  17  18
BRANCH  17  63
HETATM   63  O17 UNL     1      16.685   4.485 -10.705  1.00  0.00    -0.385 OA
HETATM   64  H38 UNL     1      17.509   4.953 -10.921  1.00  0.00     0.210 HD
ENDBRANCH  17  63
ENDBRANCH  14  17
ENDBRANCH  12  13
ENDBRANCH  11  12
ENDBRANCH   8  11
ENDBRANCH   6   7
ENDBRANCH   5   6
ENDBRANCH   4   5
ENDBRANCH   2   4
TORSDOF 27
ENDMDL
MODEL 4
REMARK VINA RESULT:      -6.4      6.350     11.802
REMARK  27 active torsions:
REMARK  status: ('A' for Active; 'I' for Inactive)
REMARK    1  A    between atoms: C2_2  and  S1_4 
REMARK    2  A    between atoms: S1_4  and  C3_5 
REMARK    3  A    between atoms: C3_5  and  C4_6 
REMARK    4  A    between atoms: C4_6  and  N1_7 
REMARK       I    between atoms: N1_7  and  C5_8 
REMARK    5  A    between atoms: C5_8  and  C6_10 
REMARK    6  A    between atoms: C6_10  and  C7_11 
REMARK    7  A    between atoms: C7_11  and  N2_12 
REMARK       I    between atoms: N2_12  and  C8_13 
REMARK    8  A    between atoms: C8_13  and  C9_15 
REMARK    9  A    between atoms: C9_15  and  C10_16 
REMARK   10  A    between atoms: C9_15  and  O17_54 
REMARK   11  A    between atoms: C10_16  and  C13_19 
REMARK   12  A    between atoms: C13_19  and  O4_20 
REMARK   13  A    between atoms: O4_20  and  P1_21 
REMARK   14  A    between atoms: P1_21  and  O6_23 
REMARK   15  A    between atoms: P1_21  and  O7_24 
REMARK   16  A    between atoms: O7_24  and  P2_25 
REMARK   17  A    between atoms: P2_25  and  O9_27 
REMARK   18  A    between atoms: P2_25  and  O10_28 
REMARK   19  A    between atoms: O10_28  and  C14_29 
REMARK   20  A    between atoms: C14_29  and  C15_30 
REMARK   21  A    between atoms: C16_31  and  O13_49 
REMARK   22  A    between atoms: C17_32  and  O12_48 
REMARK   23  A    between atoms: C18_33  and  N3_35 
REMARK   24  A    between atoms: C21_40  and  N7_47 
REMARK   25  A    between atoms: O13_49  and  P3_50 
REMARK   26  A    between atoms: P3_50  and  O15_52 
REMARK   27  A    between atoms: P3_50  and  O16_53 
ROOT
HETATM    1  C1  UNL     1      15.817  -4.175 -14.146  1.00  0.00     0.104 C 
HETATM    2  C2  UNL     1      14.641  -3.446 -13.572  1.00  0.00     0.182 C 
HETATM    3  O1  UNL     1      14.096  -3.769 -12.519  1.00  0.00    -0.286 OA
ENDROOT
BRANCH   2   4
HETATM    4  S1  UNL     1      14.071  -2.102 -14.552  1.00  0.00    -0.091 SA
BRANCH   4   5
HETATM    5  C3  UNL     1      14.672  -0.698 -13.558  1.00  0.00     0.102 C 
BRANCH   5   6
HETATM    6  C4  UNL     1      16.181  -0.497 -13.708  1.00  0.00     0.133 C 
BRANCH   6   7
HETATM    7  N1  UNL     1      16.572   0.894 -13.614  1.00  0.00    -0.360 N 
HETATM    8  C5  UNL     1      17.760   1.274 -13.034  1.00  0.00     0.219 C 
HETATM    9  O2  UNL     1      18.516   0.476 -12.493  1.00  0.00    -0.274 OA
HETATM   10  H8  UNL     1      15.955   1.600 -13.993  1.00  0.00     0.162 HD
BRANCH   8  11
HETATM   11  C6  UNL     1      18.002   2.767 -13.088  1.00  0.00     0.122 C 
BRANCH  11  12
HETATM   12  C7  UNL     1      19.284   3.165 -12.356  1.00  0.00     0.132 C 
BRANCH  12  13
HETATM   13  N2  UNL     1      19.244   2.865 -10.940  1.00  0.00    -0.358 N 
HETATM   14  C8  UNL     1      20.415   2.812 -10.206  1.00  0.00     0.247 C 
HETATM   15  O3  UNL     1      21.518   2.894 -10.732  1.00  0.00    -0.271 OA
HETATM   16  H13 UNL     1      18.403   3.165 -10.452  1.00  0.00     0.162 HD
BRANCH  14  17
HETATM   17  C9  UNL     1      20.220   2.662  -8.690  1.00  0.00     0.219 C 
BRANCH  17  18
HETATM   18  C10 UNL     1      20.476   3.958  -7.878  1.00  0.00     0.009 C 
HETATM   19  C11 UNL     1      19.690   3.979  -6.558  1.00  0.00     0.020 C 
HETATM   20  C12 UNL     1      21.972   4.128  -7.542  1.00  0.00     0.020 C 
BRANCH  18  21
HETATM   21  C13 UNL     1      20.006   5.131  -8.785  1.00  0.00     0.192 C 
BRANCH  21  22
HETATM   22  O4  UNL     1      18.613   5.353  -8.698  1.00  0.00    -0.296 OA
BRANCH  22  23
HETATM   23  P1  UNL     1      17.952   6.806  -8.849  1.00  0.00     0.401 P 
HETATM   24  O5  UNL     1      18.682   7.889  -8.118  1.00  0.00    -0.631 OA
BRANCH  23  25
HETATM   25  O6  UNL     1      16.407   6.661  -8.420  1.00  0.00    -0.307 OA
HETATM   26  H23 UNL     1      15.993   7.520  -8.264  1.00  0.00     0.222 HD
ENDBRANCH  23  25
BRANCH  23  27
HETATM   27  O7  UNL     1      17.817   7.036 -10.417  1.00  0.00    -0.195 OA
BRANCH  27  28
HETATM   28  P2  UNL     1      16.743   6.186 -11.230  1.00  0.00     0.401 P 
HETATM   29  O8  UNL     1      16.956   6.057 -12.703  1.00  0.00    -0.631 OA
BRANCH  28  30
HETATM   30  O9  UNL     1      16.714   4.792 -10.452  1.00  0.00    -0.307 OA
HETATM   31  H24 UNL     1      16.053   4.753  -9.718  1.00  0.00     0.222 HD
ENDBRANCH  28  30
BRANCH  28  32
HETATM   32  O10 UNL     1      15.340   6.803 -10.780  1.00  0.00    -0.294 OA
BRANCH  32  33
HETATM   33  C14 UNL     1      14.157   6.393 -11.414  1.00  0.00     0.215 C 
BRANCH  33  34
HETATM   34  C15 UNL     1      13.048   7.293 -10.871  1.00  0.00     0.180 C 
HETATM   35  C16 UNL     1      13.493   7.924  -9.558  1.00  0.00     0.197 C 
HETATM   36  C17 UNL     1      12.507   7.402  -8.529  1.00  0.00     0.199 C 
HETATM   37  C18 UNL     1      11.278   7.092  -9.387  1.00  0.00     0.262 C 
HETATM   38  O11 UNL     1      11.826   6.589 -10.625  1.00  0.00    -0.353 OA
BRANCH  35  39
HETATM   39  O13 UNL     1      13.421   9.338  -9.701  1.00  0.00    -0.286 OA
BRANCH  39  40
HETATM   40  P3  UNL     1      14.685  10.151  -9.155  1.00  0.00     0.391 P 
HETATM   41  O14 UNL     1      14.377  11.564  -8.778  1.00  0.00    -0.632 OA
BRANCH  40  42
HETATM   42  O15 UNL     1      15.731   9.912 -10.342  1.00  0.00    -0.307 OA
HETATM   43  H36 UNL     1      16.483   9.351 -10.037  1.00  0.00     0.222 HD
ENDBRANCH  40  42
BRANCH  40  44
HETATM   44  O16 UNL     1      15.212   9.182  -8.009  1.00  0.00    -0.307 OA
HETATM   45  H37 UNL     1      15.312   9.629  -7.154  1.00  0.00     0.222 HD
ENDBRANCH  40  44
ENDBRANCH  39  40
ENDBRANCH  35  39
BRANCH  36  46
HETATM   46  O12 UNL     1      12.347   8.351  -7.471  1.00  0.00    -0.388 OA
HETATM   47  H35 UNL     1      11.500   8.123  -7.019  1.00  0.00     0.210 HD
ENDBRANCH  36  46
BRANCH  37  48
HETATM   48  N3  UNL     1      10.434   6.070  -8.801  1.00  0.00    -0.297 N 
HETATM   49  C19 UNL     1      10.833   4.863  -8.277  1.00  0.00     0.188 A 
HETATM   50  N4  UNL     1       9.841   4.215  -7.706  1.00  0.00    -0.346 N 
HETATM   51  C20 UNL     1       8.745   5.046  -7.864  1.00  0.00     0.116 A 
HETATM   52  H4  UNL     1       9.871   3.304  -7.250  1.00  0.00     0.167 HD
HETATM   53  C21 UNL     1       7.408   4.949  -7.442  1.00  0.00     0.109 A 
HETATM   54  C23 UNL     1       9.091   6.181  -8.574  1.00  0.00     0.142 A 
HETATM   55  N5  UNL     1       6.551   5.947  -7.769  1.00  0.00    -0.341 N 
HETATM   56  C22 UNL     1       7.024   6.984  -8.488  1.00  0.00     0.183 A 
HETATM   57  H5  UNL     1       5.574   5.914  -7.478  1.00  0.00     0.167 HD
HETATM   58  N6  UNL     1       8.279   7.189  -8.937  1.00  0.00    -0.336 N 
HETATM   59  H6  UNL     1       8.573   8.001  -9.480  1.00  0.00     0.168 HD
BRANCH  53  60
HETATM   60  N7  UNL     1       6.913   3.878  -6.715  1.00  0.00    -0.287 NA
HETATM   61  H33 UNL     1       7.261   3.823  -5.761  1.00  0.00     0.125 HD
HETATM   62  H34 UNL     1       6.897   3.016  -7.244  1.00  0.00     0.125 HD
ENDBRANCH  53  60
ENDBRANCH  37  48
ENDBRANCH  33  34
ENDBRANCH  32  33
ENDBRANCH  28  32
ENDBRANCH  27  28
ENDBRANCH  23  27
ENDBRANCH  22  23
ENDBRANCH  21  22
ENDBRANCH  18  21
ENDBRANCH  17  18
BRANCH  17  63
HETATM   63  O17 UNL     1      18.893   2.204  -8.407  1.00  0.00    -0.385 OA
HETATM   64  H38 UNL     1      18.457   2.868  -7.848  1.00  0.00     0.210 HD
ENDBRANCH  17  63
ENDBRANCH  14  17
ENDBRANCH  12  13
ENDBRANCH  11  12
ENDBRANCH   8  11
ENDBRANCH   6   7
ENDBRANCH   5   6
ENDBRANCH   4   5
ENDBRANCH   2   4
TORSDOF 27
ENDMDL
MODEL 5
REMARK VINA RESULT:      -6.2      5.512      9.828
REMARK  27 active torsions:
REMARK  status: ('A' for Active; 'I' for Inactive)
REMARK    1  A    between atoms: C2_2  and  S1_4 
REMARK    2  A    between atoms: S1_4  and  C3_5 
REMARK    3  A    between atoms: C3_5  and  C4_6 
REMARK    4  A    between atoms: C4_6  and  N1_7 
REMARK       I    between atoms: N1_7  and  C5_8 
REMARK    5  A    between atoms: C5_8  and  C6_10 
REMARK    6  A    between atoms: C6_10  and  C7_11 
REMARK    7  A    between atoms: C7_11  and  N2_12 
REMARK       I    between atoms: N2_12  and  C8_13 
REMARK    8  A    between atoms: C8_13  and  C9_15 
REMARK    9  A    between atoms: C9_15  and  C10_16 
REMARK   10  A    between atoms: C9_15  and  O17_54 
REMARK   11  A    between atoms: C10_16  and  C13_19 
REMARK   12  A    between atoms: C13_19  and  O4_20 
REMARK   13  A    between atoms: O4_20  and  P1_21 
REMARK   14  A    between atoms: P1_21  and  O6_23 
REMARK   15  A    between atoms: P1_21  and  O7_24 
REMARK   16  A    between atoms: O7_24  and  P2_25 
REMARK   17  A    between atoms: P2_25  and  O9_27 
REMARK   18  A    between atoms: P2_25  and  O10_28 
REMARK   19  A    between atoms: O10_28  and  C14_29 
REMARK   20  A    between atoms: C14_29  and  C15_30 
REMARK   21  A    between atoms: C16_31  and  O13_49 
REMARK   22  A    between atoms: C17_32  and  O12_48 
REMARK   23  A    between atoms: C18_33  and  N3_35 
REMARK   24  A    between atoms: C21_40  and  N7_47 
REMARK   25  A    between atoms: O13_49  and  P3_50 
REMARK   26  A    between atoms: P3_50  and  O15_52 
REMARK   27  A    between atoms: P3_50  and  O16_53 
ROOT
HETATM    1  C1  UNL     1      14.445   1.059 -14.257  1.00  0.00     0.104 C 
HETATM    2  C2  UNL     1      15.892   1.249 -13.916  1.00  0.00     0.182 C 
HETATM    3  O1  UNL     1      16.701   0.326 -13.872  1.00  0.00    -0.286 OA
ENDROOT
BRANCH   2   4
HETATM    4  S1  UNL     1      16.336   2.908 -13.541  1.00  0.00    -0.091 SA
BRANCH   4   5
HETATM    5  C3  UNL     1      17.999   2.648 -12.843  1.00  0.00     0.102 C 
BRANCH   5   6
HETATM    6  C4  UNL     1      18.300   3.627 -11.706  1.00  0.00     0.133 C 
BRANCH   6   7
HETATM    7  N1  UNL     1      18.597   2.958 -10.456  1.00  0.00    -0.360 N 
HETATM    8  C5  UNL     1      19.639   3.356  -9.652  1.00  0.00     0.219 C 
HETATM    9  O2  UNL     1      20.423   4.240  -9.977  1.00  0.00    -0.274 OA
HETATM   10  H8  UNL     1      18.015   2.182 -10.169  1.00  0.00     0.162 HD
BRANCH   8  11
HETATM   11  C6  UNL     1      19.742   2.562  -8.368  1.00  0.00     0.122 C 
BRANCH  11  12
HETATM   12  C7  UNL     1      20.407   3.366  -7.251  1.00  0.00     0.132 C 
BRANCH  12  13
HETATM   13  N2  UNL     1      19.555   4.408  -6.717  1.00  0.00    -0.358 N 
HETATM   14  C8  UNL     1      20.019   5.707  -6.622  1.00  0.00     0.247 C 
HETATM   15  O3  UNL     1      21.182   6.003  -6.866  1.00  0.00    -0.271 OA
HETATM   16  H13 UNL     1      18.558   4.280  -6.873  1.00  0.00     0.162 HD
BRANCH  14  17
HETATM   17  C9  UNL     1      18.961   6.740  -6.208  1.00  0.00     0.219 C 
BRANCH  17  18
HETATM   18  C10 UNL     1      18.251   7.444  -7.394  1.00  0.00     0.009 C 
HETATM   19  C11 UNL     1      18.892   7.090  -8.744  1.00  0.00     0.020 C 
HETATM   20  C12 UNL     1      16.757   7.065  -7.463  1.00  0.00     0.020 C 
BRANCH  18  21
HETATM   21  C13 UNL     1      18.393   8.971  -7.132  1.00  0.00     0.192 C 
BRANCH  21  22
HETATM   22  O4  UNL     1      18.284   9.732  -8.317  1.00  0.00    -0.296 OA
BRANCH  22  23
HETATM   23  P1  UNL     1      17.163  10.860  -8.527  1.00  0.00     0.401 P 
HETATM   24  O5  UNL     1      17.354  11.691  -9.757  1.00  0.00    -0.631 OA
BRANCH  23  25
HETATM   25  O6  UNL     1      17.105  11.718  -7.166  1.00  0.00    -0.307 OA
HETATM   26  H23 UNL     1      16.425  11.393  -6.562  1.00  0.00     0.222 HD
ENDBRANCH  23  25
BRANCH  23  27
HETATM   27  O7  UNL     1      15.778  10.080  -8.460  1.00  0.00    -0.195 OA
BRANCH  27  28
HETATM   28  P2  UNL     1      14.452  10.824  -8.935  1.00  0.00     0.401 P 
HETATM   29  O8  UNL     1      14.203  12.187  -8.376  1.00  0.00    -0.631 OA
BRANCH  28  30
HETATM   30  O9  UNL     1      14.559  10.784 -10.528  1.00  0.00    -0.307 OA
HETATM   31  H24 UNL     1      15.439  10.486 -10.865  1.00  0.00     0.222 HD
ENDBRANCH  28  30
BRANCH  28  32
HETATM   32  O10 UNL     1      13.297   9.748  -8.691  1.00  0.00    -0.294 OA
BRANCH  32  33
HETATM   33  C14 UNL     1      13.336   8.920  -7.559  1.00  0.00     0.215 C 
BRANCH  33  34
HETATM   34  C15 UNL     1      13.111   7.496  -8.063  1.00  0.00     0.180 C 
HETATM   35  C16 UNL     1      12.987   7.500  -9.581  1.00  0.00     0.197 C 
HETATM   36  C17 UNL     1      11.585   6.989  -9.853  1.00  0.00     0.199 C 
HETATM   37  C18 UNL     1      11.295   6.158  -8.601  1.00  0.00     0.262 C 
HETATM   38  O11 UNL     1      11.925   6.895  -7.530  1.00  0.00    -0.353 OA
BRANCH  35  39
HETATM   39  O13 UNL     1      13.986   6.633 -10.107  1.00  0.00    -0.286 OA
BRANCH  39  40
HETATM   40  P3  UNL     1      14.755   7.173 -11.401  1.00  0.00     0.391 P 
HETATM   41  O14 UNL     1      15.196   6.092 -12.334  1.00  0.00    -0.632 OA
BRANCH  40  42
HETATM   42  O15 UNL     1      15.889   8.074 -10.722  1.00  0.00    -0.307 OA
HETATM   43  H36 UNL     1      16.747   7.973 -11.198  1.00  0.00     0.222 HD
ENDBRANCH  40  42
BRANCH  40  44
HETATM   44  O16 UNL     1      13.722   8.248 -11.955  1.00  0.00    -0.307 OA
HETATM   45  H37 UNL     1      13.676   8.260 -12.924  1.00  0.00     0.222 HD
ENDBRANCH  40  44
ENDBRANCH  39  40
ENDBRANCH  35  39
BRANCH  36  46
HETATM   46  O12 UNL     1      11.539   6.315 -11.114  1.00  0.00    -0.388 OA
HETATM   47  H35 UNL     1      10.622   6.431 -11.458  1.00  0.00     0.210 HD
ENDBRANCH  36  46
BRANCH  37  48
HETATM   48  N3  UNL     1       9.878   6.049  -8.321  1.00  0.00    -0.297 N 
HETATM   49  C19 UNL     1       8.838   6.313  -9.182  1.00  0.00     0.188 A 
HETATM   50  N4  UNL     1       7.671   5.995  -8.666  1.00  0.00    -0.346 N 
HETATM   51  C20 UNL     1       7.969   5.496  -7.411  1.00  0.00     0.116 A 
HETATM   52  H4  UNL     1       6.751   6.095  -9.095  1.00  0.00     0.167 HD
HETATM   53  C21 UNL     1       7.172   4.953  -6.388  1.00  0.00     0.109 A 
HETATM   54  C23 UNL     1       9.329   5.559  -7.169  1.00  0.00     0.142 A 
HETATM   55  N5  UNL     1       7.773   4.550  -5.241  1.00  0.00    -0.341 N 
HETATM   56  C22 UNL     1       9.109   4.695  -5.137  1.00  0.00     0.183 A 
HETATM   57  H5  UNL     1       7.228   4.148  -4.478  1.00  0.00     0.167 HD
HETATM   58  N6  UNL     1       9.972   5.190  -6.047  1.00  0.00    -0.336 N 
HETATM   59  H6  UNL     1      10.979   5.273  -5.905  1.00  0.00     0.168 HD
BRANCH  53  60
HETATM   60  N7  UNL     1       5.796   4.815  -6.484  1.00  0.00    -0.287 NA
HETATM   61  H33 UNL     1       5.439   3.925  -6.143  1.00  0.00     0.125 HD
HETATM   62  H34 UNL     1       5.428   5.145  -7.366  1.00  0.00     0.125 HD
ENDBRANCH  53  60
ENDBRANCH  37  48
ENDBRANCH  33  34
ENDBRANCH  32  33
ENDBRANCH  28  32
ENDBRANCH  27  28
ENDBRANCH  23  27
ENDBRANCH  22  23
ENDBRANCH  21  22
ENDBRANCH  18  21
ENDBRANCH  17  18
BRANCH  17  63
HETATM   63  O17 UNL     1      17.966   6.124  -5.383  1.00  0.00    -0.385 OA
HETATM   64  H38 UNL     1      17.096   6.295  -5.781  1.00  0.00     0.210 HD
ENDBRANCH  17  63
ENDBRANCH  14  17
ENDBRANCH  12  13
ENDBRANCH  11  12
ENDBRANCH   8  11
ENDBRANCH   6   7
ENDBRANCH   5   6
ENDBRANCH   4   5
ENDBRANCH   2   4
TORSDOF 27
ENDMDL
MODEL 6
REMARK VINA RESULT:      -6.1      3.070      4.727
REMARK  27 active torsions:
REMARK  status: ('A' for Active; 'I' for Inactive)
REMARK    1  A    between atoms: C2_2  and  S1_4 
REMARK    2  A    between atoms: S1_4  and  C3_5 
REMARK    3  A    between atoms: C3_5  and  C4_6 
REMARK    4  A    between atoms: C4_6  and  N1_7 
REMARK       I    between atoms: N1_7  and  C5_8 
REMARK    5  A    between atoms: C5_8  and  C6_10 
REMARK    6  A    between atoms: C6_10  and  C7_11 
REMARK    7  A    between atoms: C7_11  and  N2_12 
REMARK       I    between atoms: N2_12  and  C8_13 
REMARK    8  A    between atoms: C8_13  and  C9_15 
REMARK    9  A    between atoms: C9_15  and  C10_16 
REMARK   10  A    between atoms: C9_15  and  O17_54 
REMARK   11  A    between atoms: C10_16  and  C13_19 
REMARK   12  A    between atoms: C13_19  and  O4_20 
REMARK   13  A    between atoms: O4_20  and  P1_21 
REMARK   14  A    between atoms: P1_21  and  O6_23 
REMARK   15  A    between atoms: P1_21  and  O7_24 
REMARK   16  A    between atoms: O7_24  and  P2_25 
REMARK   17  A    between atoms: P2_25  and  O9_27 
REMARK   18  A    between atoms: P2_25  and  O10_28 
REMARK   19  A    between atoms: O10_28  and  C14_29 
REMARK   20  A    between atoms: C14_29  and  C15_30 
REMARK   21  A    between atoms: C16_31  and  O13_49 
REMARK   22  A    between atoms: C17_32  and  O12_48 
REMARK   23  A    between atoms: C18_33  and  N3_35 
REMARK   24  A    between atoms: C21_40  and  N7_47 
REMARK   25  A    between atoms: O13_49  and  P3_50 
REMARK   26  A    between atoms: P3_50  and  O15_52 
REMARK   27  A    between atoms: P3_50  and  O16_53 
ROOT
HETATM    1  C1  UNL     1       7.946  11.950  -9.791  1.00  0.00     0.104 C 
HETATM    2  C2  UNL     1       7.381  13.332  -9.669  1.00  0.00     0.182 C 
HETATM    3  O1  UNL     1       6.594  13.813 -10.481  1.00  0.00    -0.286 OA
ENDROOT
BRANCH   2   4
HETATM    4  S1  UNL     1       7.970  14.237  -8.281  1.00  0.00    -0.091 SA
BRANCH   4   5
HETATM    5  C3  UNL     1       9.767  14.011  -8.487  1.00  0.00     0.102 C 
BRANCH   5   6
HETATM    6  C4  UNL     1      10.407  15.187  -9.228  1.00  0.00     0.133 C 
BRANCH   6   7
HETATM    7  N1  UNL     1      11.409  14.765 -10.185  1.00  0.00    -0.360 N 
HETATM    8  C5  UNL     1      12.342  15.641 -10.690  1.00  0.00     0.219 C 
HETATM    9  O2  UNL     1      12.334  16.838 -10.427  1.00  0.00    -0.274 OA
HETATM   10  H8  UNL     1      11.423  13.798 -10.481  1.00  0.00     0.162 HD
BRANCH   8  11
HETATM   11  C6  UNL     1      13.331  14.987 -11.631  1.00  0.00     0.122 C 
BRANCH  11  12
HETATM   12  C7  UNL     1      14.757  15.033 -11.083  1.00  0.00     0.132 C 
BRANCH  12  13
HETATM   13  N2  UNL     1      15.269  13.728 -10.724  1.00  0.00    -0.358 N 
HETATM   14  C8  UNL     1      16.574  13.587 -10.287  1.00  0.00     0.247 C 
HETATM   15  O3  UNL     1      17.369  14.519 -10.299  1.00  0.00    -0.271 OA
HETATM   16  H13 UNL     1      14.582  13.073 -10.356  1.00  0.00     0.162 HD
BRANCH  14  17
HETATM   17  C9  UNL     1      16.934  12.186  -9.773  1.00  0.00     0.219 C 
BRANCH  17  18
HETATM   18  C10 UNL     1      17.194  12.109  -8.245  1.00  0.00     0.009 C 
HETATM   19  C11 UNL     1      17.044  10.679  -7.704  1.00  0.00     0.020 C 
HETATM   20  C12 UNL     1      18.609  12.607  -7.887  1.00  0.00     0.020 C 
BRANCH  18  21
HETATM   21  C13 UNL     1      16.130  13.031  -7.584  1.00  0.00     0.192 C 
BRANCH  21  22
HETATM   22  O4  UNL     1      14.915  12.355  -7.329  1.00  0.00    -0.296 OA
BRANCH  22  23
HETATM   23  P1  UNL     1      13.483  12.959  -7.725  1.00  0.00     0.401 P 
HETATM   24  O5  UNL     1      13.404  14.451  -7.644  1.00  0.00    -0.631 OA
BRANCH  23  25
HETATM   25  O6  UNL     1      12.391  12.200  -6.817  1.00  0.00    -0.307 OA
HETATM   26  H23 UNL     1      11.489  12.390  -7.103  1.00  0.00     0.222 HD
ENDBRANCH  23  25
BRANCH  23  27
HETATM   27  O7  UNL     1      13.165  12.353  -9.162  1.00  0.00    -0.195 OA
BRANCH  27  28
HETATM   28  P2  UNL     1      12.474  10.921  -9.258  1.00  0.00     0.401 P 
HETATM   29  O8  UNL     1      11.134  10.772  -8.616  1.00  0.00    -0.631 OA
BRANCH  28  30
HETATM   30  O9  UNL     1      12.485  10.614 -10.824  1.00  0.00    -0.307 OA
HETATM   31  H24 UNL     1      11.809  11.118 -11.339  1.00  0.00     0.222 HD
ENDBRANCH  28  30
BRANCH  28  32
HETATM   32  O10 UNL     1      13.605   9.912  -8.753  1.00  0.00    -0.294 OA
BRANCH  32  33
HETATM   33  C14 UNL     1      13.414   9.177  -7.573  1.00  0.00     0.215 C 
BRANCH  33  34
HETATM   34  C15 UNL     1      13.260   7.718  -7.999  1.00  0.00     0.180 C 
HETATM   35  C16 UNL     1      13.245   7.624  -9.519  1.00  0.00     0.197 C 
HETATM   36  C17 UNL     1      11.879   7.058  -9.856  1.00  0.00     0.199 C 
HETATM   37  C18 UNL     1      11.519   6.299  -8.577  1.00  0.00     0.262 C 
HETATM   38  O11 UNL     1      12.053   7.119  -7.514  1.00  0.00    -0.353 OA
BRANCH  35  39
HETATM   39  O13 UNL     1      14.299   6.755  -9.918  1.00  0.00    -0.286 OA
BRANCH  39  40
HETATM   40  P3  UNL     1      15.230   7.296 -11.099  1.00  0.00     0.391 P 
HETATM   41  O14 UNL     1      16.688   7.052 -10.878  1.00  0.00    -0.632 OA
BRANCH  40  42
HETATM   42  O15 UNL     1      14.740   8.816 -11.194  1.00  0.00    -0.307 OA
HETATM   43  H36 UNL     1      13.755   8.863 -11.232  1.00  0.00     0.222 HD
ENDBRANCH  40  42
BRANCH  40  44
HETATM   44  O16 UNL     1      14.554   6.618 -12.369  1.00  0.00    -0.307 OA
HETATM   45  H37 UNL     1      14.727   5.665 -12.424  1.00  0.00     0.222 HD
ENDBRANCH  40  44
ENDBRANCH  39  40
ENDBRANCH  35  39
BRANCH  36  46
HETATM   46  O12 UNL     1      11.939   6.306 -11.071  1.00  0.00    -0.388 OA
HETATM   47  H35 UNL     1      12.571   5.566 -10.908  1.00  0.00     0.210 HD
ENDBRANCH  36  46
BRANCH  37  48
HETATM   48  N3  UNL     1      10.088   6.168  -8.391  1.00  0.00    -0.297 N 
HETATM   49  C19 UNL     1       9.103   6.425  -9.316  1.00  0.00     0.188 A 
HETATM   50  N4  UNL     1       7.909   6.087  -8.879  1.00  0.00    -0.346 N 
HETATM   51  C20 UNL     1       8.132   5.582  -7.610  1.00  0.00     0.116 A 
HETATM   52  H4  UNL     1       7.018   6.176  -9.367  1.00  0.00     0.167 HD
HETATM   53  C21 UNL     1       7.278   5.020  -6.645  1.00  0.00     0.109 A 
HETATM   54  C23 UNL     1       9.472   5.663  -7.280  1.00  0.00     0.142 A 
HETATM   55  N5  UNL     1       7.809   4.618  -5.465  1.00  0.00    -0.341 N 
HETATM   56  C22 UNL     1       9.133   4.781  -5.272  1.00  0.00     0.183 A 
HETATM   57  H5  UNL     1       7.221   4.203  -4.741  1.00  0.00     0.167 HD
HETATM   58  N6  UNL     1      10.046   5.294  -6.121  1.00  0.00    -0.336 N 
HETATM   59  H6  UNL     1      11.040   5.391  -5.913  1.00  0.00     0.168 HD
BRANCH  53  60
HETATM   60  N7  UNL     1       5.914   4.864  -6.832  1.00  0.00    -0.287 NA
HETATM   61  H33 UNL     1       5.656   4.033  -7.359  1.00  0.00     0.125 HD
HETATM   62  H34 UNL     1       5.449   5.726  -7.085  1.00  0.00     0.125 HD
ENDBRANCH  53  60
ENDBRANCH  37  48
ENDBRANCH  33  34
ENDBRANCH  32  33
ENDBRANCH  28  32
ENDBRANCH  27  28
ENDBRANCH  23  27
ENDBRANCH  22  23
ENDBRANCH  21  22
ENDBRANCH  18  21
ENDBRANCH  17  18
BRANCH  17  63
HETATM   63  O17 UNL     1      15.895  11.257 -10.104  1.00  0.00    -0.385 OA
HETATM   64  H38 UNL     1      16.299  10.380 -10.216  1.00  0.00     0.210 HD
ENDBRANCH  17  63
ENDBRANCH  14  17
ENDBRANCH  12  13
ENDBRANCH  11  12
ENDBRANCH   8  11
ENDBRANCH   6   7
ENDBRANCH   5   6
ENDBRANCH   4   5
ENDBRANCH   2   4
TORSDOF 27
ENDMDL
MODEL 7
REMARK VINA RESULT:      -6.0      5.867     11.802
REMARK  27 active torsions:
REMARK  status: ('A' for Active; 'I' for Inactive)
REMARK    1  A    between atoms: C2_2  and  S1_4 
REMARK    2  A    between atoms: S1_4  and  C3_5 
REMARK    3  A    between atoms: C3_5  and  C4_6 
REMARK    4  A    between atoms: C4_6  and  N1_7 
REMARK       I    between atoms: N1_7  and  C5_8 
REMARK    5  A    between atoms: C5_8  and  C6_10 
REMARK    6  A    between atoms: C6_10  and  C7_11 
REMARK    7  A    between atoms: C7_11  and  N2_12 
REMARK       I    between atoms: N2_12  and  C8_13 
REMARK    8  A    between atoms: C8_13  and  C9_15 
REMARK    9  A    between atoms: C9_15  and  C10_16 
REMARK   10  A    between atoms: C9_15  and  O17_54 
REMARK   11  A    between atoms: C10_16  and  C13_19 
REMARK   12  A    between atoms: C13_19  and  O4_20 
REMARK   13  A    between atoms: O4_20  and  P1_21 
REMARK   14  A    between atoms: P1_21  and  O6_23 
REMARK   15  A    between atoms: P1_21  and  O7_24 
REMARK   16  A    between atoms: O7_24  and  P2_25 
REMARK   17  A    between atoms: P2_25  and  O9_27 
REMARK   18  A    between atoms: P2_25  and  O10_28 
REMARK   19  A    between atoms: O10_28  and  C14_29 
REMARK   20  A    between atoms: C14_29  and  C15_30 
REMARK   21  A    between atoms: C16_31  and  O13_49 
REMARK   22  A    between atoms: C17_32  and  O12_48 
REMARK   23  A    between atoms: C18_33  and  N3_35 
REMARK   24  A    between atoms: C21_40  and  N7_47 
REMARK   25  A    between atoms: O13_49  and  P3_50 
REMARK   26  A    between atoms: P3_50  and  O15_52 
REMARK   27  A    between atoms: P3_50  and  O16_53 
ROOT
HETATM    1  C1  UNL     1      13.350   1.430 -14.296  1.00  0.00     0.104 C 
HETATM    2  C2  UNL     1      14.538   0.548 -14.062  1.00  0.00     0.182 C 
HETATM    3  O1  UNL     1      14.459  -0.672 -13.940  1.00  0.00    -0.286 OA
ENDROOT
BRANCH   2   4
HETATM    4  S1  UNL     1      16.066   1.408 -13.934  1.00  0.00    -0.091 SA
BRANCH   4   5
HETATM    5  C3  UNL     1      17.191   0.020 -13.574  1.00  0.00     0.102 C 
BRANCH   5   6
HETATM    6  C4  UNL     1      18.476   0.490 -12.890  1.00  0.00     0.133 C 
BRANCH   6   7
HETATM    7  N1  UNL     1      19.276   1.353 -13.735  1.00  0.00    -0.360 N 
HETATM    8  C5  UNL     1      20.134   2.289 -13.207  1.00  0.00     0.219 C 
HETATM    9  O2  UNL     1      20.215   2.507 -12.003  1.00  0.00    -0.274 OA
HETATM   10  H8  UNL     1      19.204   1.254 -14.738  1.00  0.00     0.162 HD
BRANCH   8  11
HETATM   11  C6  UNL     1      20.917   3.046 -14.259  1.00  0.00     0.122 C 
BRANCH  11  12
HETATM   12  C7  UNL     1      20.068   4.120 -14.938  1.00  0.00     0.132 C 
BRANCH  12  13
HETATM   13  N2  UNL     1      19.406   4.999 -13.997  1.00  0.00    -0.358 N 
HETATM   14  C8  UNL     1      18.195   5.582 -14.322  1.00  0.00     0.247 C 
HETATM   15  O3  UNL     1      17.701   5.479 -15.438  1.00  0.00    -0.271 OA
HETATM   16  H13 UNL     1      19.576   4.797 -13.014  1.00  0.00     0.162 HD
BRANCH  14  17
HETATM   17  C9  UNL     1      17.518   6.344 -13.174  1.00  0.00     0.219 C 
BRANCH  17  18
HETATM   18  C10 UNL     1      16.490   5.509 -12.365  1.00  0.00     0.009 C 
HETATM   19  C11 UNL     1      15.253   5.150 -13.200  1.00  0.00     0.020 C 
HETATM   20  C12 UNL     1      17.111   4.196 -11.847  1.00  0.00     0.020 C 
BRANCH  18  21
HETATM   21  C13 UNL     1      16.068   6.401 -11.162  1.00  0.00     0.192 C 
BRANCH  21  22
HETATM   22  O4  UNL     1      16.542   5.899  -9.929  1.00  0.00    -0.296 OA
BRANCH  22  23
HETATM   23  P1  UNL     1      17.453   6.762  -8.930  1.00  0.00     0.401 P 
HETATM   24  O5  UNL     1      18.384   7.711  -9.617  1.00  0.00    -0.631 OA
BRANCH  23  25
HETATM   25  O6  UNL     1      18.193   5.717  -7.955  1.00  0.00    -0.307 OA
HETATM   26  H23 UNL     1      18.200   4.823  -8.321  1.00  0.00     0.222 HD
ENDBRANCH  23  25
BRANCH  23  27
HETATM   27  O7  UNL     1      16.426   7.447  -7.926  1.00  0.00    -0.195 OA
BRANCH  27  28
HETATM   28  P2  UNL     1      16.339   9.038  -7.881  1.00  0.00     0.401 P 
HETATM   29  O8  UNL     1      17.484   9.760  -7.249  1.00  0.00    -0.631 OA
BRANCH  28  30
HETATM   30  O9  UNL     1      16.081   9.434  -9.406  1.00  0.00    -0.307 OA
HETATM   31  H24 UNL     1      16.009  10.407  -9.563  1.00  0.00     0.222 HD
ENDBRANCH  28  30
BRANCH  28  32
HETATM   32  O10 UNL     1      14.899   9.327  -7.254  1.00  0.00    -0.294 OA
BRANCH  32  33
HETATM   33  C14 UNL     1      13.938   8.306  -7.201  1.00  0.00     0.215 C 
BRANCH  33  34
HETATM   34  C15 UNL     1      12.643   8.911  -7.741  1.00  0.00     0.180 C 
HETATM   35  C16 UNL     1      12.507   8.598  -9.225  1.00  0.00     0.197 C 
HETATM   36  C17 UNL     1      12.512   9.953  -9.906  1.00  0.00     0.199 C 
HETATM   37  C18 UNL     1      12.002  10.875  -8.795  1.00  0.00     0.262 C 
HETATM   38  O11 UNL     1      12.585  10.334  -7.589  1.00  0.00    -0.353 OA
BRANCH  35  39
HETATM   39  O13 UNL     1      11.279   7.904  -9.419  1.00  0.00    -0.286 OA
BRANCH  39  40
HETATM   40  P3  UNL     1      11.411   6.341  -9.727  1.00  0.00     0.391 P 
HETATM   41  O14 UNL     1      12.108   5.572  -8.652  1.00  0.00    -0.632 OA
BRANCH  40  42
HETATM   42  O15 UNL     1      12.094   6.378 -11.174  1.00  0.00    -0.307 OA
HETATM   43  H36 UNL     1      11.954   5.524 -11.647  1.00  0.00     0.222 HD
ENDBRANCH  40  42
BRANCH  40  44
HETATM   44  O16 UNL     1       9.902   5.955 -10.049  1.00  0.00    -0.307 OA
HETATM   45  H37 UNL     1       9.593   5.190  -9.538  1.00  0.00     0.222 HD
ENDBRANCH  40  44
ENDBRANCH  39  40
ENDBRANCH  35  39
BRANCH  36  46
HETATM   46  O12 UNL     1      11.753   9.902 -11.117  1.00  0.00    -0.388 OA
HETATM   47  H35 UNL     1      11.210   9.080 -11.070  1.00  0.00     0.210 HD
ENDBRANCH  36  46
BRANCH  37  48
HETATM   48  N3  UNL     1      12.452  12.243  -8.958  1.00  0.00    -0.297 N 
HETATM   49  C19 UNL     1      11.710  13.315  -9.396  1.00  0.00     0.188 A 
HETATM   50  N4  UNL     1      12.372  14.448  -9.310  1.00  0.00    -0.346 N 
HETATM   51  C20 UNL     1      13.603  14.094  -8.786  1.00  0.00     0.116 A 
HETATM   52  H4  UNL     1      12.051  15.380  -9.572  1.00  0.00     0.167 HD
HETATM   53  C21 UNL     1      14.734  14.843  -8.420  1.00  0.00     0.109 A 
HETATM   54  C23 UNL     1      13.680  12.725  -8.600  1.00  0.00     0.142 A 
HETATM   55  N5  UNL     1      15.817  14.189  -7.933  1.00  0.00    -0.341 N 
HETATM   56  C22 UNL     1      15.757  12.846  -7.828  1.00  0.00     0.183 A 
HETATM   57  H5  UNL     1      16.654  14.699  -7.653  1.00  0.00     0.167 HD
HETATM   58  N6  UNL     1      14.732  12.027  -8.137  1.00  0.00    -0.336 N 
HETATM   59  H6  UNL     1      14.751  11.012  -8.034  1.00  0.00     0.168 HD
BRANCH  53  60
HETATM   60  N7  UNL     1      14.806  16.222  -8.539  1.00  0.00    -0.287 NA
HETATM   61  H33 UNL     1      15.341  16.546  -9.342  1.00  0.00     0.125 HD
HETATM   62  H34 UNL     1      14.982  16.686  -7.658  1.00  0.00     0.125 HD
ENDBRANCH  53  60
ENDBRANCH  37  48
ENDBRANCH  33  34
ENDBRANCH  32  33
ENDBRANCH  28  32
ENDBRANCH  27  28
ENDBRANCH  23  27
ENDBRANCH  22  23
ENDBRANCH  21  22
ENDBRANCH  18  21
ENDBRANCH  17  18
BRANCH  17  63
HETATM   63  O17 UNL     1      18.505   6.850 -12.268  1.00  0.00    -0.385 OA
HETATM   64  H38 UNL     1      18.167   7.676 -11.883  1.00  0.00     0.210 HD
ENDBRANCH  17  63
ENDBRANCH  14  17
ENDBRANCH  12  13
ENDBRANCH  11  12
ENDBRANCH   8  11
ENDBRANCH   6   7
ENDBRANCH   5   6
ENDBRANCH   4   5
ENDBRANCH   2   4
TORSDOF 27
ENDMDL
MODEL 8
REMARK VINA RESULT:      -6.0      6.947      9.759
REMARK  27 active torsions:
REMARK  status: ('A' for Active; 'I' for Inactive)
REMARK    1  A    between atoms: C2_2  and  S1_4 
REMARK    2  A    between atoms: S1_4  and  C3_5 
REMARK    3  A    between atoms: C3_5  and  C4_6 
REMARK    4  A    between atoms: C4_6  and  N1_7 
REMARK       I    between atoms: N1_7  and  C5_8 
REMARK    5  A    between atoms: C5_8  and  C6_10 
REMARK    6  A    between atoms: C6_10  and  C7_11 
REMARK    7  A    between atoms: C7_11  and  N2_12 
REMARK       I    between atoms: N2_12  and  C8_13 
REMARK    8  A    between atoms: C8_13  and  C9_15 
REMARK    9  A    between atoms: C9_15  and  C10_16 
REMARK   10  A    between atoms: C9_15  and  O17_54 
REMARK   11  A    between atoms: C10_16  and  C13_19 
REMARK   12  A    between atoms: C13_19  and  O4_20 
REMARK   13  A    between atoms: O4_20  and  P1_21 
REMARK   14  A    between atoms: P1_21  and  O6_23 
REMARK   15  A    between atoms: P1_21  and  O7_24 
REMARK   16  A    between atoms: O7_24  and  P2_25 
REMARK   17  A    between atoms: P2_25  and  O9_27 
REMARK   18  A    between atoms: P2_25  and  O10_28 
REMARK   19  A    between atoms: O10_28  and  C14_29 
REMARK   20  A    between atoms: C14_29  and  C15_30 
REMARK   21  A    between atoms: C16_31  and  O13_49 
REMARK   22  A    between atoms: C17_32  and  O12_48 
REMARK   23  A    between atoms: C18_33  and  N3_35 
REMARK   24  A    between atoms: C21_40  and  N7_47 
REMARK   25  A    between atoms: O13_49  and  P3_50 
REMARK   26  A    between atoms: P3_50  and  O15_52 
REMARK   27  A    between atoms: P3_50  and  O16_53 
ROOT
HETATM    1  C1  UNL     1       3.869   8.756 -13.740  1.00  0.00     0.104 C 
HETATM    2  C2  UNL     1       3.970   8.563 -12.257  1.00  0.00     0.182 C 
HETATM    3  O1  UNL     1       4.719   9.223 -11.541  1.00  0.00    -0.286 OA
ENDROOT
BRANCH   2   4
HETATM    4  S1  UNL     1       2.953   7.277 -11.622  1.00  0.00    -0.091 SA
BRANCH   4   5
HETATM    5  C3  UNL     1       2.182   6.684 -13.163  1.00  0.00     0.102 C 
BRANCH   5   6
HETATM    6  C4  UNL     1       0.656   6.793 -13.116  1.00  0.00     0.133 C 
BRANCH   6   7
HETATM    7  N1  UNL     1       0.192   8.163 -13.185  1.00  0.00    -0.360 N 
HETATM    8  C5  UNL     1      -0.240   8.722 -14.366  1.00  0.00     0.219 C 
HETATM    9  O2  UNL     1      -0.183   8.129 -15.437  1.00  0.00    -0.274 OA
HETATM   10  H8  UNL     1       0.180   8.716 -12.339  1.00  0.00     0.162 HD
BRANCH   8  11
HETATM   11  C6  UNL     1      -0.735  10.144 -14.210  1.00  0.00     0.122 C 
BRANCH  11  12
HETATM   12  C7  UNL     1      -0.034  11.101 -15.173  1.00  0.00     0.132 C 
BRANCH  12  13
HETATM   13  N2  UNL     1       1.322  11.414 -14.775  1.00  0.00    -0.358 N 
HETATM   14  C8  UNL     1       1.635  12.673 -14.296  1.00  0.00     0.247 C 
HETATM   15  O3  UNL     1       0.825  13.592 -14.300  1.00  0.00    -0.271 OA
HETATM   16  H13 UNL     1       1.865  10.632 -14.417  1.00  0.00     0.162 HD
BRANCH  14  17
HETATM   17  C9  UNL     1       3.061  12.817 -13.746  1.00  0.00     0.219 C 
BRANCH  17  18
HETATM   18  C10 UNL     1       4.129  13.178 -14.812  1.00  0.00     0.009 C 
HETATM   19  C11 UNL     1       4.720  11.929 -15.484  1.00  0.00     0.020 C 
HETATM   20  C12 UNL     1       3.541  14.078 -15.918  1.00  0.00     0.020 C 
BRANCH  18  21
HETATM   21  C13 UNL     1       5.250  13.943 -14.052  1.00  0.00     0.192 C 
BRANCH  21  22
HETATM   22  O4  UNL     1       6.155  13.070 -13.407  1.00  0.00    -0.296 OA
BRANCH  22  23
HETATM   23  P1  UNL     1       6.453  13.132 -11.833  1.00  0.00     0.401 P 
HETATM   24  O5  UNL     1       5.302  12.711 -10.975  1.00  0.00    -0.631 OA
BRANCH  23  25
HETATM   25  O6  UNL     1       6.987  14.618 -11.519  1.00  0.00    -0.307 OA
HETATM   26  H23 UNL     1       7.427  15.013 -12.282  1.00  0.00     0.222 HD
ENDBRANCH  23  25
BRANCH  23  27
HETATM   27  O7  UNL     1       7.780  12.278 -11.631  1.00  0.00    -0.195 OA
BRANCH  27  28
HETATM   28  P2  UNL     1       8.279  11.970 -10.150  1.00  0.00     0.401 P 
HETATM   29  O8  UNL     1       8.401  13.133  -9.221  1.00  0.00    -0.631 OA
BRANCH  28  30
HETATM   30  O9  UNL     1       7.268  10.839  -9.651  1.00  0.00    -0.307 OA
HETATM   31  H24 UNL     1       7.340  10.631  -8.687  1.00  0.00     0.222 HD
ENDBRANCH  28  30
BRANCH  28  32
HETATM   32  O10 UNL     1       9.605  11.105 -10.363  1.00  0.00    -0.294 OA
BRANCH  32  33
HETATM   33  C14 UNL     1      10.319  10.629  -9.251  1.00  0.00     0.215 C 
BRANCH  33  34
HETATM   34  C15 UNL     1      11.279   9.567  -9.784  1.00  0.00     0.180 C 
HETATM   35  C16 UNL     1      11.211   8.325  -8.905  1.00  0.00     0.197 C 
HETATM   36  C17 UNL     1      12.607   8.185  -8.328  1.00  0.00     0.199 C 
HETATM   37  C18 UNL     1      13.462   8.902  -9.376  1.00  0.00     0.262 C 
HETATM   38  O11 UNL     1      12.641  10.008  -9.811  1.00  0.00    -0.353 OA
BRANCH  35  39
HETATM   39  O13 UNL     1      10.858   7.219  -9.730  1.00  0.00    -0.286 OA
BRANCH  39  40
HETATM   40  P3  UNL     1       9.633   6.334  -9.211  1.00  0.00     0.391 P 
HETATM   41  O14 UNL     1       9.857   5.726  -7.864  1.00  0.00    -0.632 OA
BRANCH  40  42
HETATM   42  O15 UNL     1       9.435   5.341 -10.449  1.00  0.00    -0.307 OA
HETATM   43  H36 UNL     1       8.506   5.377 -10.780  1.00  0.00     0.222 HD
ENDBRANCH  40  42
BRANCH  40  44
HETATM   44  O16 UNL     1       8.421   7.352  -9.366  1.00  0.00    -0.307 OA
HETATM   45  H37 UNL     1       7.696   6.995  -9.904  1.00  0.00     0.222 HD
ENDBRANCH  40  44
ENDBRANCH  39  40
ENDBRANCH  35  39
BRANCH  36  46
HETATM   46  O12 UNL     1      12.901   6.810  -8.069  1.00  0.00    -0.388 OA
HETATM   47  H35 UNL     1      13.046   6.386  -8.948  1.00  0.00     0.210 HD
ENDBRANCH  36  46
BRANCH  37  48
HETATM   48  N3  UNL     1      14.695   9.426  -8.824  1.00  0.00    -0.297 N 
HETATM   49  C19 UNL     1      14.947  10.720  -8.431  1.00  0.00     0.188 A 
HETATM   50  N4  UNL     1      16.121  10.846  -7.853  1.00  0.00    -0.346 N 
HETATM   51  C20 UNL     1      16.656   9.570  -7.867  1.00  0.00     0.116 A 
HETATM   52  H4  UNL     1      16.544  11.695  -7.478  1.00  0.00     0.167 HD
HETATM   53  C21 UNL     1      17.856   9.035  -7.369  1.00  0.00     0.109 A 
HETATM   54  C23 UNL     1      15.800   8.688  -8.501  1.00  0.00     0.142 A 
HETATM   55  N5  UNL     1      18.104   7.715  -7.553  1.00  0.00    -0.341 N 
HETATM   56  C22 UNL     1      17.187   6.979  -8.212  1.00  0.00     0.183 A 
HETATM   57  H5  UNL     1      18.962   7.290  -7.202  1.00  0.00     0.167 HD
HETATM   58  N6  UNL     1      16.004   7.378  -8.724  1.00  0.00    -0.336 N 
HETATM   59  H6  UNL     1      15.351   6.766  -9.215  1.00  0.00     0.168 HD
BRANCH  53  60
HETATM   60  N7  UNL     1      18.810   9.789  -6.704  1.00  0.00    -0.287 NA
HETATM   61  H33 UNL     1      18.480  10.213  -5.839  1.00  0.00     0.125 HD
HETATM   62  H34 UNL     1      19.348  10.380  -7.323  1.00  0.00     0.125 HD
ENDBRANCH  53  60
ENDBRANCH  37  48
ENDBRANCH  33  34
ENDBRANCH  32  33
ENDBRANCH  28  32
ENDBRANCH  27  28
ENDBRANCH  23  27
ENDBRANCH  22  23
ENDBRANCH  21  22
ENDBRANCH  18  21
ENDBRANCH  17  18
BRANCH  17  63
HETATM   63  O17 UNL     1       3.094  13.811 -12.716  1.00  0.00    -0.385 OA
HETATM   64  H38 UNL     1       3.091  14.685 -13.140  1.00  0.00     0.210 HD
ENDBRANCH  17  63
ENDBRANCH  14  17
ENDBRANCH  12  13
ENDBRANCH  11  12
ENDBRANCH   8  11
ENDBRANCH   6   7
ENDBRANCH   5   6
ENDBRANCH   4   5
ENDBRANCH   2   4
TORSDOF 27
ENDMDL
MODEL 9
REMARK VINA RESULT:      -6.0      5.769      9.332
REMARK  27 active torsions:
REMARK  status: ('A' for Active; 'I' for Inactive)
REMARK    1  A    between atoms: C2_2  and  S1_4 
REMARK    2  A    between atoms: S1_4  and  C3_5 
REMARK    3  A    between atoms: C3_5  and  C4_6 
REMARK    4  A    between atoms: C4_6  and  N1_7 
REMARK       I    between atoms: N1_7  and  C5_8 
REMARK    5  A    between atoms: C5_8  and  C6_10 
REMARK    6  A    between atoms: C6_10  and  C7_11 
REMARK    7  A    between atoms: C7_11  and  N2_12 
REMARK       I    between atoms: N2_12  and  C8_13 
REMARK    8  A    between atoms: C8_13  and  C9_15 
REMARK    9  A    between atoms: C9_15  and  C10_16 
REMARK   10  A    between atoms: C9_15  and  O17_54 
REMARK   11  A    between atoms: C10_16  and  C13_19 
REMARK   12  A    between atoms: C13_19  and  O4_20 
REMARK   13  A    between atoms: O4_20  and  P1_21 
REMARK   14  A    between atoms: P1_21  and  O6_23 
REMARK   15  A    between atoms: P1_21  and  O7_24 
REMARK   16  A    between atoms: O7_24  and  P2_25 
REMARK   17  A    between atoms: P2_25  and  O9_27 
REMARK   18  A    between atoms: P2_25  and  O10_28 
REMARK   19  A    between atoms: O10_28  and  C14_29 
REMARK   20  A    between atoms: C14_29  and  C15_30 
REMARK   21  A    between atoms: C16_31  and  O13_49 
REMARK   22  A    between atoms: C17_32  and  O12_48 
REMARK   23  A    between atoms: C18_33  and  N3_35 
REMARK   24  A    between atoms: C21_40  and  N7_47 
REMARK   25  A    between atoms: O13_49  and  P3_50 
REMARK   26  A    between atoms: P3_50  and  O15_52 
REMARK   27  A    between atoms: P3_50  and  O16_53 
ROOT
HETATM    1  C1  UNL     1       6.237   6.590  -7.165  1.00  0.00     0.104 C 
HETATM    2  C2  UNL     1       6.643   5.332  -6.460  1.00  0.00     0.182 C 
HETATM    3  O1  UNL     1       5.840   4.495  -6.057  1.00  0.00    -0.286 OA
ENDROOT
BRANCH   2   4
HETATM    4  S1  UNL     1       8.377   5.165  -6.217  1.00  0.00    -0.091 SA
BRANCH   4   5
HETATM    5  C3  UNL     1       8.970   5.439  -7.917  1.00  0.00     0.102 C 
BRANCH   5   6
HETATM    6  C4  UNL     1      10.341   4.802  -8.152  1.00  0.00     0.133 C 
BRANCH   6   7
HETATM    7  N1  UNL     1      11.422   5.766  -8.106  1.00  0.00    -0.360 N 
HETATM    8  C5  UNL     1      11.805   6.477  -9.219  1.00  0.00     0.219 C 
HETATM    9  O2  UNL     1      11.316   6.285 -10.326  1.00  0.00    -0.274 OA
HETATM   10  H8  UNL     1      11.898   5.921  -7.227  1.00  0.00     0.162 HD
BRANCH   8  11
HETATM   11  C6  UNL     1      12.913   7.471  -8.943  1.00  0.00     0.122 C 
BRANCH  11  12
HETATM   12  C7  UNL     1      13.857   7.619 -10.136  1.00  0.00     0.132 C 
BRANCH  12  13
HETATM   13  N2  UNL     1      14.374   6.353 -10.611  1.00  0.00    -0.358 N 
HETATM   14  C8  UNL     1      15.697   6.242 -10.997  1.00  0.00     0.247 C 
HETATM   15  O3  UNL     1      16.439   7.214 -11.067  1.00  0.00    -0.271 OA
HETATM   16  H13 UNL     1      13.933   5.524 -10.218  1.00  0.00     0.162 HD
BRANCH  14  17
HETATM   17  C9  UNL     1      16.159   4.811 -11.310  1.00  0.00     0.219 C 
BRANCH  17  18
HETATM   18  C10 UNL     1      16.259   4.484 -12.823  1.00  0.00     0.009 C 
HETATM   19  C11 UNL     1      16.836   3.083 -13.075  1.00  0.00     0.020 C 
HETATM   20  C12 UNL     1      14.881   4.561 -13.510  1.00  0.00     0.020 C 
BRANCH  18  21
HETATM   21  C13 UNL     1      17.209   5.557 -13.430  1.00  0.00     0.192 C 
BRANCH  21  22
HETATM   22  O4  UNL     1      18.572   5.227 -13.260  1.00  0.00    -0.296 OA
BRANCH  22  23
HETATM   23  P1  UNL     1      19.724   6.333 -13.117  1.00  0.00     0.401 P 
HETATM   24  O5  UNL     1      19.661   7.418 -14.146  1.00  0.00    -0.631 OA
BRANCH  23  25
HETATM   25  O6  UNL     1      21.127   5.543 -13.092  1.00  0.00    -0.307 OA
HETATM   26  H23 UNL     1      21.848   6.074 -13.454  1.00  0.00     0.222 HD
ENDBRANCH  23  25
BRANCH  23  27
HETATM   27  O7  UNL     1      19.627   6.837 -11.612  1.00  0.00    -0.195 OA
BRANCH  27  28
HETATM   28  P2  UNL     1      20.442   6.060 -10.485  1.00  0.00     0.401 P 
HETATM   29  O8  UNL     1      20.480   4.570 -10.582  1.00  0.00    -0.631 OA
BRANCH  28  30
HETATM   30  O9  UNL     1      21.881   6.752 -10.532  1.00  0.00    -0.307 OA
HETATM   31  H24 UNL     1      22.472   6.504  -9.780  1.00  0.00     0.222 HD
ENDBRANCH  28  30
BRANCH  28  32
HETATM   32  O10 UNL     1      19.874   6.656  -9.117  1.00  0.00    -0.294 OA
BRANCH  32  33
HETATM   33  C14 UNL     1      20.134   7.992  -8.771  1.00  0.00     0.215 C 
BRANCH  33  34
HETATM   34  C15 UNL     1      19.161   8.337  -7.645  1.00  0.00     0.180 C 
HETATM   35  C16 UNL     1      18.246   7.151  -7.372  1.00  0.00     0.197 C 
HETATM   36  C17 UNL     1      16.852   7.661  -7.684  1.00  0.00     0.199 C 
HETATM   37  C18 UNL     1      17.004   9.169  -7.467  1.00  0.00     0.262 C 
HETATM   38  O11 UNL     1      18.333   9.466  -7.948  1.00  0.00    -0.353 OA
BRANCH  35  39
HETATM   39  O13 UNL     1      18.390   6.788  -6.003  1.00  0.00    -0.286 OA
BRANCH  39  40
HETATM   40  P3  UNL     1      19.248   5.468  -5.727  1.00  0.00     0.391 P 
HETATM   41  O14 UNL     1      18.848   4.737  -4.486  1.00  0.00    -0.632 OA
BRANCH  40  42
HETATM   42  O15 UNL     1      20.734   6.057  -5.792  1.00  0.00    -0.307 OA
HETATM   43  H36 UNL     1      20.776   6.829  -6.405  1.00  0.00     0.222 HD
ENDBRANCH  40  42
BRANCH  40  44
HETATM   44  O16 UNL     1      19.102   4.701  -7.113  1.00  0.00    -0.307 OA
HETATM   45  H37 UNL     1      19.139   5.297  -7.878  1.00  0.00     0.222 HD
ENDBRANCH  40  44
ENDBRANCH  39  40
ENDBRANCH  35  39
BRANCH  36  46
HETATM   46  O12 UNL     1      15.883   6.977  -6.885  1.00  0.00    -0.388 OA
HETATM   47  H35 UNL     1      16.130   7.145  -5.944  1.00  0.00     0.210 HD
ENDBRANCH  36  46
BRANCH  37  48
HETATM   48  N3  UNL     1      16.047   9.941  -8.235  1.00  0.00    -0.297 N 
HETATM   49  C19 UNL     1      14.846  10.448  -7.797  1.00  0.00     0.188 A 
HETATM   50  N4  UNL     1      14.268  11.211  -8.699  1.00  0.00    -0.346 N 
HETATM   51  C20 UNL     1      15.141  11.202  -9.773  1.00  0.00     0.116 A 
HETATM   52  H4  UNL     1      13.377  11.701  -8.624  1.00  0.00     0.167 HD
HETATM   53  C21 UNL     1      15.122  11.850 -11.020  1.00  0.00     0.109 A 
HETATM   54  C23 UNL     1      16.227  10.388  -9.514  1.00  0.00     0.142 A 
HETATM   55  N5  UNL     1      16.143  11.626 -11.883  1.00  0.00    -0.341 N 
HETATM   56  C22 UNL     1      17.127  10.786 -11.504  1.00  0.00     0.183 A 
HETATM   57  H5  UNL     1      16.167  12.081 -12.796  1.00  0.00     0.167 HD
HETATM   58  N6  UNL     1      17.255  10.119 -10.338  1.00  0.00    -0.336 N 
HETATM   59  H6  UNL     1      18.029   9.494 -10.112  1.00  0.00     0.168 HD
BRANCH  53  60
HETATM   60  N7  UNL     1      14.107  12.704 -11.421  1.00  0.00    -0.287 NA
HETATM   61  H33 UNL     1      13.359  12.249 -11.942  1.00  0.00     0.125 HD
HETATM   62  H34 UNL     1      14.450  13.581 -11.789  1.00  0.00     0.125 HD
ENDBRANCH  53  60
ENDBRANCH  37  48
ENDBRANCH  33  34
ENDBRANCH  32  33
ENDBRANCH  28  32
ENDBRANCH  27  28
ENDBRANCH  23  27
ENDBRANCH  22  23
ENDBRANCH  21  22
ENDBRANCH  18  21
ENDBRANCH  17  18
BRANCH  17  63
HETATM   63  O17 UNL     1      17.433   4.561 -10.706  1.00  0.00    -0.385 OA
HETATM   64  H38 UNL     1      17.453   5.015  -9.847  1.00  0.00     0.210 HD
ENDBRANCH  17  63
ENDBRANCH  14  17
ENDBRANCH  12  13
ENDBRANCH  11  12
ENDBRANCH   8  11
ENDBRANCH   6   7
ENDBRANCH   5   6
ENDBRANCH   4   5
ENDBRANCH   2   4
TORSDOF 27
ENDMDL
MODEL 10
REMARK VINA RESULT:      -5.8      5.738     10.949
REMARK  27 active torsions:
REMARK  status: ('A' for Active; 'I' for Inactive)
REMARK    1  A    between atoms: C2_2  and  S1_4 
REMARK    2  A    between atoms: S1_4  and  C3_5 
REMARK    3  A    between atoms: C3_5  and  C4_6 
REMARK    4  A    between atoms: C4_6  and  N1_7 
REMARK       I    between atoms: N1_7  and  C5_8 
REMARK    5  A    between atoms: C5_8  and  C6_10 
REMARK    6  A    between atoms: C6_10  and  C7_11 
REMARK    7  A    between atoms: C7_11  and  N2_12 
REMARK       I    between atoms: N2_12  and  C8_13 
REMARK    8  A    between atoms: C8_13  and  C9_15 
REMARK    9  A    between atoms: C9_15  and  C10_16 
REMARK   10  A    between atoms: C9_15  and  O17_54 
REMARK   11  A    between atoms: C10_16  and  C13_19 
REMARK   12  A    between atoms: C13_19  and  O4_20 
REMARK   13  A    between atoms: O4_20  and  P1_21 
REMARK   14  A    between atoms: P1_21  and  O6_23 
REMARK   15  A    between atoms: P1_21  and  O7_24 
REMARK   16  A    between atoms: O7_24  and  P2_25 
REMARK   17  A    between atoms: P2_25  and  O9_27 
REMARK   18  A    between atoms: P2_25  and  O10_28 
REMARK   19  A    between atoms: O10_28  and  C14_29 
REMARK   20  A    between atoms: C14_29  and  C15_30 
REMARK   21  A    between atoms: C16_31  and  O13_49 
REMARK   22  A    between atoms: C17_32  and  O12_48 
REMARK   23  A    between atoms: C18_33  and  N3_35 
REMARK   24  A    between atoms: C21_40  and  N7_47 
REMARK   25  A    between atoms: O13_49  and  P3_50 
REMARK   26  A    between atoms: P3_50  and  O15_52 
REMARK   27  A    between atoms: P3_50  and  O16_53 
ROOT
HETATM    1  C1  UNL     1      10.496   2.941 -14.529  1.00  0.00     0.104 C 
HETATM    2  C2  UNL     1      11.541   1.977 -15.001  1.00  0.00     0.182 C 
HETATM    3  O1  UNL     1      11.310   1.066 -15.792  1.00  0.00    -0.286 OA
ENDROOT
BRANCH   2   4
HETATM    4  S1  UNL     1      13.133   2.231 -14.298  1.00  0.00    -0.091 SA
BRANCH   4   5
HETATM    5  C3  UNL     1      13.798   0.537 -14.383  1.00  0.00     0.102 C 
BRANCH   5   6
HETATM    6  C4  UNL     1      15.079   0.386 -13.559  1.00  0.00     0.133 C 
BRANCH   6   7
HETATM    7  N1  UNL     1      16.243   0.923 -14.232  1.00  0.00    -0.360 N 
HETATM    8  C5  UNL     1      17.521   0.622 -13.820  1.00  0.00     0.219 C 
HETATM    9  O2  UNL     1      17.751  -0.047 -12.819  1.00  0.00    -0.274 OA
HETATM   10  H8  UNL     1      16.108   1.530 -15.030  1.00  0.00     0.162 HD
BRANCH   8  11
HETATM   11  C6  UNL     1      18.593   1.240 -14.691  1.00  0.00     0.122 C 
BRANCH  11  12
HETATM   12  C7  UNL     1      18.915   2.673 -14.271  1.00  0.00     0.132 C 
BRANCH  12  13
HETATM   13  N2  UNL     1      18.865   2.868 -12.837  1.00  0.00    -0.358 N 
HETATM   14  C8  UNL     1      20.029   2.846 -12.090  1.00  0.00     0.247 C 
HETATM   15  O3  UNL     1      21.111   2.548 -12.579  1.00  0.00    -0.271 OA
HETATM   16  H13 UNL     1      18.108   3.460 -12.501  1.00  0.00     0.162 HD
BRANCH  14  17
HETATM   17  C9  UNL     1      19.856   3.242 -10.616  1.00  0.00     0.219 C 
BRANCH  17  18
HETATM   18  C10 UNL     1      20.166   4.730 -10.310  1.00  0.00     0.009 C 
HETATM   19  C11 UNL     1      21.660   4.967 -10.042  1.00  0.00     0.020 C 
HETATM   20  C12 UNL     1      19.740   5.648 -11.474  1.00  0.00     0.020 C 
BRANCH  18  21
HETATM   21  C13 UNL     1      19.345   5.084  -9.036  1.00  0.00     0.192 C 
BRANCH  21  22
HETATM   22  O4  UNL     1      18.138   5.751  -9.342  1.00  0.00    -0.296 OA
BRANCH  22  23
HETATM   23  P1  UNL     1      17.559   6.954  -8.455  1.00  0.00     0.401 P 
HETATM   24  O5  UNL     1      18.041   8.308  -8.870  1.00  0.00    -0.631 OA
BRANCH  23  25
HETATM   25  O6  UNL     1      17.877   6.594  -6.918  1.00  0.00    -0.307 OA
HETATM   26  H23 UNL     1      17.749   7.353  -6.335  1.00  0.00     0.222 HD
ENDBRANCH  23  25
BRANCH  23  27
HETATM   27  O7  UNL     1      15.979   6.771  -8.494  1.00  0.00    -0.195 OA
BRANCH  27  28
HETATM   28  P2  UNL     1      15.077   7.650  -7.519  1.00  0.00     0.401 P 
HETATM   29  O8  UNL     1      15.233   7.411  -6.052  1.00  0.00    -0.631 OA
BRANCH  28  30
HETATM   30  O9  UNL     1      15.399   9.147  -7.972  1.00  0.00    -0.307 OA
HETATM   31  H24 UNL     1      15.517   9.779  -7.221  1.00  0.00     0.222 HD
ENDBRANCH  28  30
BRANCH  28  32
HETATM   32  O10 UNL     1      13.599   7.479  -8.100  1.00  0.00    -0.294 OA
BRANCH  32  33
HETATM   33  C14 UNL     1      13.237   6.294  -8.759  1.00  0.00     0.215 C 
BRANCH  33  34
HETATM   34  C15 UNL     1      12.115   6.669  -9.725  1.00  0.00     0.180 C 
HETATM   35  C16 UNL     1      11.898   8.177  -9.703  1.00  0.00     0.197 C 
HETATM   36  C17 UNL     1      10.476   8.353  -9.205  1.00  0.00     0.199 C 
HETATM   37  C18 UNL     1       9.827   7.026  -9.605  1.00  0.00     0.262 C 
HETATM   38  O11 UNL     1      10.867   6.045  -9.403  1.00  0.00    -0.353 OA
BRANCH  35  39
HETATM   39  O13 UNL     1      12.067   8.667 -11.029  1.00  0.00    -0.286 OA
BRANCH  39  40
HETATM   40  P3  UNL     1      13.196   9.784 -11.212  1.00  0.00     0.391 P 
HETATM   41  O14 UNL     1      14.568   9.320 -10.846  1.00  0.00    -0.632 OA
BRANCH  40  42
HETATM   42  O15 UNL     1      12.569  10.985 -10.363  1.00  0.00    -0.307 OA
HETATM   43  H36 UNL     1      12.487  11.798 -10.916  1.00  0.00     0.222 HD
ENDBRANCH  40  42
BRANCH  40  44
HETATM   44  O16 UNL     1      12.949  10.237 -12.716  1.00  0.00    -0.307 OA
HETATM   45  H37 UNL     1      12.247   9.729 -13.152  1.00  0.00     0.222 HD
ENDBRANCH  40  44
ENDBRANCH  39  40
ENDBRANCH  35  39
BRANCH  36  46
HETATM   46  O12 UNL     1       9.908   9.551  -9.741  1.00  0.00    -0.388 OA
HETATM   47  H35 UNL     1       9.543  10.053  -8.974  1.00  0.00     0.210 HD
ENDBRANCH  36  46
BRANCH  37  48
HETATM   48  N3  UNL     1       8.695   6.685  -8.767  1.00  0.00    -0.297 N 
HETATM   49  C19 UNL     1       7.372   6.989  -8.993  1.00  0.00     0.188 A 
HETATM   50  N4  UNL     1       6.574   6.428  -8.111  1.00  0.00    -0.346 N 
HETATM   51  C20 UNL     1       7.421   5.722  -7.274  1.00  0.00     0.116 A 
HETATM   52  H4  UNL     1       5.558   6.498  -8.055  1.00  0.00     0.167 HD
HETATM   53  C21 UNL     1       7.188   4.885  -6.169  1.00  0.00     0.109 A 
HETATM   54  C23 UNL     1       8.740   5.905  -7.646  1.00  0.00     0.142 A 
HETATM   55  N5  UNL     1       8.253   4.334  -5.537  1.00  0.00    -0.341 N 
HETATM   56  C22 UNL     1       9.487   4.620  -5.997  1.00  0.00     0.183 A 
HETATM   57  H5  UNL     1       8.123   3.718  -4.734  1.00  0.00     0.167 HD
HETATM   58  N6  UNL     1       9.831   5.396  -7.046  1.00  0.00    -0.336 N 
HETATM   59  H6  UNL     1      10.790   5.573  -7.344  1.00  0.00     0.168 HD
BRANCH  53  60
HETATM   60  N7  UNL     1       5.922   4.599  -5.683  1.00  0.00    -0.287 NA
HETATM   61  H33 UNL     1       5.228   4.416  -6.404  1.00  0.00     0.125 HD
HETATM   62  H34 UNL     1       5.643   5.209  -4.926  1.00  0.00     0.125 HD
ENDBRANCH  53  60
ENDBRANCH  37  48
ENDBRANCH  33  34
ENDBRANCH  32  33
ENDBRANCH  28  32
ENDBRANCH  27  28
ENDBRANCH  23  27
ENDBRANCH  22  23
ENDBRANCH  21  22
ENDBRANCH  18  21
ENDBRANCH  17  18
BRANCH  17  63
HETATM   63  O17 UNL     1      18.522   2.956 -10.182  1.00  0.00    -0.385 OA
HETATM   64  H38 UNL     1      18.350   3.471  -9.376  1.00  0.00     0.210 HD
ENDBRANCH  17  63
ENDBRANCH  14  17
ENDBRANCH  12  13
ENDBRANCH  11  12
ENDBRANCH   8  11
ENDBRANCH   6   7
ENDBRANCH   5   6
ENDBRANCH   4   5
ENDBRANCH   2   4
TORSDOF 27
ENDMDL
MODEL 11
REMARK VINA RESULT:      -5.8      2.401      4.143
REMARK  27 active torsions:
REMARK  status: ('A' for Active; 'I' for Inactive)
REMARK    1  A    between atoms: C2_2  and  S1_4 
REMARK    2  A    between atoms: S1_4  and  C3_5 
REMARK    3  A    between atoms: C3_5  and  C4_6 
REMARK    4  A    between atoms: C4_6  and  N1_7 
REMARK       I    between atoms: N1_7  and  C5_8 
REMARK    5  A    between atoms: C5_8  and  C6_10 
REMARK    6  A    between atoms: C6_10  and  C7_11 
REMARK    7  A    between atoms: C7_11  and  N2_12 
REMARK       I    between atoms: N2_12  and  C8_13 
REMARK    8  A    between atoms: C8_13  and  C9_15 
REMARK    9  A    between atoms: C9_15  and  C10_16 
REMARK   10  A    between atoms: C9_15  and  O17_54 
REMARK   11  A    between atoms: C10_16  and  C13_19 
REMARK   12  A    between atoms: C13_19  and  O4_20 
REMARK   13  A    between atoms: O4_20  and  P1_21 
REMARK   14  A    between atoms: P1_21  and  O6_23 
REMARK   15  A    between atoms: P1_21  and  O7_24 
REMARK   16  A    between atoms: O7_24  and  P2_25 
REMARK   17  A    between atoms: P2_25  and  O9_27 
REMARK   18  A    between atoms: P2_25  and  O10_28 
REMARK   19  A    between atoms: O10_28  and  C14_29 
REMARK   20  A    between atoms: C14_29  and  C15_30 
REMARK   21  A    between atoms: C16_31  and  O13_49 
REMARK   22  A    between atoms: C17_32  and  O12_48 
REMARK   23  A    between atoms: C18_33  and  N3_35 
REMARK   24  A    between atoms: C21_40  and  N7_47 
REMARK   25  A    between atoms: O13_49  and  P3_50 
REMARK   26  A    between atoms: P3_50  and  O15_52 
REMARK   27  A    between atoms: P3_50  and  O16_53 
ROOT
HETATM    1  C1  UNL     1      12.367  15.402 -10.022  1.00  0.00     0.104 C 
HETATM    2  C2  UNL     1      13.630  15.469  -9.219  1.00  0.00     0.182 C 
HETATM    3  O1  UNL     1      14.528  14.634  -9.302  1.00  0.00    -0.286 OA
ENDROOT
BRANCH   2   4
HETATM    4  S1  UNL     1      13.711  16.829  -8.107  1.00  0.00    -0.091 SA
BRANCH   4   5
HETATM    5  C3  UNL     1      15.113  16.312  -7.065  1.00  0.00     0.102 C 
BRANCH   5   6
HETATM    6  C4  UNL     1      14.905  16.694  -5.598  1.00  0.00     0.133 C 
BRANCH   6   7
HETATM    7  N1  UNL     1      14.179  15.685  -4.855  1.00  0.00    -0.360 N 
HETATM    8  C5  UNL     1      12.862  15.857  -4.497  1.00  0.00     0.219 C 
HETATM    9  O2  UNL     1      12.250  16.897  -4.712  1.00  0.00    -0.274 OA
HETATM   10  H8  UNL     1      14.656  14.830  -4.601  1.00  0.00     0.162 HD
BRANCH   8  11
HETATM   11  C6  UNL     1      12.276  14.663  -3.776  1.00  0.00     0.122 C 
BRANCH  11  12
HETATM   12  C7  UNL     1      11.616  13.679  -4.742  1.00  0.00     0.132 C 
BRANCH  12  13
HETATM   13  N2  UNL     1      11.185  14.299  -5.977  1.00  0.00    -0.358 N 
HETATM   14  C8  UNL     1       9.870  14.700  -6.133  1.00  0.00     0.247 C 
HETATM   15  O3  UNL     1       9.008  14.444  -5.302  1.00  0.00    -0.271 OA
HETATM   16  H13 UNL     1      11.896  14.835  -6.470  1.00  0.00     0.162 HD
BRANCH  14  17
HETATM   17  C9  UNL     1       9.589  15.500  -7.413  1.00  0.00     0.219 C 
BRANCH  17  18
HETATM   18  C10 UNL     1       8.508  14.878  -8.336  1.00  0.00     0.009 C 
HETATM   19  C11 UNL     1       7.086  15.132  -7.815  1.00  0.00     0.020 C 
HETATM   20  C12 UNL     1       8.596  15.440  -9.769  1.00  0.00     0.020 C 
BRANCH  18  21
HETATM   21  C13 UNL     1       8.792  13.348  -8.354  1.00  0.00     0.192 C 
BRANCH  21  22
HETATM   22  O4  UNL     1       9.851  13.007  -9.225  1.00  0.00    -0.296 OA
BRANCH  22  23
HETATM   23  P1  UNL     1      10.734  11.681  -9.045  1.00  0.00     0.401 P 
HETATM   24  O5  UNL     1      10.065  10.431  -9.523  1.00  0.00    -0.631 OA
BRANCH  23  25
HETATM   25  O6  UNL     1      11.183  11.628  -7.500  1.00  0.00    -0.307 OA
HETATM   26  H23 UNL     1      11.104  10.739  -7.131  1.00  0.00     0.222 HD
ENDBRANCH  23  25
BRANCH  23  27
HETATM   27  O7  UNL     1      12.118  12.009  -9.758  1.00  0.00    -0.195 OA
BRANCH  27  28
HETATM   28  P2  UNL     1      13.435  11.259  -9.265  1.00  0.00     0.401 P 
HETATM   29  O8  UNL     1      14.557  11.149 -10.244  1.00  0.00    -0.631 OA
BRANCH  28  30
HETATM   30  O9  UNL     1      13.816  12.033  -7.921  1.00  0.00    -0.307 OA
HETATM   31  H24 UNL     1      14.338  11.493  -7.279  1.00  0.00     0.222 HD
ENDBRANCH  28  30
BRANCH  28  32
HETATM   32  O10 UNL     1      12.893   9.881  -8.667  1.00  0.00    -0.294 OA
BRANCH  32  33
HETATM   33  C14 UNL     1      13.692   9.136  -7.785  1.00  0.00     0.215 C 
BRANCH  33  34
HETATM   34  C15 UNL     1      13.460   7.668  -8.136  1.00  0.00     0.180 C 
HETATM   35  C16 UNL     1      13.471   7.491  -9.648  1.00  0.00     0.197 C 
HETATM   36  C17 UNL     1      12.081   6.988  -9.987  1.00  0.00     0.199 C 
HETATM   37  C18 UNL     1      11.650   6.322  -8.678  1.00  0.00     0.262 C 
HETATM   38  O11 UNL     1      12.209   7.168  -7.648  1.00  0.00    -0.353 OA
BRANCH  35  39
HETATM   39  O13 UNL     1      14.480   6.540  -9.974  1.00  0.00    -0.286 OA
BRANCH  39  40
HETATM   40  P3  UNL     1      15.490   6.976 -11.134  1.00  0.00     0.391 P 
HETATM   41  O14 UNL     1      16.800   6.259 -11.094  1.00  0.00    -0.632 OA
BRANCH  40  42
HETATM   42  O15 UNL     1      15.507   8.564 -10.934  1.00  0.00    -0.307 OA
HETATM   43  H36 UNL     1      15.191   8.805 -10.031  1.00  0.00     0.222 HD
ENDBRANCH  40  42
BRANCH  40  44
HETATM   44  O16 UNL     1      14.585   6.785 -12.428  1.00  0.00    -0.307 OA
HETATM   45  H37 UNL     1      14.454   5.852 -12.661  1.00  0.00     0.222 HD
ENDBRANCH  40  44
ENDBRANCH  39  40
ENDBRANCH  35  39
BRANCH  36  46
HETATM   46  O12 UNL     1      12.122   6.167 -11.158  1.00  0.00    -0.388 OA
HETATM   47  H35 UNL     1      11.909   5.250 -10.862  1.00  0.00     0.210 HD
ENDBRANCH  36  46
BRANCH  37  48
HETATM   48  N3  UNL     1      10.210   6.286  -8.520  1.00  0.00    -0.297 N 
HETATM   49  C19 UNL     1       9.263   6.700  -9.428  1.00  0.00     0.188 A 
HETATM   50  N4  UNL     1       8.040   6.417  -9.037  1.00  0.00    -0.346 N 
HETATM   51  C20 UNL     1       8.201   5.783  -7.818  1.00  0.00     0.116 A 
HETATM   52  H4  UNL     1       7.167   6.619  -9.524  1.00  0.00     0.167 HD
HETATM   53  C21 UNL     1       7.291   5.204  -6.917  1.00  0.00     0.109 A 
HETATM   54  C23 UNL     1       9.538   5.730  -7.467  1.00  0.00     0.142 A 
HETATM   55  N5  UNL     1       7.769   4.656  -5.773  1.00  0.00    -0.341 N 
HETATM   56  C22 UNL     1       9.098   4.698  -5.552  1.00  0.00     0.183 A 
HETATM   57  H5  UNL     1       7.139   4.223  -5.098  1.00  0.00     0.167 HD
HETATM   58  N6  UNL     1      10.062   5.215  -6.341  1.00  0.00    -0.336 N 
HETATM   59  H6  UNL     1      11.057   5.215  -6.114  1.00  0.00     0.168 HD
BRANCH  53  60
HETATM   60  N7  UNL     1       5.922   5.171  -7.133  1.00  0.00    -0.287 NA
HETATM   61  H33 UNL     1       5.373   5.631  -6.410  1.00  0.00     0.125 HD
HETATM   62  H34 UNL     1       5.594   4.268  -7.448  1.00  0.00     0.125 HD
ENDBRANCH  53  60
ENDBRANCH  37  48
ENDBRANCH  33  34
ENDBRANCH  32  33
ENDBRANCH  28  32
ENDBRANCH  27  28
ENDBRANCH  23  27
ENDBRANCH  22  23
ENDBRANCH  21  22
ENDBRANCH  18  21
ENDBRANCH  17  18
BRANCH  17  63
HETATM   63  O17 UNL     1       9.190  16.835  -7.082  1.00  0.00    -0.385 OA
HETATM   64  H38 UNL     1       8.801  17.239  -7.876  1.00  0.00     0.210 HD
ENDBRANCH  17  63
ENDBRANCH  14  17
ENDBRANCH  12  13
ENDBRANCH  11  12
ENDBRANCH   8  11
ENDBRANCH   6   7
ENDBRANCH   5   6
ENDBRANCH   4   5
ENDBRANCH   2   4
TORSDOF 27
ENDMDL
MODEL 12
REMARK VINA RESULT:      -5.8      6.422     10.545
REMARK  27 active torsions:
REMARK  status: ('A' for Active; 'I' for Inactive)
REMARK    1  A    between atoms: C2_2  and  S1_4 
REMARK    2  A    between atoms: S1_4  and  C3_5 
REMARK    3  A    between atoms: C3_5  and  C4_6 
REMARK    4  A    between atoms: C4_6  and  N1_7 
REMARK       I    between atoms: N1_7  and  C5_8 
REMARK    5  A    between atoms: C5_8  and  C6_10 
REMARK    6  A    between atoms: C6_10  and  C7_11 
REMARK    7  A    between atoms: C7_11  and  N2_12 
REMARK       I    between atoms: N2_12  and  C8_13 
REMARK    8  A    between atoms: C8_13  and  C9_15 
REMARK    9  A    between atoms: C9_15  and  C10_16 
REMARK   10  A    between atoms: C9_15  and  O17_54 
REMARK   11  A    between atoms: C10_16  and  C13_19 
REMARK   12  A    between atoms: C13_19  and  O4_20 
REMARK   13  A    between atoms: O4_20  and  P1_21 
REMARK   14  A    between atoms: P1_21  and  O6_23 
REMARK   15  A    between atoms: P1_21  and  O7_24 
REMARK   16  A    between atoms: O7_24  and  P2_25 
REMARK   17  A    between atoms: P2_25  and  O9_27 
REMARK   18  A    between atoms: P2_25  and  O10_28 
REMARK   19  A    between atoms: O10_28  and  C14_29 
REMARK   20  A    between atoms: C14_29  and  C15_30 
REMARK   21  A    between atoms: C16_31  and  O13_49 
REMARK   22  A    between atoms: C17_32  and  O12_48 
REMARK   23  A    between atoms: C18_33  and  N3_35 
REMARK   24  A    between atoms: C21_40  and  N7_47 
REMARK   25  A    between atoms: O13_49  and  P3_50 
REMARK   26  A    between atoms: P3_50  and  O15_52 
REMARK   27  A    between atoms: P3_50  and  O16_53 
ROOT
HETATM    1  C1  UNL     1       6.261   6.574  -7.108  1.00  0.00     0.104 C 
HETATM    2  C2  UNL     1       6.684   5.300  -6.442  1.00  0.00     0.182 C 
HETATM    3  O1  UNL     1       5.893   4.429  -6.088  1.00  0.00    -0.286 OA
ENDROOT
BRANCH   2   4
HETATM    4  S1  UNL     1       8.416   5.165  -6.167  1.00  0.00    -0.091 SA
BRANCH   4   5
HETATM    5  C3  UNL     1       9.033   5.419  -7.863  1.00  0.00     0.102 C 
BRANCH   5   6
HETATM    6  C4  UNL     1      10.436   4.839  -8.051  1.00  0.00     0.133 C 
BRANCH   6   7
HETATM    7  N1  UNL     1      11.430   5.857  -8.321  1.00  0.00    -0.360 N 
HETATM    8  C5  UNL     1      11.533   6.461  -9.553  1.00  0.00     0.219 C 
HETATM    9  O2  UNL     1      10.851   6.122 -10.513  1.00  0.00    -0.274 OA
HETATM   10  H8  UNL     1      12.058   6.133  -7.578  1.00  0.00     0.162 HD
BRANCH   8  11
HETATM   11  C6  UNL     1      12.598   7.534  -9.607  1.00  0.00     0.122 C 
BRANCH  11  12
HETATM   12  C7  UNL     1      13.300   7.574 -10.964  1.00  0.00     0.132 C 
BRANCH  12  13
HETATM   13  N2  UNL     1      13.901   6.309 -11.329  1.00  0.00    -0.358 N 
HETATM   14  C8  UNL     1      15.267   6.217 -11.523  1.00  0.00     0.247 C 
HETATM   15  O3  UNL     1      15.995   7.202 -11.512  1.00  0.00    -0.271 OA
HETATM   16  H13 UNL     1      13.423   5.480 -10.982  1.00  0.00     0.162 HD
BRANCH  14  17
HETATM   17  C9  UNL     1      15.794   4.789 -11.730  1.00  0.00     0.219 C 
BRANCH  17  18
HETATM   18  C10 UNL     1      16.228   4.469 -13.185  1.00  0.00     0.009 C 
HETATM   19  C11 UNL     1      15.804   3.058 -13.618  1.00  0.00     0.020 C 
HETATM   20  C12 UNL     1      15.628   5.474 -14.188  1.00  0.00     0.020 C 
BRANCH  18  21
HETATM   21  C13 UNL     1      17.780   4.576 -13.200  1.00  0.00     0.192 C 
BRANCH  21  22
HETATM   22  O4  UNL     1      18.408   3.338 -12.934  1.00  0.00    -0.296 OA
BRANCH  22  23
HETATM   23  P1  UNL     1      19.988   3.195 -12.703  1.00  0.00     0.401 P 
HETATM   24  O5  UNL     1      20.808   3.399 -13.938  1.00  0.00    -0.631 OA
BRANCH  23  25
HETATM   25  O6  UNL     1      20.227   1.771 -11.992  1.00  0.00    -0.307 OA
HETATM   26  H23 UNL     1      19.660   1.082 -12.363  1.00  0.00     0.222 HD
ENDBRANCH  23  25
BRANCH  23  27
HETATM   27  O7  UNL     1      20.321   4.195 -11.512  1.00  0.00    -0.195 OA
BRANCH  27  28
HETATM   28  P2  UNL     1      20.212   3.669 -10.012  1.00  0.00     0.401 P 
HETATM   29  O8  UNL     1      19.113   2.703  -9.712  1.00  0.00    -0.631 OA
BRANCH  28  30
HETATM   30  O9  UNL     1      21.675   3.105  -9.713  1.00  0.00    -0.307 OA
HETATM   31  H24 UNL     1      22.195   2.883 -10.524  1.00  0.00     0.222 HD
ENDBRANCH  28  30
BRANCH  28  32
HETATM   32  O10 UNL     1      20.226   5.003  -9.133  1.00  0.00    -0.294 OA
BRANCH  32  33
HETATM   33  C14 UNL     1      19.177   5.267  -8.240  1.00  0.00     0.215 C 
BRANCH  33  34
HETATM   34  C15 UNL     1      19.126   6.785  -8.078  1.00  0.00     0.180 C 
HETATM   35  C16 UNL     1      20.367   7.412  -8.699  1.00  0.00     0.197 C 
HETATM   36  C17 UNL     1      21.076   8.090  -7.542  1.00  0.00     0.199 C 
HETATM   37  C18 UNL     1      19.925   8.354  -6.569  1.00  0.00     0.262 C 
HETATM   38  O11 UNL     1      19.068   7.200  -6.708  1.00  0.00    -0.353 OA
BRANCH  35  39
HETATM   39  O13 UNL     1      19.943   8.343  -9.689  1.00  0.00    -0.286 OA
BRANCH  39  40
HETATM   40  P3  UNL     1      20.172   7.891 -11.205  1.00  0.00     0.391 P 
HETATM   41  O14 UNL     1      20.272   9.031 -12.166  1.00  0.00    -0.632 OA
BRANCH  40  42
HETATM   42  O15 UNL     1      18.961   6.864 -11.398  1.00  0.00    -0.307 OA
HETATM   43  H36 UNL     1      18.921   6.227 -10.645  1.00  0.00     0.222 HD
ENDBRANCH  40  42
BRANCH  40  44
HETATM   44  O16 UNL     1      21.436   6.936 -11.061  1.00  0.00    -0.307 OA
HETATM   45  H37 UNL     1      21.506   6.292 -11.783  1.00  0.00     0.222 HD
ENDBRANCH  40  44
ENDBRANCH  39  40
ENDBRANCH  35  39
BRANCH  36  46
HETATM   46  O12 UNL     1      21.815   9.222  -8.008  1.00  0.00    -0.388 OA
HETATM   47  H35 UNL     1      21.966   9.798  -7.222  1.00  0.00     0.210 HD
ENDBRANCH  36  46
BRANCH  37  48
HETATM   48  N3  UNL     1      20.369   8.442  -5.192  1.00  0.00    -0.297 N 
HETATM   49  C19 UNL     1      20.501   9.580  -4.432  1.00  0.00     0.188 A 
HETATM   50  N4  UNL     1      20.805   9.312  -3.181  1.00  0.00    -0.346 N 
HETATM   51  C20 UNL     1      20.868   7.931  -3.126  1.00  0.00     0.116 A 
HETATM   52  H4  UNL     1      20.959   9.974  -2.420  1.00  0.00     0.167 HD
HETATM   53  C21 UNL     1      21.106   7.029  -2.074  1.00  0.00     0.109 A 
HETATM   54  C23 UNL     1      20.639   7.381  -4.374  1.00  0.00     0.142 A 
HETATM   55  N5  UNL     1      21.114   5.701  -2.347  1.00  0.00    -0.341 N 
HETATM   56  C22 UNL     1      20.898   5.310  -3.618  1.00  0.00     0.183 A 
HETATM   57  H5  UNL     1      21.279   5.017  -1.609  1.00  0.00     0.167 HD
HETATM   58  N6  UNL     1      20.652   6.076  -4.700  1.00  0.00    -0.336 N 
HETATM   59  H6  UNL     1      20.497   5.715  -5.642  1.00  0.00     0.168 HD
BRANCH  53  60
HETATM   60  N7  UNL     1      21.343   7.427  -0.768  1.00  0.00    -0.287 NA
HETATM   61  H33 UNL     1      22.105   8.093  -0.664  1.00  0.00     0.125 HD
HETATM   62  H34 UNL     1      21.316   6.659  -0.110  1.00  0.00     0.125 HD
ENDBRANCH  53  60
ENDBRANCH  37  48
ENDBRANCH  33  34
ENDBRANCH  32  33
ENDBRANCH  28  32
ENDBRANCH  27  28
ENDBRANCH  23  27
ENDBRANCH  22  23
ENDBRANCH  21  22
ENDBRANCH  18  21
ENDBRANCH  17  18
BRANCH  17  63
HETATM   63  O17 UNL     1      16.903   4.541 -10.860  1.00  0.00    -0.385 OA
HETATM   64  H38 UNL     1      16.554   4.346  -9.974  1.00  0.00     0.210 HD
ENDBRANCH  17  63
ENDBRANCH  14  17
ENDBRANCH  12  13
ENDBRANCH  11  12
ENDBRANCH   8  11
ENDBRANCH   6   7
ENDBRANCH   5   6
ENDBRANCH   4   5
ENDBRANCH   2   4
TORSDOF 27
ENDMDL
MODEL 13
REMARK VINA RESULT:      -5.6      5.642      9.060
REMARK  27 active torsions:
REMARK  status: ('A' for Active; 'I' for Inactive)
REMARK    1  A    between atoms: C2_2  and  S1_4 
REMARK    2  A    between atoms: S1_4  and  C3_5 
REMARK    3  A    between atoms: C3_5  and  C4_6 
REMARK    4  A    between atoms: C4_6  and  N1_7 
REMARK       I    between atoms: N1_7  and  C5_8 
REMARK    5  A    between atoms: C5_8  and  C6_10 
REMARK    6  A    between atoms: C6_10  and  C7_11 
REMARK    7  A    between atoms: C7_11  and  N2_12 
REMARK       I    between atoms: N2_12  and  C8_13 
REMARK    8  A    between atoms: C8_13  and  C9_15 
REMARK    9  A    between atoms: C9_15  and  C10_16 
REMARK   10  A    between atoms: C9_15  and  O17_54 
REMARK   11  A    between atoms: C10_16  and  C13_19 
REMARK   12  A    between atoms: C13_19  and  O4_20 
REMARK   13  A    between atoms: O4_20  and  P1_21 
REMARK   14  A    between atoms: P1_21  and  O6_23 
REMARK   15  A    between atoms: P1_21  and  O7_24 
REMARK   16  A    between atoms: O7_24  and  P2_25 
REMARK   17  A    between atoms: P2_25  and  O9_27 
REMARK   18  A    between atoms: P2_25  and  O10_28 
REMARK   19  A    between atoms: O10_28  and  C14_29 
REMARK   20  A    between atoms: C14_29  and  C15_30 
REMARK   21  A    between atoms: C16_31  and  O13_49 
REMARK   22  A    between atoms: C17_32  and  O12_48 
REMARK   23  A    between atoms: C18_33  and  N3_35 
REMARK   24  A    between atoms: C21_40  and  N7_47 
REMARK   25  A    between atoms: O13_49  and  P3_50 
REMARK   26  A    between atoms: P3_50  and  O15_52 
REMARK   27  A    between atoms: P3_50  and  O16_53 
ROOT
HETATM    1  C1  UNL     1       9.940   1.703  -2.586  1.00  0.00     0.104 C 
HETATM    2  C2  UNL     1      10.414   2.960  -1.922  1.00  0.00     0.182 C 
HETATM    3  O1  UNL     1      11.091   2.968  -0.897  1.00  0.00    -0.286 OA
ENDROOT
BRANCH   2   4
HETATM    4  S1  UNL     1       9.886   4.440  -2.712  1.00  0.00    -0.091 SA
BRANCH   4   5
HETATM    5  C3  UNL     1       9.591   3.819  -4.399  1.00  0.00     0.102 C 
BRANCH   5   6
HETATM    6  C4  UNL     1       8.774   4.806  -5.235  1.00  0.00     0.133 C 
BRANCH   6   7
HETATM    7  N1  UNL     1       9.396   5.111  -6.508  1.00  0.00    -0.360 N 
HETATM    8  C5  UNL     1       8.734   4.927  -7.699  1.00  0.00     0.219 C 
HETATM    9  O2  UNL     1       7.618   4.423  -7.764  1.00  0.00    -0.274 OA
HETATM   10  H8  UNL     1      10.339   5.475  -6.513  1.00  0.00     0.162 HD
BRANCH   8  11
HETATM   11  C6  UNL     1       9.540   5.358  -8.905  1.00  0.00     0.122 C 
BRANCH  11  12
HETATM   12  C7  UNL     1      11.016   5.556  -8.564  1.00  0.00     0.132 C 
BRANCH  12  13
HETATM   13  N2  UNL     1      11.489   6.895  -8.845  1.00  0.00    -0.358 N 
HETATM   14  C8  UNL     1      12.116   7.175 -10.045  1.00  0.00     0.247 C 
HETATM   15  O3  UNL     1      12.399   6.298 -10.852  1.00  0.00    -0.271 OA
HETATM   16  H13 UNL     1      10.959   7.647  -8.411  1.00  0.00     0.162 HD
BRANCH  14  17
HETATM   17  C9  UNL     1      12.406   8.663 -10.289  1.00  0.00     0.219 C 
BRANCH  17  18
HETATM   18  C10 UNL     1      13.713   9.179  -9.631  1.00  0.00     0.009 C 
HETATM   19  C11 UNL     1      14.498  10.117 -10.561  1.00  0.00     0.020 C 
HETATM   20  C12 UNL     1      13.423   9.942  -8.322  1.00  0.00     0.020 C 
BRANCH  18  21
HETATM   21  C13 UNL     1      14.565   7.914  -9.324  1.00  0.00     0.192 C 
BRANCH  21  22
HETATM   22  O4  UNL     1      15.893   8.235  -8.961  1.00  0.00    -0.296 OA
BRANCH  22  23
HETATM   23  P1  UNL     1      16.530   7.832  -7.546  1.00  0.00     0.401 P 
HETATM   24  O5  UNL     1      15.549   7.814  -6.416  1.00  0.00    -0.631 OA
BRANCH  23  25
HETATM   25  O6  UNL     1      17.782   8.815  -7.303  1.00  0.00    -0.307 OA
HETATM   26  H23 UNL     1      18.595   8.468  -7.691  1.00  0.00     0.222 HD
ENDBRANCH  23  25
BRANCH  23  27
HETATM   27  O7  UNL     1      17.270   6.448  -7.807  1.00  0.00    -0.195 OA
BRANCH  27  28
HETATM   28  P2  UNL     1      18.731   6.232  -7.209  1.00  0.00     0.401 P 
HETATM   29  O8  UNL     1      18.973   6.723  -5.820  1.00  0.00    -0.631 OA
BRANCH  28  30
HETATM   30  O9  UNL     1      18.975   4.665  -7.398  1.00  0.00    -0.307 OA
HETATM   31  H24 UNL     1      18.208   4.181  -7.791  1.00  0.00     0.222 HD
ENDBRANCH  28  30
BRANCH  28  32
HETATM   32  O10 UNL     1      19.700   6.818  -8.335  1.00  0.00    -0.294 OA
BRANCH  32  33
HETATM   33  C14 UNL     1      20.391   5.946  -9.191  1.00  0.00     0.215 C 
BRANCH  33  34
HETATM   34  C15 UNL     1      20.073   6.402 -10.614  1.00  0.00     0.180 C 
HETATM   35  C16 UNL     1      19.029   7.511 -10.578  1.00  0.00     0.197 C 
HETATM   36  C17 UNL     1      17.838   6.941 -11.325  1.00  0.00     0.199 C 
HETATM   37  C18 UNL     1      18.495   5.904 -12.239  1.00  0.00     0.262 C 
HETATM   38  O11 UNL     1      19.562   5.348 -11.438  1.00  0.00    -0.353 OA
BRANCH  35  39
HETATM   39  O13 UNL     1      19.575   8.652 -11.230  1.00  0.00    -0.286 OA
BRANCH  39  40
HETATM   40  P3  UNL     1      19.554  10.007 -10.381  1.00  0.00     0.391 P 
HETATM   41  O14 UNL     1      20.219  11.157 -11.065  1.00  0.00    -0.632 OA
BRANCH  40  42
HETATM   42  O15 UNL     1      20.183   9.503  -8.999  1.00  0.00    -0.307 OA
HETATM   43  H36 UNL     1      21.101   9.848  -8.887  1.00  0.00     0.222 HD
ENDBRANCH  40  42
BRANCH  40  44
HETATM   44  O16 UNL     1      18.006  10.144 -10.045  1.00  0.00    -0.307 OA
HETATM   45  H37 UNL     1      17.446   9.596 -10.617  1.00  0.00     0.222 HD
ENDBRANCH  40  44
ENDBRANCH  39  40
ENDBRANCH  35  39
BRANCH  36  46
HETATM   46  O12 UNL     1      17.096   7.991 -11.950  1.00  0.00    -0.388 OA
HETATM   47  H35 UNL     1      17.693   8.776 -11.975  1.00  0.00     0.210 HD
ENDBRANCH  36  46
BRANCH  37  48
HETATM   48  N3  UNL     1      17.589   4.837 -12.612  1.00  0.00    -0.297 N 
HETATM   49  C19 UNL     1      16.224   4.919 -12.757  1.00  0.00     0.188 A 
HETATM   50  N4  UNL     1      15.705   3.806 -13.230  1.00  0.00    -0.346 N 
HETATM   51  C20 UNL     1      16.788   2.963 -13.404  1.00  0.00     0.116 A 
HETATM   52  H4  UNL     1      14.723   3.609 -13.424  1.00  0.00     0.167 HD
HETATM   53  C21 UNL     1      16.907   1.658 -13.912  1.00  0.00     0.109 A 
HETATM   54  C23 UNL     1      17.956   3.575 -12.989  1.00  0.00     0.142 A 
HETATM   55  N5  UNL     1      18.134   1.084 -13.945  1.00  0.00    -0.341 N 
HETATM   56  C22 UNL     1      19.183   1.793 -13.483  1.00  0.00     0.183 A 
HETATM   57  H5  UNL     1      18.261   0.139 -14.310  1.00  0.00     0.167 HD
HETATM   58  N6  UNL     1      19.193   3.046 -12.985  1.00  0.00    -0.336 N 
HETATM   59  H6  UNL     1      20.027   3.529 -12.650  1.00  0.00     0.168 HD
BRANCH  53  60
HETATM   60  N7  UNL     1      15.830   0.918 -14.375  1.00  0.00    -0.287 NA
HETATM   61  H33 UNL     1      14.987   1.464 -14.538  1.00  0.00     0.125 HD
HETATM   62  H34 UNL     1      15.716   0.040 -13.888  1.00  0.00     0.125 HD
ENDBRANCH  53  60
ENDBRANCH  37  48
ENDBRANCH  33  34
ENDBRANCH  32  33
ENDBRANCH  28  32
ENDBRANCH  27  28
ENDBRANCH  23  27
ENDBRANCH  22  23
ENDBRANCH  21  22
ENDBRANCH  18  21
ENDBRANCH  17  18
BRANCH  17  63
HETATM   63  O17 UNL     1      12.470   8.930 -11.694  1.00  0.00    -0.385 OA
HETATM   64  H38 UNL     1      12.613   8.086 -12.155  1.00  0.00     0.210 HD
ENDBRANCH  17  63
ENDBRANCH  14  17
ENDBRANCH  12  13
ENDBRANCH  11  12
ENDBRANCH   8  11
ENDBRANCH   6   7
ENDBRANCH   5   6
ENDBRANCH   4   5
ENDBRANCH   2   4
TORSDOF 27
ENDMDL
MODEL 14
REMARK VINA RESULT:      -5.6      6.314      9.270
REMARK  27 active torsions:
REMARK  status: ('A' for Active; 'I' for Inactive)
REMARK    1  A    between atoms: C2_2  and  S1_4 
REMARK    2  A    between atoms: S1_4  and  C3_5 
REMARK    3  A    between atoms: C3_5  and  C4_6 
REMARK    4  A    between atoms: C4_6  and  N1_7 
REMARK       I    between atoms: N1_7  and  C5_8 
REMARK    5  A    between atoms: C5_8  and  C6_10 
REMARK    6  A    between atoms: C6_10  and  C7_11 
REMARK    7  A    between atoms: C7_11  and  N2_12 
REMARK       I    between atoms: N2_12  and  C8_13 
REMARK    8  A    between atoms: C8_13  and  C9_15 
REMARK    9  A    between atoms: C9_15  and  C10_16 
REMARK   10  A    between atoms: C9_15  and  O17_54 
REMARK   11  A    between atoms: C10_16  and  C13_19 
REMARK   12  A    between atoms: C13_19  and  O4_20 
REMARK   13  A    between atoms: O4_20  and  P1_21 
REMARK   14  A    between atoms: P1_21  and  O6_23 
REMARK   15  A    between atoms: P1_21  and  O7_24 
REMARK   16  A    between atoms: O7_24  and  P2_25 
REMARK   17  A    between atoms: P2_25  and  O9_27 
REMARK   18  A    between atoms: P2_25  and  O10_28 
REMARK   19  A    between atoms: O10_28  and  C14_29 
REMARK   20  A    between atoms: C14_29  and  C15_30 
REMARK   21  A    between atoms: C16_31  and  O13_49 
REMARK   22  A    between atoms: C17_32  and  O12_48 
REMARK   23  A    between atoms: C18_33  and  N3_35 
REMARK   24  A    between atoms: C21_40  and  N7_47 
REMARK   25  A    between atoms: O13_49  and  P3_50 
REMARK   26  A    between atoms: P3_50  and  O15_52 
REMARK   27  A    between atoms: P3_50  and  O16_53 
ROOT
HETATM    1  C1  UNL     1       6.714   5.940  -5.688  1.00  0.00     0.104 C 
HETATM    2  C2  UNL     1       8.017   5.316  -6.081  1.00  0.00     0.182 C 
HETATM    3  O1  UNL     1       8.897   5.026  -5.274  1.00  0.00    -0.286 OA
ENDROOT
BRANCH   2   4
HETATM    4  S1  UNL     1       8.208   5.065  -7.811  1.00  0.00    -0.091 SA
BRANCH   4   5
HETATM    5  C3  UNL     1      10.014   4.839  -7.908  1.00  0.00     0.102 C 
BRANCH   5   6
HETATM    6  C4  UNL     1      10.752   6.177  -7.985  1.00  0.00     0.133 C 
BRANCH   6   7
HETATM    7  N1  UNL     1      11.392   6.390  -9.267  1.00  0.00    -0.360 N 
HETATM    8  C5  UNL     1      12.745   6.612  -9.373  1.00  0.00     0.219 C 
HETATM    9  O2  UNL     1      13.474   6.722  -8.394  1.00  0.00    -0.274 OA
HETATM   10  H8  UNL     1      10.824   6.368 -10.104  1.00  0.00     0.162 HD
BRANCH   8  11
HETATM   11  C6  UNL     1      13.219   6.754 -10.803  1.00  0.00     0.122 C 
BRANCH  11  12
HETATM   12  C7  UNL     1      13.399   8.219 -11.201  1.00  0.00     0.132 C 
BRANCH  12  13
HETATM   13  N2  UNL     1      13.640   9.089 -10.070  1.00  0.00    -0.358 N 
HETATM   14  C8  UNL     1      12.702  10.039  -9.710  1.00  0.00     0.247 C 
HETATM   15  O3  UNL     1      11.706  10.262 -10.387  1.00  0.00    -0.271 OA
HETATM   16  H13 UNL     1      14.210   8.693  -9.326  1.00  0.00     0.162 HD
BRANCH  14  17
HETATM   17  C9  UNL     1      12.999  10.771  -8.392  1.00  0.00     0.219 C 
BRANCH  17  18
HETATM   18  C10 UNL     1      13.904  12.023  -8.542  1.00  0.00     0.009 C 
HETATM   19  C11 UNL     1      13.873  12.591  -9.969  1.00  0.00     0.020 C 
HETATM   20  C12 UNL     1      13.480  13.146  -7.575  1.00  0.00     0.020 C 
BRANCH  18  21
HETATM   21  C13 UNL     1      15.346  11.550  -8.198  1.00  0.00     0.192 C 
BRANCH  21  22
HETATM   22  O4  UNL     1      16.087  11.201  -9.350  1.00  0.00    -0.296 OA
BRANCH  22  23
HETATM   23  P1  UNL     1      17.043   9.916  -9.414  1.00  0.00     0.401 P 
HETATM   24  O5  UNL     1      18.492  10.220  -9.203  1.00  0.00    -0.631 OA
BRANCH  23  25
HETATM   25  O6  UNL     1      16.731   9.173 -10.807  1.00  0.00    -0.307 OA
HETATM   26  H23 UNL     1      17.370   8.474 -10.996  1.00  0.00     0.222 HD
ENDBRANCH  23  25
BRANCH  23  27
HETATM   27  O7  UNL     1      16.420   8.889  -8.370  1.00  0.00    -0.195 OA
BRANCH  27  28
HETATM   28  P2  UNL     1      17.371   7.798  -7.703  1.00  0.00     0.401 P 
HETATM   29  O8  UNL     1      18.329   8.280  -6.663  1.00  0.00    -0.631 OA
BRANCH  28  30
HETATM   30  O9  UNL     1      16.346   6.690  -7.181  1.00  0.00    -0.307 OA
HETATM   31  H24 UNL     1      15.395   6.926  -7.310  1.00  0.00     0.222 HD
ENDBRANCH  28  30
BRANCH  28  32
HETATM   32  O10 UNL     1      18.017   7.036  -8.948  1.00  0.00    -0.294 OA
BRANCH  32  33
HETATM   33  C14 UNL     1      19.264   6.405  -8.816  1.00  0.00     0.215 C 
BRANCH  33  34
HETATM   34  C15 UNL     1      18.988   4.903  -8.848  1.00  0.00     0.180 C 
HETATM   35  C16 UNL     1      20.081   4.162  -8.089  1.00  0.00     0.197 C 
HETATM   36  C17 UNL     1      20.740   3.277  -9.130  1.00  0.00     0.199 C 
HETATM   37  C18 UNL     1      19.618   3.094 -10.154  1.00  0.00     0.262 C 
HETATM   38  O11 UNL     1      18.943   4.371 -10.177  1.00  0.00    -0.353 OA
BRANCH  35  39
HETATM   39  O13 UNL     1      19.463   3.404  -7.054  1.00  0.00    -0.286 OA
BRANCH  39  40
HETATM   40  P3  UNL     1      19.952   3.738  -5.569  1.00  0.00     0.391 P 
HETATM   41  O14 UNL     1      19.513   5.079  -5.077  1.00  0.00    -0.632 OA
BRANCH  40  42
HETATM   42  O15 UNL     1      21.525   3.479  -5.706  1.00  0.00    -0.307 OA
HETATM   43  H36 UNL     1      22.014   3.902  -4.962  1.00  0.00     0.222 HD
ENDBRANCH  40  42
BRANCH  40  44
HETATM   44  O16 UNL     1      19.443   2.459  -4.774  1.00  0.00    -0.307 OA
HETATM   45  H37 UNL     1      18.755   2.670  -4.122  1.00  0.00     0.222 HD
ENDBRANCH  40  44
ENDBRANCH  39  40
ENDBRANCH  35  39
BRANCH  36  46
HETATM   46  O12 UNL     1      21.267   2.098  -8.516  1.00  0.00    -0.388 OA
HETATM   47  H35 UNL     1      20.817   2.014  -7.642  1.00  0.00     0.210 HD
ENDBRANCH  36  46
BRANCH  37  48
HETATM   48  N3  UNL     1      20.119   2.808 -11.484  1.00  0.00    -0.297 N 
HETATM   49  C19 UNL     1      21.389   2.403 -11.824  1.00  0.00     0.188 A 
HETATM   50  N4  UNL     1      21.491   2.104 -13.100  1.00  0.00    -0.346 N 
HETATM   51  C20 UNL     1      20.225   2.321 -13.612  1.00  0.00     0.116 A 
HETATM   52  H4  UNL     1      22.320   1.783 -13.601  1.00  0.00     0.167 HD
HETATM   53  C21 UNL     1      19.672   2.147 -14.893  1.00  0.00     0.109 A 
HETATM   54  C23 UNL     1      19.375   2.795 -12.630  1.00  0.00     0.142 A 
HETATM   55  N5  UNL     1      18.369   2.466 -15.086  1.00  0.00    -0.341 N 
HETATM   56  C22 UNL     1      17.666   2.941 -14.039  1.00  0.00     0.183 A 
HETATM   57  H5  UNL     1      17.932   2.349 -16.001  1.00  0.00     0.167 HD
HETATM   58  N6  UNL     1      18.083   3.141 -12.772  1.00  0.00    -0.336 N 
HETATM   59  H6  UNL     1      17.497   3.507 -12.021  1.00  0.00     0.168 HD
BRANCH  53  60
HETATM   60  N7  UNL     1      20.394   1.672 -15.977  1.00  0.00    -0.287 NA
HETATM   61  H33 UNL     1      19.821   1.375 -16.764  1.00  0.00     0.125 HD
HETATM   62  H34 UNL     1      21.152   1.060 -15.708  1.00  0.00     0.125 HD
ENDBRANCH  53  60
ENDBRANCH  37  48
ENDBRANCH  33  34
ENDBRANCH  32  33
ENDBRANCH  28  32
ENDBRANCH  27  28
ENDBRANCH  23  27
ENDBRANCH  22  23
ENDBRANCH  21  22
ENDBRANCH  18  21
ENDBRANCH  17  18
BRANCH  17  63
HETATM   63  O17 UNL     1      11.776  11.167  -7.762  1.00  0.00    -0.385 OA
HETATM   64  H38 UNL     1      11.074  11.159  -8.433  1.00  0.00     0.210 HD
ENDBRANCH  17  63
ENDBRANCH  14  17
ENDBRANCH  12  13
ENDBRANCH  11  12
ENDBRANCH   8  11
ENDBRANCH   6   7
ENDBRANCH   5   6
ENDBRANCH   4   5
ENDBRANCH   2   4
TORSDOF 27
ENDMDL
MODEL 15
REMARK VINA RESULT:      -5.4      6.029      9.274
REMARK  27 active torsions:
REMARK  status: ('A' for Active; 'I' for Inactive)
REMARK    1  A    between atoms: C2_2  and  S1_4 
REMARK    2  A    between atoms: S1_4  and  C3_5 
REMARK    3  A    between atoms: C3_5  and  C4_6 
REMARK    4  A    between atoms: C4_6  and  N1_7 
REMARK       I    between atoms: N1_7  and  C5_8 
REMARK    5  A    between atoms: C5_8  and  C6_10 
REMARK    6  A    between atoms: C6_10  and  C7_11 
REMARK    7  A    between atoms: C7_11  and  N2_12 
REMARK       I    between atoms: N2_12  and  C8_13 
REMARK    8  A    between atoms: C8_13  and  C9_15 
REMARK    9  A    between atoms: C9_15  and  C10_16 
REMARK   10  A    between atoms: C9_15  and  O17_54 
REMARK   11  A    between atoms: C10_16  and  C13_19 
REMARK   12  A    between atoms: C13_19  and  O4_20 
REMARK   13  A    between atoms: O4_20  and  P1_21 
REMARK   14  A    between atoms: P1_21  and  O6_23 
REMARK   15  A    between atoms: P1_21  and  O7_24 
REMARK   16  A    between atoms: O7_24  and  P2_25 
REMARK   17  A    between atoms: P2_25  and  O9_27 
REMARK   18  A    between atoms: P2_25  and  O10_28 
REMARK   19  A    between atoms: O10_28  and  C14_29 
REMARK   20  A    between atoms: C14_29  and  C15_30 
REMARK   21  A    between atoms: C16_31  and  O13_49 
REMARK   22  A    between atoms: C17_32  and  O12_48 
REMARK   23  A    between atoms: C18_33  and  N3_35 
REMARK   24  A    between atoms: C21_40  and  N7_47 
REMARK   25  A    between atoms: O13_49  and  P3_50 
REMARK   26  A    between atoms: P3_50  and  O15_52 
REMARK   27  A    between atoms: P3_50  and  O16_53 
ROOT
HETATM    1  C1  UNL     1       9.600   1.709  -2.291  1.00  0.00     0.104 C 
HETATM    2  C2  UNL     1      10.369   2.946  -1.940  1.00  0.00     0.182 C 
HETATM    3  O1  UNL     1      11.328   2.949  -1.172  1.00  0.00    -0.286 OA
ENDROOT
BRANCH   2   4
HETATM    4  S1  UNL     1       9.760   4.416  -2.690  1.00  0.00    -0.091 SA
BRANCH   4   5
HETATM    5  C3  UNL     1       9.580   3.849  -4.412  1.00  0.00     0.102 C 
BRANCH   5   6
HETATM    6  C4  UNL     1       8.742   4.820  -5.247  1.00  0.00     0.133 C 
BRANCH   6   7
HETATM    7  N1  UNL     1       9.297   5.047  -6.566  1.00  0.00    -0.360 N 
HETATM    8  C5  UNL     1       8.512   5.447  -7.622  1.00  0.00     0.219 C 
HETATM    9  O2  UNL     1       7.295   5.558  -7.535  1.00  0.00    -0.274 OA
HETATM   10  H8  UNL     1      10.289   4.912  -6.706  1.00  0.00     0.162 HD
BRANCH   8  11
HETATM   11  C6  UNL     1       9.296   5.681  -8.895  1.00  0.00     0.122 C 
BRANCH  11  12
HETATM   12  C7  UNL     1      10.804   5.610  -8.659  1.00  0.00     0.132 C 
BRANCH  12  13
HETATM   13  N2  UNL     1      11.484   6.854  -8.952  1.00  0.00    -0.358 N 
HETATM   14  C8  UNL     1      12.374   6.930 -10.007  1.00  0.00     0.247 C 
HETATM   15  O3  UNL     1      12.710   5.942 -10.649  1.00  0.00    -0.271 OA
HETATM   16  H13 UNL     1      10.970   7.700  -8.715  1.00  0.00     0.162 HD
BRANCH  14  17
HETATM   17  C9  UNL     1      12.887   8.344 -10.317  1.00  0.00     0.219 C 
BRANCH  17  18
HETATM   18  C10 UNL     1      14.378   8.408 -10.743  1.00  0.00     0.009 C 
HETATM   19  C11 UNL     1      14.645   7.621 -12.035  1.00  0.00     0.020 C 
HETATM   20  C12 UNL     1      14.839   9.862 -10.969  1.00  0.00     0.020 C 
BRANCH  18  21
HETATM   21  C13 UNL     1      15.184   7.778  -9.571  1.00  0.00     0.192 C 
BRANCH  21  22
HETATM   22  O4  UNL     1      16.458   7.323  -9.978  1.00  0.00    -0.296 OA
BRANCH  22  23
HETATM   23  P1  UNL     1      17.765   7.458  -9.059  1.00  0.00     0.401 P 
HETATM   24  O5  UNL     1      17.670   8.523  -8.012  1.00  0.00    -0.631 OA
BRANCH  23  25
HETATM   25  O6  UNL     1      19.018   7.636 -10.054  1.00  0.00    -0.307 OA
HETATM   26  H23 UNL     1      19.259   6.805 -10.484  1.00  0.00     0.222 HD
ENDBRANCH  23  25
BRANCH  23  27
HETATM   27  O7  UNL     1      18.024   5.993  -8.495  1.00  0.00    -0.195 OA
BRANCH  27  28
HETATM   28  P2  UNL     1      19.386   5.254  -8.867  1.00  0.00     0.401 P 
HETATM   29  O8  UNL     1      20.652   6.015  -8.641  1.00  0.00    -0.631 OA
BRANCH  28  30
HETATM   30  O9  UNL     1      19.294   3.884  -8.052  1.00  0.00    -0.307 OA
HETATM   31  H24 UNL     1      19.535   3.084  -8.580  1.00  0.00     0.222 HD
ENDBRANCH  28  30
BRANCH  28  32
HETATM   32  O10 UNL     1      19.145   4.727 -10.355  1.00  0.00    -0.294 OA
BRANCH  32  33
HETATM   33  C14 UNL     1      18.890   3.366 -10.586  1.00  0.00     0.215 C 
BRANCH  33  34
HETATM   34  C15 UNL     1      18.852   3.190 -12.103  1.00  0.00     0.180 C 
HETATM   35  C16 UNL     1      18.143   4.377 -12.742  1.00  0.00     0.197 C 
HETATM   36  C17 UNL     1      16.926   3.777 -13.421  1.00  0.00     0.199 C 
HETATM   37  C18 UNL     1      17.373   2.335 -13.671  1.00  0.00     0.262 C 
HETATM   38  O11 UNL     1      18.165   2.001 -12.510  1.00  0.00    -0.353 OA
BRANCH  35  39
HETATM   39  O13 UNL     1      19.038   4.975 -13.675  1.00  0.00    -0.286 OA
BRANCH  39  40
HETATM   40  P3  UNL     1      19.238   6.553 -13.523  1.00  0.00     0.391 P 
HETATM   41  O14 UNL     1      19.550   7.248 -14.809  1.00  0.00    -0.632 OA
BRANCH  40  42
HETATM   42  O15 UNL     1      20.341   6.605 -12.366  1.00  0.00    -0.307 OA
HETATM   43  H36 UNL     1      21.202   6.246 -12.688  1.00  0.00     0.222 HD
ENDBRANCH  40  42
BRANCH  40  44
HETATM   44  O16 UNL     1      17.902   6.969 -12.767  1.00  0.00    -0.307 OA
HETATM   45  H37 UNL     1      17.652   6.341 -12.071  1.00  0.00     0.222 HD
ENDBRANCH  40  44
ENDBRANCH  39  40
ENDBRANCH  35  39
BRANCH  36  46
HETATM   46  O12 UNL     1      16.559   4.559 -14.561  1.00  0.00    -0.388 OA
HETATM   47  H35 UNL     1      16.659   5.504 -14.294  1.00  0.00     0.210 HD
ENDBRANCH  36  46
BRANCH  37  48
HETATM   48  N3  UNL     1      16.258   1.414 -13.756  1.00  0.00    -0.297 N 
HETATM   49  C19 UNL     1      14.963   1.707 -14.113  1.00  0.00     0.188 A 
HETATM   50  N4  UNL     1      14.218   0.628 -14.217  1.00  0.00    -0.346 N 
HETATM   51  C20 UNL     1      15.074  -0.417 -13.917  1.00  0.00     0.116 A 
HETATM   52  H4  UNL     1      13.230   0.573 -14.464  1.00  0.00     0.167 HD
HETATM   53  C21 UNL     1      14.902  -1.812 -13.893  1.00  0.00     0.109 A 
HETATM   54  C23 UNL     1      16.331   0.059 -13.591  1.00  0.00     0.142 A 
HETATM   55  N5  UNL     1      15.955  -2.589 -13.540  1.00  0.00    -0.341 N 
HETATM   56  C22 UNL     1      17.117  -1.984 -13.224  1.00  0.00     0.183 A 
HETATM   57  H5  UNL     1      15.870  -3.605 -13.514  1.00  0.00     0.167 HD
HETATM   58  N6  UNL     1      17.401  -0.666 -13.220  1.00  0.00    -0.336 N 
HETATM   59  H6  UNL     1      18.308  -0.270 -12.968  1.00  0.00     0.168 HD
BRANCH  53  60
HETATM   60  N7  UNL     1      13.706  -2.439 -14.202  1.00  0.00    -0.287 NA
HETATM   61  H33 UNL     1      13.264  -2.910 -13.416  1.00  0.00     0.125 HD
HETATM   62  H34 UNL     1      13.740  -2.945 -15.077  1.00  0.00     0.125 HD
ENDBRANCH  53  60
ENDBRANCH  37  48
ENDBRANCH  33  34
ENDBRANCH  32  33
ENDBRANCH  28  32
ENDBRANCH  27  28
ENDBRANCH  23  27
ENDBRANCH  22  23
ENDBRANCH  21  22
ENDBRANCH  18  21
ENDBRANCH  17  18
BRANCH  17  63
HETATM   63  O17 UNL     1      12.094   8.941 -11.349  1.00  0.00    -0.385 OA
HETATM   64  H38 UNL     1      12.134   9.906 -11.241  1.00  0.00     0.210 HD
ENDBRANCH  17  63
ENDBRANCH  14  17
ENDBRANCH  12  13
ENDBRANCH  11  12
ENDBRANCH   8  11
ENDBRANCH   6   7
ENDBRANCH   5   6
ENDBRANCH   4   5
ENDBRANCH   2   4
TORSDOF 27
ENDMDL
MODEL 16
REMARK VINA RESULT:      -5.4      5.915     11.527
REMARK  27 active torsions:
REMARK  status: ('A' for Active; 'I' for Inactive)
REMARK    1  A    between atoms: C2_2  and  S1_4 
REMARK    2  A    between atoms: S1_4  and  C3_5 
REMARK    3  A    between atoms: C3_5  and  C4_6 
REMARK    4  A    between atoms: C4_6  and  N1_7 
REMARK       I    between atoms: N1_7  and  C5_8 
REMARK    5  A    between atoms: C5_8  and  C6_10 
REMARK    6  A    between atoms: C6_10  and  C7_11 
REMARK    7  A    between atoms: C7_11  and  N2_12 
REMARK       I    between atoms: N2_12  and  C8_13 
REMARK    8  A    between atoms: C8_13  and  C9_15 
REMARK    9  A    between atoms: C9_15  and  C10_16 
REMARK   10  A    between atoms: C9_15  and  O17_54 
REMARK   11  A    between atoms: C10_16  and  C13_19 
REMARK   12  A    between atoms: C13_19  and  O4_20 
REMARK   13  A    between atoms: O4_20  and  P1_21 
REMARK   14  A    between atoms: P1_21  and  O6_23 
REMARK   15  A    between atoms: P1_21  and  O7_24 
REMARK   16  A    between atoms: O7_24  and  P2_25 
REMARK   17  A    between atoms: P2_25  and  O9_27 
REMARK   18  A    between atoms: P2_25  and  O10_28 
REMARK   19  A    between atoms: O10_28  and  C14_29 
REMARK   20  A    between atoms: C14_29  and  C15_30 
REMARK   21  A    between atoms: C16_31  and  O13_49 
REMARK   22  A    between atoms: C17_32  and  O12_48 
REMARK   23  A    between atoms: C18_33  and  N3_35 
REMARK   24  A    between atoms: C21_40  and  N7_47 
REMARK   25  A    between atoms: O13_49  and  P3_50 
REMARK   26  A    between atoms: P3_50  and  O15_52 
REMARK   27  A    between atoms: P3_50  and  O16_53 
ROOT
HETATM    1  C1  UNL     1      10.299   2.817 -14.357  1.00  0.00     0.104 C 
HETATM    2  C2  UNL     1      11.383   1.978 -14.963  1.00  0.00     0.182 C 
HETATM    3  O1  UNL     1      11.172   1.109 -15.805  1.00  0.00    -0.286 OA
ENDROOT
BRANCH   2   4
HETATM    4  S1  UNL     1      12.992   2.310 -14.336  1.00  0.00    -0.091 SA
BRANCH   4   5
HETATM    5  C3  UNL     1      13.757   0.666 -14.520  1.00  0.00     0.102 C 
BRANCH   5   6
HETATM    6  C4  UNL     1      14.986   0.507 -13.623  1.00  0.00     0.133 C 
BRANCH   6   7
HETATM    7  N1  UNL     1      16.204   0.971 -14.256  1.00  0.00    -0.360 N 
HETATM    8  C5  UNL     1      17.444   0.547 -13.838  1.00  0.00     0.219 C 
HETATM    9  O2  UNL     1      17.599  -0.179 -12.863  1.00  0.00    -0.274 OA
HETATM   10  H8  UNL     1      16.134   1.617 -15.031  1.00  0.00     0.162 HD
BRANCH   8  11
HETATM   11  C6  UNL     1      18.579   1.107 -14.667  1.00  0.00     0.122 C 
BRANCH  11  12
HETATM   12  C7  UNL     1      19.076   2.446 -14.125  1.00  0.00     0.132 C 
BRANCH  12  13
HETATM   13  N2  UNL     1      18.848   2.603 -12.704  1.00  0.00    -0.358 N 
HETATM   14  C8  UNL     1      19.838   2.266 -11.799  1.00  0.00     0.247 C 
HETATM   15  O3  UNL     1      20.879   1.722 -12.144  1.00  0.00    -0.271 OA
HETATM   16  H13 UNL     1      18.214   3.355 -12.442  1.00  0.00     0.162 HD
BRANCH  14  17
HETATM   17  C9  UNL     1      19.534   2.646 -10.342  1.00  0.00     0.219 C 
BRANCH  17  18
HETATM   18  C10 UNL     1      20.445   3.762  -9.765  1.00  0.00     0.009 C 
HETATM   19  C11 UNL     1      21.712   3.193  -9.110  1.00  0.00     0.020 C 
HETATM   20  C12 UNL     1      20.882   4.756 -10.860  1.00  0.00     0.020 C 
BRANCH  18  21
HETATM   21  C13 UNL     1      19.590   4.500  -8.696  1.00  0.00     0.192 C 
BRANCH  21  22
HETATM   22  O4  UNL     1      18.810   5.539  -9.254  1.00  0.00    -0.296 OA
BRANCH  22  23
HETATM   23  P1  UNL     1      18.919   7.064  -8.773  1.00  0.00     0.401 P 
HETATM   24  O5  UNL     1      19.688   7.946  -9.705  1.00  0.00    -0.631 OA
BRANCH  23  25
HETATM   25  O6  UNL     1      19.504   7.039  -7.273  1.00  0.00    -0.307 OA
HETATM   26  H23 UNL     1      20.289   6.480  -7.200  1.00  0.00     0.222 HD
ENDBRANCH  23  25
BRANCH  23  27
HETATM   27  O7  UNL     1      17.418   7.521  -8.511  1.00  0.00    -0.195 OA
BRANCH  27  28
HETATM   28  P2  UNL     1      17.127   9.050  -8.172  1.00  0.00     0.401 P 
HETATM   29  O8  UNL     1      17.921   9.661  -7.063  1.00  0.00    -0.631 OA
BRANCH  28  30
HETATM   30  O9  UNL     1      17.308   9.779  -9.580  1.00  0.00    -0.307 OA
HETATM   31  H24 UNL     1      16.556   9.639 -10.207  1.00  0.00     0.222 HD
ENDBRANCH  28  30
BRANCH  28  32
HETATM   32  O10 UNL     1      15.539   9.114  -8.010  1.00  0.00    -0.294 OA
BRANCH  32  33
HETATM   33  C14 UNL     1      14.847   8.032  -7.444  1.00  0.00     0.215 C 
BRANCH  33  34
HETATM   34  C15 UNL     1      13.698   7.713  -8.399  1.00  0.00     0.180 C 
HETATM   35  C16 UNL     1      14.145   7.941  -9.837  1.00  0.00     0.197 C 
HETATM   36  C17 UNL     1      13.240   9.043 -10.351  1.00  0.00     0.199 C 
HETATM   37  C18 UNL     1      12.004   8.889  -9.461  1.00  0.00     0.262 C 
HETATM   38  O11 UNL     1      12.540   8.524  -8.169  1.00  0.00    -0.353 OA
BRANCH  35  39
HETATM   39  O13 UNL     1      13.967   6.722 -10.552  1.00  0.00    -0.286 OA
BRANCH  39  40
HETATM   40  P3  UNL     1      15.280   6.137 -11.253  1.00  0.00     0.391 P 
HETATM   41  O14 UNL     1      15.008   5.417 -12.534  1.00  0.00    -0.632 OA
BRANCH  40  42
HETATM   42  O15 UNL     1      15.911   5.294 -10.049  1.00  0.00    -0.307 OA
HETATM   43  H36 UNL     1      15.243   5.146  -9.339  1.00  0.00     0.222 HD
ENDBRANCH  40  42
BRANCH  40  44
HETATM   44  O16 UNL     1      16.206   7.428 -11.316  1.00  0.00    -0.307 OA
HETATM   45  H37 UNL     1      15.852   8.117 -11.900  1.00  0.00     0.222 HD
ENDBRANCH  40  44
ENDBRANCH  39  40
ENDBRANCH  35  39
BRANCH  36  46
HETATM   46  O12 UNL     1      13.052   8.913 -11.763  1.00  0.00    -0.388 OA
HETATM   47  H35 UNL     1      12.459   8.135 -11.894  1.00  0.00     0.210 HD
ENDBRANCH  36  46
BRANCH  37  48
HETATM   48  N3  UNL     1      11.259  10.124  -9.324  1.00  0.00    -0.297 N 
HETATM   49  C19 UNL     1       9.999  10.392  -9.807  1.00  0.00     0.188 A 
HETATM   50  N4  UNL     1       9.550  11.561  -9.406  1.00  0.00    -0.346 N 
HETATM   51  C20 UNL     1      10.566  12.074  -8.621  1.00  0.00     0.116 A 
HETATM   52  H4  UNL     1       8.652  11.993  -9.625  1.00  0.00     0.167 HD
HETATM   53  C21 UNL     1      10.688  13.259  -7.874  1.00  0.00     0.109 A 
HETATM   54  C23 UNL     1      11.647  11.212  -8.593  1.00  0.00     0.142 A 
HETATM   55  N5  UNL     1      11.842  13.487  -7.201  1.00  0.00    -0.341 N 
HETATM   56  C22 UNL     1      12.822  12.566  -7.285  1.00  0.00     0.183 A 
HETATM   57  H5  UNL     1      11.965  14.334  -6.646  1.00  0.00     0.167 HD
HETATM   58  N6  UNL     1      12.817  11.396  -7.957  1.00  0.00    -0.336 N 
HETATM   59  H6  UNL     1      13.597  10.739  -7.981  1.00  0.00     0.168 HD
BRANCH  53  60
HETATM   60  N7  UNL     1       9.689  14.217  -7.796  1.00  0.00    -0.287 NA
HETATM   61  H33 UNL     1       9.730  14.798  -6.962  1.00  0.00     0.125 HD
HETATM   62  H34 UNL     1       8.780  13.861  -8.060  1.00  0.00     0.125 HD
ENDBRANCH  53  60
ENDBRANCH  37  48
ENDBRANCH  33  34
ENDBRANCH  32  33
ENDBRANCH  28  32
ENDBRANCH  27  28
ENDBRANCH  23  27
ENDBRANCH  22  23
ENDBRANCH  21  22
ENDBRANCH  18  21
ENDBRANCH  17  18
BRANCH  17  63
HETATM   63  O17 UNL     1      18.170   3.062 -10.215  1.00  0.00    -0.385 OA
HETATM   64  H38 UNL     1      17.664   2.660 -10.940  1.00  0.00     0.210 HD
ENDBRANCH  17  63
ENDBRANCH  14  17
ENDBRANCH  12  13
ENDBRANCH  11  12
ENDBRANCH   8  11
ENDBRANCH   6   7
ENDBRANCH   5   6
ENDBRANCH   4   5
ENDBRANCH   2   4
TORSDOF 27
ENDMDL
MODEL 17
REMARK VINA RESULT:      -5.4      6.025      7.939
REMARK  27 active torsions:
REMARK  status: ('A' for Active; 'I' for Inactive)
REMARK    1  A    between atoms: C2_2  and  S1_4 
REMARK    2  A    between atoms: S1_4  and  C3_5 
REMARK    3  A    between atoms: C3_5  and  C4_6 
REMARK    4  A    between atoms: C4_6  and  N1_7 
REMARK       I    between atoms: N1_7  and  C5_8 
REMARK    5  A    between atoms: C5_8  and  C6_10 
REMARK    6  A    between atoms: C6_10  and  C7_11 
REMARK    7  A    between atoms: C7_11  and  N2_12 
REMARK       I    between atoms: N2_12  and  C8_13 
REMARK    8  A    between atoms: C8_13  and  C9_15 
REMARK    9  A    between atoms: C9_15  and  C10_16 
REMARK   10  A    between atoms: C9_15  and  O17_54 
REMARK   11  A    between atoms: C10_16  and  C13_19 
REMARK   12  A    between atoms: C13_19  and  O4_20 
REMARK   13  A    between atoms: O4_20  and  P1_21 
REMARK   14  A    between atoms: P1_21  and  O6_23 
REMARK   15  A    between atoms: P1_21  and  O7_24 
REMARK   16  A    between atoms: O7_24  and  P2_25 
REMARK   17  A    between atoms: P2_25  and  O9_27 
REMARK   18  A    between atoms: P2_25  and  O10_28 
REMARK   19  A    between atoms: O10_28  and  C14_29 
REMARK   20  A    between atoms: C14_29  and  C15_30 
REMARK   21  A    between atoms: C16_31  and  O13_49 
REMARK   22  A    between atoms: C17_32  and  O12_48 
REMARK   23  A    between atoms: C18_33  and  N3_35 
REMARK   24  A    between atoms: C21_40  and  N7_47 
REMARK   25  A    between atoms: O13_49  and  P3_50 
REMARK   26  A    between atoms: P3_50  and  O15_52 
REMARK   27  A    between atoms: P3_50  and  O16_53 
ROOT
HETATM    1  C1  UNL     1       4.722   9.106 -14.666  1.00  0.00     0.104 C 
HETATM    2  C2  UNL     1       4.076   8.700 -13.376  1.00  0.00     0.182 C 
HETATM    3  O1  UNL     1       4.664   8.701 -12.298  1.00  0.00    -0.286 OA
ENDROOT
BRANCH   2   4
HETATM    4  S1  UNL     1       2.405   8.177 -13.536  1.00  0.00    -0.091 SA
BRANCH   4   5
HETATM    5  C3  UNL     1       1.896   9.157 -14.985  1.00  0.00     0.102 C 
BRANCH   5   6
HETATM    6  C4  UNL     1       0.404   9.494 -14.950  1.00  0.00     0.133 C 
BRANCH   6   7
HETATM    7  N1  UNL     1       0.129  10.747 -14.275  1.00  0.00    -0.360 N 
HETATM    8  C5  UNL     1       0.198  11.953 -14.933  1.00  0.00     0.219 C 
HETATM    9  O2  UNL     1       0.570  12.051 -16.096  1.00  0.00    -0.274 OA
HETATM   10  H8  UNL     1      -0.126  10.726 -13.297  1.00  0.00     0.162 HD
BRANCH   8  11
HETATM   11  C6  UNL     1      -0.180  13.132 -14.062  1.00  0.00     0.122 C 
BRANCH  11  12
HETATM   12  C7  UNL     1       0.818  14.282 -14.194  1.00  0.00     0.132 C 
BRANCH  12  13
HETATM   13  N2  UNL     1       2.185  13.832 -14.348  1.00  0.00    -0.358 N 
HETATM   14  C8  UNL     1       2.959  13.563 -13.234  1.00  0.00     0.247 C 
HETATM   15  O3  UNL     1       2.571  13.801 -12.098  1.00  0.00    -0.271 OA
HETATM   16  H13 UNL     1       2.377  13.294 -15.190  1.00  0.00     0.162 HD
BRANCH  14  17
HETATM   17  C9  UNL     1       4.324  12.927 -13.537  1.00  0.00     0.219 C 
BRANCH  17  18
HETATM   18  C10 UNL     1       5.507  13.930 -13.577  1.00  0.00     0.009 C 
HETATM   19  C11 UNL     1       6.566  13.535 -14.616  1.00  0.00     0.020 C 
HETATM   20  C12 UNL     1       5.026  15.357 -13.908  1.00  0.00     0.020 C 
BRANCH  18  21
HETATM   21  C13 UNL     1       6.135  13.905 -12.154  1.00  0.00     0.192 C 
BRANCH  21  22
HETATM   22  O4  UNL     1       7.270  13.066 -12.081  1.00  0.00    -0.296 OA
BRANCH  22  23
HETATM   23  P1  UNL     1       7.658  12.238 -10.764  1.00  0.00     0.401 P 
HETATM   24  O5  UNL     1       6.658  11.192 -10.383  1.00  0.00    -0.631 OA
BRANCH  23  25
HETATM   25  O6  UNL     1       7.944  13.317  -9.604  1.00  0.00    -0.307 OA
HETATM   26  H23 UNL     1       7.748  12.964  -8.726  1.00  0.00     0.222 HD
ENDBRANCH  23  25
BRANCH  23  27
HETATM   27  O7  UNL     1       9.124  11.687 -11.042  1.00  0.00    -0.195 OA
BRANCH  27  28
HETATM   28  P2  UNL     1       9.883  10.899  -9.884  1.00  0.00     0.401 P 
HETATM   29  O8  UNL     1      10.340  11.700  -8.709  1.00  0.00    -0.631 OA
BRANCH  28  30
HETATM   30  O9  UNL     1       8.869   9.722  -9.515  1.00  0.00    -0.307 OA
HETATM   31  H24 UNL     1       8.206   9.524 -10.221  1.00  0.00     0.222 HD
ENDBRANCH  28  30
BRANCH  28  32
HETATM   32  O10 UNL     1      11.017  10.079 -10.653  1.00  0.00    -0.294 OA
BRANCH  32  33
HETATM   33  C14 UNL     1      12.364  10.238 -10.294  1.00  0.00     0.215 C 
BRANCH  33  34
HETATM   34  C15 UNL     1      12.689   9.091  -9.339  1.00  0.00     0.180 C 
HETATM   35  C16 UNL     1      13.501   8.028 -10.066  1.00  0.00     0.197 C 
HETATM   36  C17 UNL     1      12.631   6.786 -10.025  1.00  0.00     0.199 C 
HETATM   37  C18 UNL     1      11.769   7.036  -8.786  1.00  0.00     0.262 C 
HETATM   38  O11 UNL     1      11.520   8.459  -8.806  1.00  0.00    -0.353 OA
BRANCH  35  39
HETATM   39  O13 UNL     1      14.726   7.849  -9.363  1.00  0.00    -0.286 OA
BRANCH  39  40
HETATM   40  P3  UNL     1      16.052   7.971 -10.246  1.00  0.00     0.391 P 
HETATM   41  O14 UNL     1      16.565   9.370 -10.374  1.00  0.00    -0.632 OA
BRANCH  40  42
HETATM   42  O15 UNL     1      15.590   7.228 -11.585  1.00  0.00    -0.307 OA
HETATM   43  H36 UNL     1      14.650   7.441 -11.796  1.00  0.00     0.222 HD
ENDBRANCH  40  42
BRANCH  40  44
HETATM   44  O16 UNL     1      16.997   6.901  -9.546  1.00  0.00    -0.307 OA
HETATM   45  H37 UNL     1      17.932   7.013  -9.781  1.00  0.00     0.222 HD
ENDBRANCH  40  44
ENDBRANCH  39  40
ENDBRANCH  35  39
BRANCH  36  46
HETATM   46  O12 UNL     1      13.446   5.610 -10.032  1.00  0.00    -0.388 OA
HETATM   47  H35 UNL     1      13.408   5.241  -9.118  1.00  0.00     0.210 HD
ENDBRANCH  36  46
BRANCH  37  48
HETATM   48  N3  UNL     1      10.500   6.339  -8.841  1.00  0.00    -0.297 N 
HETATM   49  C19 UNL     1       9.771   6.027  -9.965  1.00  0.00     0.188 A 
HETATM   50  N4  UNL     1       8.725   5.279  -9.689  1.00  0.00    -0.346 N 
HETATM   51  C20 UNL     1       8.780   5.094  -8.319  1.00  0.00     0.116 A 
HETATM   52  H4  UNL     1       8.028   4.917 -10.340  1.00  0.00     0.167 HD
HETATM   53  C21 UNL     1       7.982   4.361  -7.424  1.00  0.00     0.109 A 
HETATM   54  C23 UNL     1       9.853   5.778  -7.776  1.00  0.00     0.142 A 
HETATM   55  N5  UNL     1       8.295   4.386  -6.105  1.00  0.00    -0.341 N 
HETATM   56  C22 UNL     1       9.358   5.117  -5.716  1.00  0.00     0.183 A 
HETATM   57  H5  UNL     1       7.741   3.864  -5.426  1.00  0.00     0.167 HD
HETATM   58  N6  UNL     1      10.197   5.848  -6.478  1.00  0.00    -0.336 N 
HETATM   59  H6  UNL     1      10.988   6.382  -6.118  1.00  0.00     0.168 HD
BRANCH  53  60
HETATM   60  N7  UNL     1       6.879   3.619  -7.818  1.00  0.00    -0.287 NA
HETATM   61  H33 UNL     1       6.744   3.573  -8.825  1.00  0.00     0.125 HD
HETATM   62  H34 UNL     1       6.059   3.803  -7.256  1.00  0.00     0.125 HD
ENDBRANCH  53  60
ENDBRANCH  37  48
ENDBRANCH  33  34
ENDBRANCH  32  33
ENDBRANCH  28  32
ENDBRANCH  27  28
ENDBRANCH  23  27
ENDBRANCH  22  23
ENDBRANCH  21  22
ENDBRANCH  18  21
ENDBRANCH  17  18
BRANCH  17  63
HETATM   63  O17 UNL     1       4.621  11.913 -12.571  1.00  0.00    -0.385 OA
HETATM   64  H38 UNL     1       5.587  11.852 -12.485  1.00  0.00     0.210 HD
ENDBRANCH  17  63
ENDBRANCH  14  17
ENDBRANCH  12  13
ENDBRANCH  11  12
ENDBRANCH   8  11
ENDBRANCH   6   7
ENDBRANCH   5   6
ENDBRANCH   4   5
ENDBRANCH   2   4
TORSDOF 27
ENDMDL
MODEL 18
REMARK VINA RESULT:      -5.2      3.555      5.995
REMARK  27 active torsions:
REMARK  status: ('A' for Active; 'I' for Inactive)
REMARK    1  A    between atoms: C2_2  and  S1_4 
REMARK    2  A    between atoms: S1_4  and  C3_5 
REMARK    3  A    between atoms: C3_5  and  C4_6 
REMARK    4  A    between atoms: C4_6  and  N1_7 
REMARK       I    between atoms: N1_7  and  C5_8 
REMARK    5  A    between atoms: C5_8  and  C6_10 
REMARK    6  A    between atoms: C6_10  and  C7_11 
REMARK    7  A    between atoms: C7_11  and  N2_12 
REMARK       I    between atoms: N2_12  and  C8_13 
REMARK    8  A    between atoms: C8_13  and  C9_15 
REMARK    9  A    between atoms: C9_15  and  C10_16 
REMARK   10  A    between atoms: C9_15  and  O17_54 
REMARK   11  A    between atoms: C10_16  and  C13_19 
REMARK   12  A    between atoms: C13_19  and  O4_20 
REMARK   13  A    between atoms: O4_20  and  P1_21 
REMARK   14  A    between atoms: P1_21  and  O6_23 
REMARK   15  A    between atoms: P1_21  and  O7_24 
REMARK   16  A    between atoms: O7_24  and  P2_25 
REMARK   17  A    between atoms: P2_25  and  O9_27 
REMARK   18  A    between atoms: P2_25  and  O10_28 
REMARK   19  A    between atoms: O10_28  and  C14_29 
REMARK   20  A    between atoms: C14_29  and  C15_30 
REMARK   21  A    between atoms: C16_31  and  O13_49 
REMARK   22  A    between atoms: C17_32  and  O12_48 
REMARK   23  A    between atoms: C18_33  and  N3_35 
REMARK   24  A    between atoms: C21_40  and  N7_47 
REMARK   25  A    between atoms: O13_49  and  P3_50 
REMARK   26  A    between atoms: P3_50  and  O15_52 
REMARK   27  A    between atoms: P3_50  and  O16_53 
ROOT
HETATM    1  C1  UNL     1       8.554  13.091  -9.468  1.00  0.00     0.104 C 
HETATM    2  C2  UNL     1       9.823  13.862  -9.263  1.00  0.00     0.182 C 
HETATM    3  O1  UNL     1      10.583  14.166 -10.179  1.00  0.00    -0.286 OA
ENDROOT
BRANCH   2   4
HETATM    4  S1  UNL     1      10.161  14.269  -7.586  1.00  0.00    -0.091 SA
BRANCH   4   5
HETATM    5  C3  UNL     1      11.623  13.223  -7.289  1.00  0.00     0.102 C 
BRANCH   5   6
HETATM    6  C4  UNL     1      12.906  14.052  -7.190  1.00  0.00     0.133 C 
BRANCH   6   7
HETATM    7  N1  UNL     1      13.715  13.976  -8.389  1.00  0.00    -0.360 N 
HETATM    8  C5  UNL     1      15.011  13.517  -8.359  1.00  0.00     0.219 C 
HETATM    9  O2  UNL     1      15.584  13.224  -7.316  1.00  0.00    -0.274 OA
HETATM   10  H8  UNL     1      13.308  14.262  -9.269  1.00  0.00     0.162 HD
BRANCH   8  11
HETATM   11  C6  UNL     1      15.660  13.465  -9.725  1.00  0.00     0.122 C 
BRANCH  11  12
HETATM   12  C7  UNL     1      17.050  14.101  -9.722  1.00  0.00     0.132 C 
BRANCH  12  13
HETATM   13  N2  UNL     1      18.046  13.292 -10.392  1.00  0.00    -0.358 N 
HETATM   14  C8  UNL     1      18.743  12.325  -9.693  1.00  0.00     0.247 C 
HETATM   15  O3  UNL     1      18.638  12.194  -8.480  1.00  0.00    -0.271 OA
HETATM   16  H13 UNL     1      17.878  13.121 -11.382  1.00  0.00     0.162 HD
BRANCH  14  17
HETATM   17  C9  UNL     1      19.637  11.423 -10.558  1.00  0.00     0.219 C 
BRANCH  17  18
HETATM   18  C10 UNL     1      19.036  10.025 -10.862  1.00  0.00     0.009 C 
HETATM   19  C11 UNL     1      17.514  10.079 -11.058  1.00  0.00     0.020 C 
HETATM   20  C12 UNL     1      19.657   9.407 -12.131  1.00  0.00     0.020 C 
BRANCH  18  21
HETATM   21  C13 UNL     1      19.372   9.139  -9.628  1.00  0.00     0.192 C 
BRANCH  21  22
HETATM   22  O4  UNL     1      18.463   8.069  -9.470  1.00  0.00    -0.296 OA
BRANCH  22  23
HETATM   23  P1  UNL     1      17.736   7.742  -8.079  1.00  0.00     0.401 P 
HETATM   24  O5  UNL     1      18.494   8.195  -6.871  1.00  0.00    -0.631 OA
BRANCH  23  25
HETATM   25  O6  UNL     1      17.406   6.166  -8.085  1.00  0.00    -0.307 OA
HETATM   26  H23 UNL     1      17.146   5.848  -7.211  1.00  0.00     0.222 HD
ENDBRANCH  23  25
BRANCH  23  27
HETATM   27  O7  UNL     1      16.278   8.364  -8.221  1.00  0.00    -0.195 OA
BRANCH  27  28
HETATM   28  P2  UNL     1      15.122   7.845  -7.256  1.00  0.00     0.401 P 
HETATM   29  O8  UNL     1      15.547   7.195  -5.980  1.00  0.00    -0.631 OA
BRANCH  28  30
HETATM   30  O9  UNL     1      14.205   9.137  -7.055  1.00  0.00    -0.307 OA
HETATM   31  H24 UNL     1      13.243   8.937  -6.952  1.00  0.00     0.222 HD
ENDBRANCH  28  30
BRANCH  28  32
HETATM   32  O10 UNL     1      14.188   6.967  -8.208  1.00  0.00    -0.294 OA
BRANCH  32  33
HETATM   33  C14 UNL     1      14.457   6.897  -9.584  1.00  0.00     0.215 C 
BRANCH  33  34
HETATM   34  C15 UNL     1      13.126   7.144 -10.292  1.00  0.00     0.180 C 
HETATM   35  C16 UNL     1      12.533   8.468  -9.827  1.00  0.00     0.197 C 
HETATM   36  C17 UNL     1      11.222   8.090  -9.163  1.00  0.00     0.199 C 
HETATM   37  C18 UNL     1      10.880   6.767  -9.854  1.00  0.00     0.262 C 
HETATM   38  O11 UNL     1      12.158   6.119 -10.037  1.00  0.00    -0.353 OA
BRANCH  35  39
HETATM   39  O13 UNL     1      12.336   9.290 -10.973  1.00  0.00    -0.286 OA
BRANCH  39  40
HETATM   40  P3  UNL     1      13.158  10.661 -10.986  1.00  0.00     0.391 P 
HETATM   41  O14 UNL     1      13.632  11.066 -12.344  1.00  0.00    -0.632 OA
BRANCH  40  42
HETATM   42  O15 UNL     1      14.268  10.355  -9.875  1.00  0.00    -0.307 OA
HETATM   43  H36 UNL     1      15.115  10.076 -10.297  1.00  0.00     0.222 HD
ENDBRANCH  40  42
BRANCH  40  44
HETATM   44  O16 UNL     1      12.154  11.638 -10.235  1.00  0.00    -0.307 OA
HETATM   45  H37 UNL     1      11.727  11.222  -9.469  1.00  0.00     0.222 HD
ENDBRANCH  40  44
ENDBRANCH  39  40
ENDBRANCH  35  39
BRANCH  36  46
HETATM   46  O12 UNL     1      10.278   9.157  -9.285  1.00  0.00    -0.388 OA
HETATM   47  H35 UNL     1      10.476   9.607 -10.141  1.00  0.00     0.210 HD
ENDBRANCH  36  46
BRANCH  37  48
HETATM   48  N3  UNL     1      10.037   5.915  -9.039  1.00  0.00    -0.297 N 
HETATM   49  C19 UNL     1      10.421   4.802  -8.329  1.00  0.00     0.188 A 
HETATM   50  N4  UNL     1       9.446   4.322  -7.587  1.00  0.00    -0.346 N 
HETATM   51  C20 UNL     1       8.379   5.170  -7.825  1.00  0.00     0.116 A 
HETATM   52  H4  UNL     1       9.471   3.508  -6.974  1.00  0.00     0.167 HD
HETATM   53  C21 UNL     1       7.072   5.224  -7.310  1.00  0.00     0.109 A 
HETATM   54  C23 UNL     1       8.720   6.138  -8.752  1.00  0.00     0.142 A 
HETATM   55  N5  UNL     1       6.237   6.192  -7.759  1.00  0.00    -0.341 N 
HETATM   56  C22 UNL     1       6.700   7.055  -8.684  1.00  0.00     0.183 A 
HETATM   57  H5  UNL     1       5.282   6.265  -7.406  1.00  0.00     0.167 HD
HETATM   58  N6  UNL     1       7.927   7.107  -9.242  1.00  0.00    -0.336 N 
HETATM   59  H6  UNL     1       8.215   7.791  -9.942  1.00  0.00     0.168 HD
BRANCH  53  60
HETATM   60  N7  UNL     1       6.586   4.329  -6.369  1.00  0.00    -0.287 NA
HETATM   61  H33 UNL     1       5.895   4.723  -5.734  1.00  0.00     0.125 HD
HETATM   62  H34 UNL     1       7.311   3.758  -5.956  1.00  0.00     0.125 HD
ENDBRANCH  53  60
ENDBRANCH  37  48
ENDBRANCH  33  34
ENDBRANCH  32  33
ENDBRANCH  28  32
ENDBRANCH  27  28
ENDBRANCH  23  27
ENDBRANCH  22  23
ENDBRANCH  21  22
ENDBRANCH  18  21
ENDBRANCH  17  18
BRANCH  17  63
HETATM   63  O17 UNL     1      19.935  12.069 -11.800  1.00  0.00    -0.385 OA
HETATM   64  H38 UNL     1      20.115  13.007 -11.616  1.00  0.00     0.210 HD
ENDBRANCH  17  63
ENDBRANCH  14  17
ENDBRANCH  12  13
ENDBRANCH  11  12
ENDBRANCH   8  11
ENDBRANCH   6   7
ENDBRANCH   5   6
ENDBRANCH   4   5
ENDBRANCH   2   4
TORSDOF 27
ENDMDL
MODEL 19
REMARK VINA RESULT:      -5.1      4.551      7.561
REMARK  27 active torsions:
REMARK  status: ('A' for Active; 'I' for Inactive)
REMARK    1  A    between atoms: C2_2  and  S1_4 
REMARK    2  A    between atoms: S1_4  and  C3_5 
REMARK    3  A    between atoms: C3_5  and  C4_6 
REMARK    4  A    between atoms: C4_6  and  N1_7 
REMARK       I    between atoms: N1_7  and  C5_8 
REMARK    5  A    between atoms: C5_8  and  C6_10 
REMARK    6  A    between atoms: C6_10  and  C7_11 
REMARK    7  A    between atoms: C7_11  and  N2_12 
REMARK       I    between atoms: N2_12  and  C8_13 
REMARK    8  A    between atoms: C8_13  and  C9_15 
REMARK    9  A    between atoms: C9_15  and  C10_16 
REMARK   10  A    between atoms: C9_15  and  O17_54 
REMARK   11  A    between atoms: C10_16  and  C13_19 
REMARK   12  A    between atoms: C13_19  and  O4_20 
REMARK   13  A    between atoms: O4_20  and  P1_21 
REMARK   14  A    between atoms: P1_21  and  O6_23 
REMARK   15  A    between atoms: P1_21  and  O7_24 
REMARK   16  A    between atoms: O7_24  and  P2_25 
REMARK   17  A    between atoms: P2_25  and  O9_27 
REMARK   18  A    between atoms: P2_25  and  O10_28 
REMARK   19  A    between atoms: O10_28  and  C14_29 
REMARK   20  A    between atoms: C14_29  and  C15_30 
REMARK   21  A    between atoms: C16_31  and  O13_49 
REMARK   22  A    between atoms: C17_32  and  O12_48 
REMARK   23  A    between atoms: C18_33  and  N3_35 
REMARK   24  A    between atoms: C21_40  and  N7_47 
REMARK   25  A    between atoms: O13_49  and  P3_50 
REMARK   26  A    between atoms: P3_50  and  O15_52 
REMARK   27  A    between atoms: P3_50  and  O16_53 
ROOT
HETATM    1  C1  UNL     1       6.352   5.744  -5.675  1.00  0.00     0.104 C 
HETATM    2  C2  UNL     1       6.851   5.353  -7.032  1.00  0.00     0.182 C 
HETATM    3  O1  UNL     1       6.927   4.187  -7.412  1.00  0.00    -0.286 OA
ENDROOT
BRANCH   2   4
HETATM    4  S1  UNL     1       7.361   6.704  -8.034  1.00  0.00    -0.091 SA
BRANCH   4   5
HETATM    5  C3  UNL     1       5.850   7.722  -7.999  1.00  0.00     0.102 C 
BRANCH   5   6
HETATM    6  C4  UNL     1       5.142   7.739  -9.355  1.00  0.00     0.133 C 
BRANCH   6   7
HETATM    7  N1  UNL     1       4.656   9.055  -9.716  1.00  0.00    -0.360 N 
HETATM    8  C5  UNL     1       5.493  10.145  -9.770  1.00  0.00     0.219 C 
HETATM    9  O2  UNL     1       6.672  10.090  -9.440  1.00  0.00    -0.274 OA
HETATM   10  H8  UNL     1       3.677   9.167  -9.941  1.00  0.00     0.162 HD
BRANCH   8  11
HETATM   11  C6  UNL     1       4.798  11.412 -10.222  1.00  0.00     0.122 C 
BRANCH  11  12
HETATM   12  C7  UNL     1       5.624  12.179 -11.253  1.00  0.00     0.132 C 
BRANCH  12  13
HETATM   13  N2  UNL     1       6.906  12.616 -10.741  1.00  0.00    -0.358 N 
HETATM   14  C8  UNL     1       7.287  13.940 -10.856  1.00  0.00     0.247 C 
HETATM   15  O3  UNL     1       6.627  14.756 -11.487  1.00  0.00    -0.271 OA
HETATM   16  H13 UNL     1       7.256  12.099  -9.938  1.00  0.00     0.162 HD
BRANCH  14  17
HETATM   17  C9  UNL     1       8.585  14.303 -10.118  1.00  0.00     0.219 C 
BRANCH  17  18
HETATM   18  C10 UNL     1       8.405  14.584  -8.603  1.00  0.00     0.009 C 
HETATM   19  C11 UNL     1       7.143  15.409  -8.313  1.00  0.00     0.020 C 
HETATM   20  C12 UNL     1       8.314  13.275  -7.793  1.00  0.00     0.020 C 
BRANCH  18  21
HETATM   21  C13 UNL     1       9.665  15.385  -8.165  1.00  0.00     0.192 C 
BRANCH  21  22
HETATM   22  O4  UNL     1      10.399  14.723  -7.155  1.00  0.00    -0.296 OA
BRANCH  22  23
HETATM   23  P1  UNL     1      11.910  14.227  -7.359  1.00  0.00     0.401 P 
HETATM   24  O5  UNL     1      12.463  13.456  -6.203  1.00  0.00    -0.631 OA
BRANCH  23  25
HETATM   25  O6  UNL     1      12.778  15.527  -7.748  1.00  0.00    -0.307 OA
HETATM   26  H23 UNL     1      13.174  15.942  -6.971  1.00  0.00     0.222 HD
ENDBRANCH  23  25
BRANCH  23  27
HETATM   27  O7  UNL     1      11.900  13.438  -8.741  1.00  0.00    -0.195 OA
BRANCH  27  28
HETATM   28  P2  UNL     1      13.216  13.443  -9.640  1.00  0.00     0.401 P 
HETATM   29  O8  UNL     1      13.421  14.623 -10.532  1.00  0.00    -0.631 OA
BRANCH  28  30
HETATM   30  O9  UNL     1      14.386  13.218  -8.577  1.00  0.00    -0.307 OA
HETATM   31  H24 UNL     1      14.091  12.790  -7.736  1.00  0.00     0.222 HD
ENDBRANCH  28  30
BRANCH  28  32
HETATM   32  O10 UNL     1      13.195  12.018 -10.361  1.00  0.00    -0.294 OA
BRANCH  32  33
HETATM   33  C14 UNL     1      12.749  10.884  -9.663  1.00  0.00     0.215 C 
BRANCH  33  34
HETATM   34  C15 UNL     1      13.851   9.836  -9.803  1.00  0.00     0.180 C 
HETATM   35  C16 UNL     1      13.634   8.721  -8.788  1.00  0.00     0.197 C 
HETATM   36  C17 UNL     1      14.862   8.767  -7.899  1.00  0.00     0.199 C 
HETATM   37  C18 UNL     1      15.907   9.399  -8.822  1.00  0.00     0.262 C 
HETATM   38  O11 UNL     1      15.162  10.371  -9.589  1.00  0.00    -0.353 OA
BRANCH  35  39
HETATM   39  O13 UNL     1      13.532   7.492  -9.499  1.00  0.00    -0.286 OA
BRANCH  39  40
HETATM   40  P3  UNL     1      12.063   6.866  -9.585  1.00  0.00     0.391 P 
HETATM   41  O14 UNL     1      10.977   7.824  -9.216  1.00  0.00    -0.632 OA
BRANCH  40  42
HETATM   42  O15 UNL     1      12.240   5.561  -8.677  1.00  0.00    -0.307 OA
HETATM   43  H36 UNL     1      12.604   5.799  -7.792  1.00  0.00     0.222 HD
ENDBRANCH  40  42
BRANCH  40  44
HETATM   44  O16 UNL     1      12.056   6.280 -11.064  1.00  0.00    -0.307 OA
HETATM   45  H37 UNL     1      11.763   5.356 -11.101  1.00  0.00     0.222 HD
ENDBRANCH  40  44
ENDBRANCH  39  40
ENDBRANCH  35  39
BRANCH  36  46
HETATM   46  O12 UNL     1      15.147   7.466  -7.379  1.00  0.00    -0.388 OA
HETATM   47  H35 UNL     1      15.680   7.002  -8.068  1.00  0.00     0.210 HD
ENDBRANCH  36  46
BRANCH  37  48
HETATM   48  N3  UNL     1      16.954  10.085  -8.091  1.00  0.00    -0.297 N 
HETATM   49  C19 UNL     1      17.034  11.431  -7.820  1.00  0.00     0.188 A 
HETATM   50  N4  UNL     1      18.041  11.720  -7.027  1.00  0.00    -0.346 N 
HETATM   51  C20 UNL     1      18.642  10.501  -6.766  1.00  0.00     0.116 A 
HETATM   52  H4  UNL     1      18.319  12.639  -6.680  1.00  0.00     0.167 HD
HETATM   53  C21 UNL     1      19.732  10.129  -5.961  1.00  0.00     0.109 A 
HETATM   54  C23 UNL     1      18.002   9.485  -7.451  1.00  0.00     0.142 A 
HETATM   55  N5  UNL     1      20.093   8.823  -5.920  1.00  0.00    -0.341 N 
HETATM   56  C22 UNL     1      19.390   7.943  -6.661  1.00  0.00     0.183 A 
HETATM   57  H5  UNL     1      20.876   8.514  -5.345  1.00  0.00     0.167 HD
HETATM   58  N6  UNL     1      18.328   8.180  -7.459  1.00  0.00    -0.336 N 
HETATM   59  H6  UNL     1      17.838   7.465  -7.996  1.00  0.00     0.168 HD
BRANCH  53  60
HETATM   60  N7  UNL     1      20.468  11.031  -5.209  1.00  0.00    -0.287 NA
HETATM   61  H33 UNL     1      20.254  12.008  -5.400  1.00  0.00     0.125 HD
HETATM   62  H34 UNL     1      21.446  10.784  -5.141  1.00  0.00     0.125 HD
ENDBRANCH  53  60
ENDBRANCH  37  48
ENDBRANCH  33  34
ENDBRANCH  32  33
ENDBRANCH  28  32
ENDBRANCH  27  28
ENDBRANCH  23  27
ENDBRANCH  22  23
ENDBRANCH  21  22
ENDBRANCH  18  21
ENDBRANCH  17  18
BRANCH  17  63
HETATM   63  O17 UNL     1       9.550  13.258 -10.276  1.00  0.00    -0.385 OA
HETATM   64  H38 UNL     1       9.353  12.565  -9.624  1.00  0.00     0.210 HD
ENDBRANCH  17  63
ENDBRANCH  14  17
ENDBRANCH  12  13
ENDBRANCH  11  12
ENDBRANCH   8  11
ENDBRANCH   6   7
ENDBRANCH   5   6
ENDBRANCH   4   5
ENDBRANCH   2   4
TORSDOF 27
ENDMDL
MODEL 20
REMARK VINA RESULT:      -5.0      7.157     10.439
REMARK  27 active torsions:
REMARK  status: ('A' for Active; 'I' for Inactive)
REMARK    1  A    between atoms: C2_2  and  S1_4 
REMARK    2  A    between atoms: S1_4  and  C3_5 
REMARK    3  A    between atoms: C3_5  and  C4_6 
REMARK    4  A    between atoms: C4_6  and  N1_7 
REMARK       I    between atoms: N1_7  and  C5_8 
REMARK    5  A    between atoms: C5_8  and  C6_10 
REMARK    6  A    between atoms: C6_10  and  C7_11 
REMARK    7  A    between atoms: C7_11  and  N2_12 
REMARK       I    between atoms: N2_12  and  C8_13 
REMARK    8  A    between atoms: C8_13  and  C9_15 
REMARK    9  A    between atoms: C9_15  and  C10_16 
REMARK   10  A    between atoms: C9_15  and  O17_54 
REMARK   11  A    between atoms: C10_16  and  C13_19 
REMARK   12  A    between atoms: C13_19  and  O4_20 
REMARK   13  A    between atoms: O4_20  and  P1_21 
REMARK   14  A    between atoms: P1_21  and  O6_23 
REMARK   15  A    between atoms: P1_21  and  O7_24 
REMARK   16  A    between atoms: O7_24  and  P2_25 
REMARK   17  A    between atoms: P2_25  and  O9_27 
REMARK   18  A    between atoms: P2_25  and  O10_28 
REMARK   19  A    between atoms: O10_28  and  C14_29 
REMARK   20  A    between atoms: C14_29  and  C15_30 
REMARK   21  A    between atoms: C16_31  and  O13_49 
REMARK   22  A    between atoms: C17_32  and  O12_48 
REMARK   23  A    between atoms: C18_33  and  N3_35 
REMARK   24  A    between atoms: C21_40  and  N7_47 
REMARK   25  A    between atoms: O13_49  and  P3_50 
REMARK   26  A    between atoms: P3_50  and  O15_52 
REMARK   27  A    between atoms: P3_50  and  O16_53 
ROOT
HETATM    1  C1  UNL     1       2.597   7.299 -13.153  1.00  0.00     0.104 C 
HETATM    2  C2  UNL     1       1.521   7.168 -12.119  1.00  0.00     0.182 C 
HETATM    3  O1  UNL     1       1.750   7.061 -10.917  1.00  0.00    -0.286 OA
ENDROOT
BRANCH   2   4
HETATM    4  S1  UNL     1      -0.112   7.140 -12.771  1.00  0.00    -0.091 SA
BRANCH   4   5
HETATM    5  C3  UNL     1       0.031   8.421 -14.058  1.00  0.00     0.102 C 
BRANCH   5   6
HETATM    6  C4  UNL     1      -1.270   9.210 -14.223  1.00  0.00     0.133 C 
BRANCH   6   7
HETATM    7  N1  UNL     1      -1.255  10.470 -13.508  1.00  0.00    -0.360 N 
HETATM    8  C5  UNL     1      -1.428  11.672 -14.154  1.00  0.00     0.219 C 
HETATM    9  O2  UNL     1      -1.524  11.758 -15.373  1.00  0.00    -0.274 OA
HETATM   10  H8  UNL     1      -1.120  10.459 -12.506  1.00  0.00     0.162 HD
BRANCH   8  11
HETATM   11  C6  UNL     1      -1.434  12.860 -13.218  1.00  0.00     0.122 C 
BRANCH  11  12
HETATM   12  C7  UNL     1      -0.247  13.790 -13.467  1.00  0.00     0.132 C 
BRANCH  12  13
HETATM   13  N2  UNL     1       0.814  13.164 -14.228  1.00  0.00    -0.358 N 
HETATM   14  C8  UNL     1       2.112  13.172 -13.752  1.00  0.00     0.247 C 
HETATM   15  O3  UNL     1       2.434  13.796 -12.749  1.00  0.00    -0.271 OA
HETATM   16  H13 UNL     1       0.532  12.370 -14.801  1.00  0.00     0.162 HD
BRANCH  14  17
HETATM   17  C9  UNL     1       3.101  12.324 -14.565  1.00  0.00     0.219 C 
BRANCH  17  18
HETATM   18  C10 UNL     1       4.180  13.143 -15.321  1.00  0.00     0.009 C 
HETATM   19  C11 UNL     1       5.107  12.247 -16.155  1.00  0.00     0.020 C 
HETATM   20  C12 UNL     1       3.542  14.179 -16.267  1.00  0.00     0.020 C 
BRANCH  18  21
HETATM   21  C13 UNL     1       5.007  13.873 -14.224  1.00  0.00     0.192 C 
BRANCH  21  22
HETATM   22  O4  UNL     1       5.965  13.028 -13.620  1.00  0.00    -0.296 OA
BRANCH  22  23
HETATM   23  P1  UNL     1       6.281  13.054 -12.048  1.00  0.00     0.401 P 
HETATM   24  O5  UNL     1       7.249  12.005 -11.601  1.00  0.00    -0.631 OA
BRANCH  23  25
HETATM   25  O6  UNL     1       4.864  12.998 -11.287  1.00  0.00    -0.307 OA
HETATM   26  H23 UNL     1       4.540  12.093 -11.192  1.00  0.00     0.222 HD
ENDBRANCH  23  25
BRANCH  23  27
HETATM   27  O7  UNL     1       6.735  14.549 -11.746  1.00  0.00    -0.195 OA
BRANCH  27  28
HETATM   28  P2  UNL     1       7.409  14.880 -10.341  1.00  0.00     0.401 P 
HETATM   29  O8  UNL     1       7.252  16.274  -9.826  1.00  0.00    -0.631 OA
BRANCH  28  30
HETATM   30  O9  UNL     1       6.811  13.758  -9.374  1.00  0.00    -0.307 OA
HETATM   31  H24 UNL     1       5.923  13.422  -9.647  1.00  0.00     0.222 HD
ENDBRANCH  28  30
BRANCH  28  32
HETATM   32  O10 UNL     1       8.910  14.361 -10.501  1.00  0.00    -0.294 OA
BRANCH  32  33
HETATM   33  C14 UNL     1       9.865  14.657  -9.515  1.00  0.00     0.215 C 
BRANCH  33  34
HETATM   34  C15 UNL     1       9.916  13.442  -8.591  1.00  0.00     0.180 C 
HETATM   35  C16 UNL     1      10.098  13.899  -7.149  1.00  0.00     0.197 C 
HETATM   36  C17 UNL     1      11.428  13.306  -6.724  1.00  0.00     0.199 C 
HETATM   37  C18 UNL     1      11.555  12.096  -7.653  1.00  0.00     0.262 C 
HETATM   38  O11 UNL     1      10.989  12.546  -8.904  1.00  0.00    -0.353 OA
BRANCH  35  39
HETATM   39  O13 UNL     1       9.013  13.386  -6.384  1.00  0.00    -0.286 OA
BRANCH  39  40
HETATM   40  P3  UNL     1       8.075  14.484  -5.697  1.00  0.00     0.391 P 
HETATM   41  O14 UNL     1       7.160  15.178  -6.653  1.00  0.00    -0.632 OA
BRANCH  40  42
HETATM   42  O15 UNL     1       9.164  15.374  -4.935  1.00  0.00    -0.307 OA
HETATM   43  H36 UNL     1       9.512  14.898  -4.144  1.00  0.00     0.222 HD
ENDBRANCH  40  42
BRANCH  40  44
HETATM   44  O16 UNL     1       7.411  13.641  -4.523  1.00  0.00    -0.307 OA
HETATM   45  H37 UNL     1       8.067  13.238  -3.932  1.00  0.00     0.222 HD
ENDBRANCH  40  44
ENDBRANCH  39  40
ENDBRANCH  35  39
BRANCH  36  46
HETATM   46  O12 UNL     1      11.432  13.056  -5.316  1.00  0.00    -0.388 OA
HETATM   47  H35 UNL     1      10.694  12.425  -5.144  1.00  0.00     0.210 HD
ENDBRANCH  36  46
BRANCH  37  48
HETATM   48  N3  UNL     1      12.933  11.709  -7.878  1.00  0.00    -0.297 N 
HETATM   49  C19 UNL     1      13.992  12.537  -8.167  1.00  0.00     0.188 A 
HETATM   50  N4  UNL     1      15.138  11.891  -8.188  1.00  0.00    -0.346 N 
HETATM   51  C20 UNL     1      14.806  10.581  -7.893  1.00  0.00     0.116 A 
HETATM   52  H4  UNL     1      16.065  12.272  -8.379  1.00  0.00     0.167 HD
HETATM   53  C21 UNL     1      15.577   9.418  -7.724  1.00  0.00     0.109 A 
HETATM   54  C23 UNL     1      13.438  10.447  -7.737  1.00  0.00     0.142 A 
HETATM   55  N5  UNL     1      14.941   8.254  -7.442  1.00  0.00    -0.341 N 
HETATM   56  C22 UNL     1      13.597   8.268  -7.343  1.00  0.00     0.183 A 
HETATM   57  H5  UNL     1      15.467   7.390  -7.310  1.00  0.00     0.167 HD
HETATM   58  N6  UNL     1      12.759   9.316  -7.475  1.00  0.00    -0.336 N 
HETATM   59  H6  UNL     1      11.744   9.260  -7.387  1.00  0.00     0.168 HD
BRANCH  53  60
HETATM   60  N7  UNL     1      16.957   9.394  -7.840  1.00  0.00    -0.287 NA
HETATM   61  H33 UNL     1      17.415   8.695  -7.260  1.00  0.00     0.125 HD
HETATM   62  H34 UNL     1      17.368  10.318  -7.849  1.00  0.00     0.125 HD
ENDBRANCH  53  60
ENDBRANCH  37  48
ENDBRANCH  33  34
ENDBRANCH  32  33
ENDBRANCH  28  32
ENDBRANCH  27  28
ENDBRANCH  23  27
ENDBRANCH  22  23
ENDBRANCH  21  22
ENDBRANCH  18  21
ENDBRANCH  17  18
BRANCH  17  63
HETATM   63  O17 UNL     1       3.761  11.382 -13.711  1.00  0.00    -0.385 OA
HETATM   64  H38 UNL     1       3.841  10.542 -14.193  1.00  0.00     0.210 HD
ENDBRANCH  17  63
ENDBRANCH  14  17
ENDBRANCH  12  13
ENDBRANCH  11  12
ENDBRANCH   8  11
ENDBRANCH   6   7
ENDBRANCH   5   6
ENDBRANCH   4   5
ENDBRANCH   2   4
TORSDOF 27
ENDMDL
