HETATM    1  C1  PAP L   1      -8.658  11.265   6.044  1.00  0.00     0.026 A 
HETATM    2  C2  PAP L   1      -9.408  11.897   7.040  1.00  0.00     0.038 A 
HETATM    3  C3  PAP L   1      -9.435  11.365   8.322  1.00  0.00     0.065 A 
HETATM    4  C4  PAP L   1      -8.709  10.220   8.629  1.00  0.00     0.038 A 
HETATM    5  C5  PAP L   1      -7.961   9.593   7.627  1.00  0.00     0.026 A 
HETATM    6  C6  PAP L   1      -7.969  10.080   6.316  1.00  0.00     0.005 A 
HETATM    7  N1  PAP L   1      -7.125   9.518   5.351  1.00  0.00    -0.303 NA
HETATM    8  H5  PAP L   1      -7.495   9.566   4.408  1.00  0.00     0.124 HD
HETATM    9  H6  PAP L   1      -6.793   8.588   5.587  1.00  0.00     0.124 HD
HETATM   10  O1  PAP L   1     -10.176  12.011   9.265  1.00  0.00    -0.361 OA
HETATM   11  H7  PAP L   1      -9.714  11.952  10.117  1.00  0.00     0.217 HD
HETATM    1  C1  PAP L   1      -8.160   9.835   7.332  1.00  0.00     0.026 A 
HETATM    2  C2  PAP L   1      -9.338  10.135   8.022  1.00  0.00     0.038 A 
HETATM    3  C3  PAP L   1     -10.483  10.470   7.313  1.00  0.00     0.065 A 
HETATM    4  C4  PAP L   1     -10.474  10.495   5.923  1.00  0.00     0.038 A 
HETATM    5  C5  PAP L   1      -9.292  10.194   5.239  1.00  0.00     0.026 A 
HETATM    6  C6  PAP L   1      -8.112   9.912   5.937  1.00  0.00     0.005 A 
HETATM    7  N1  PAP L   1      -6.968   9.497   5.246  1.00  0.00    -0.303 NA
HETATM    8  H5  PAP L   1      -7.075   8.601   4.782  1.00  0.00     0.124 HD
HETATM    9  H6  PAP L   1      -6.116   9.548   5.796  1.00  0.00     0.124 HD
HETATM   10  O1  PAP L   1     -11.612  10.754   8.021  1.00  0.00    -0.361 OA
HETATM   11  H7  PAP L   1     -11.699  10.106   8.739  1.00  0.00     0.217 HD
HETATM    1  C1  PAP L   1      -8.530  13.531   8.416  1.00  0.00     0.026 A 
HETATM    2  C2  PAP L   1      -8.917  12.385   9.115  1.00  0.00     0.038 A 
HETATM    3  C3  PAP L   1      -9.140  11.202   8.425  1.00  0.00     0.065 A 
HETATM    4  C4  PAP L   1      -8.967  11.142   7.047  1.00  0.00     0.038 A 
HETATM    5  C5  PAP L   1      -8.580  12.293   6.354  1.00  0.00     0.026 A 
HETATM    6  C6  PAP L   1      -8.407  13.509   7.024  1.00  0.00     0.005 A 
HETATM    7  N1  PAP L   1      -7.905  14.623   6.342  1.00  0.00    -0.303 NA
HETATM    8  H5  PAP L   1      -8.582  15.066   5.729  1.00  0.00     0.124 HD
HETATM    9  H6  PAP L   1      -7.018  14.456   5.879  1.00  0.00     0.124 HD
HETATM   10  O1  PAP L   1      -9.515  10.106   9.143  1.00  0.00    -0.361 OA
HETATM   11  H7  PAP L   1     -10.483  10.039   9.124  1.00  0.00     0.217 HD
HETATM    1  C1  PAP L   1      -8.291  10.690   5.875  1.00  0.00     0.026 A 
HETATM    2  C2  PAP L   1      -8.164   9.579   6.713  1.00  0.00     0.038 A 
HETATM    3  C3  PAP L   1      -8.448   9.703   8.066  1.00  0.00     0.065 A 
HETATM    4  C4  PAP L   1      -8.874  10.918   8.592  1.00  0.00     0.038 A 
HETATM    5  C5  PAP L   1      -8.998  12.025   7.747  1.00  0.00     0.026 A 
HETATM    6  C6  PAP L   1      -8.659  11.935   6.393  1.00  0.00     0.005 A 
HETATM    7  N1  PAP L   1      -8.900  13.013   5.534  1.00  0.00    -0.303 NA
HETATM    8  H5  PAP L   1      -9.853  13.359   5.571  1.00  0.00     0.124 HD
HETATM    9  H6  PAP L   1      -8.582  12.858   4.582  1.00  0.00     0.124 HD
HETATM   10  O1  PAP L   1      -8.315   8.597   8.850  1.00  0.00    -0.361 OA
HETATM   11  H7  PAP L   1      -8.984   7.946   8.585  1.00  0.00     0.217 HD
HETATM    1  C1  PAP L   1      -8.917  10.955   8.539  1.00  0.00     0.026 A 
HETATM    2  C2  PAP L   1      -8.996  12.061   7.689  1.00  0.00     0.038 A 
HETATM    3  C3  PAP L   1      -8.674  11.919   6.346  1.00  0.00     0.065 A 
HETATM    4  C4  PAP L   1      -8.291  10.684   5.835  1.00  0.00     0.038 A 
HETATM    5  C5  PAP L   1      -8.214   9.582   6.693  1.00  0.00     0.026 A 
HETATM    6  C6  PAP L   1      -8.476   9.717   8.060  1.00  0.00     0.005 A 
HETATM    7  N1  PAP L   1      -8.513   8.588   8.885  1.00  0.00    -0.303 NA
HETATM    8  H5  PAP L   1      -9.450   8.239   9.058  1.00  0.00     0.124 HD
HETATM    9  H6  PAP L   1      -7.974   8.686   9.740  1.00  0.00     0.124 HD
HETATM   10  O1  PAP L   1      -8.766  13.020   5.549  1.00  0.00    -0.361 OA
HETATM   11  H7  PAP L   1      -9.600  12.978   5.055  1.00  0.00     0.217 HD
HETATM    1  C1  PAP L   1      -8.723  11.877   6.513  1.00  0.00     0.026 A 
HETATM    2  C2  PAP L   1      -8.667  13.121   7.145  1.00  0.00     0.038 A 
HETATM    3  C3  PAP L   1      -8.680  13.189   8.532  1.00  0.00     0.065 A 
HETATM    4  C4  PAP L   1      -8.732  12.029   9.297  1.00  0.00     0.038 A 
HETATM    5  C5  PAP L   1      -8.790  10.787   8.657  1.00  0.00     0.026 A 
HETATM    6  C6  PAP L   1      -8.837  10.702   7.262  1.00  0.00     0.005 A 
HETATM    7  N1  PAP L   1      -8.773   9.454   6.630  1.00  0.00    -0.303 NA
HETATM    8  H5  PAP L   1      -8.921   8.671   7.258  1.00  0.00     0.124 HD
HETATM    9  H6  PAP L   1      -7.952   9.331   6.046  1.00  0.00     0.124 HD
HETATM   10  O1  PAP L   1      -8.621  14.421   9.111  1.00  0.00    -0.361 OA
HETATM   11  H7  PAP L   1      -9.521  14.779   9.170  1.00  0.00     0.217 HD
HETATM    1  C1  PAP L   1      -8.551  11.137   5.985  1.00  0.00     0.026 A 
HETATM    2  C2  PAP L   1      -8.854   9.787   6.185  1.00  0.00     0.038 A 
HETATM    3  C3  PAP L   1     -10.068   9.282   5.741  1.00  0.00     0.065 A 
HETATM    4  C4  PAP L   1     -10.980  10.102   5.086  1.00  0.00     0.038 A 
HETATM    5  C5  PAP L   1     -10.671  11.451   4.891  1.00  0.00     0.026 A 
HETATM    6  C6  PAP L   1      -9.478  11.993   5.382  1.00  0.00     0.005 A 
HETATM    7  N1  PAP L   1      -9.125  13.312   5.077  1.00  0.00    -0.303 NA
HETATM    8  H5  PAP L   1      -8.353  13.387   4.423  1.00  0.00     0.124 HD
HETATM    9  H6  PAP L   1      -8.998  13.902   5.893  1.00  0.00     0.124 HD
HETATM   10  O1  PAP L   1     -10.325   7.961   5.953  1.00  0.00    -0.361 OA
HETATM   11  H7  PAP L   1     -11.124   7.717   5.458  1.00  0.00     0.217 HD
HETATM    1  C1  PAP L   1      -8.670  13.628   8.992  1.00  0.00     0.026 A 
HETATM    2  C2  PAP L   1      -8.616  13.616   7.595  1.00  0.00     0.038 A 
HETATM    3  C3  PAP L   1      -8.742  12.414   6.913  1.00  0.00     0.065 A 
HETATM    4  C4  PAP L   1      -8.939  11.223   7.604  1.00  0.00     0.038 A 
HETATM    5  C5  PAP L   1      -8.991  11.243   9.001  1.00  0.00     0.026 A 
HETATM    6  C6  PAP L   1      -8.807  12.436   9.709  1.00  0.00     0.005 A 
HETATM    7  N1  PAP L   1      -8.980  12.465  11.098  1.00  0.00    -0.303 NA
HETATM    8  H5  PAP L   1      -9.381  11.613  11.476  1.00  0.00     0.124 HD
HETATM    9  H6  PAP L   1      -9.452  13.297  11.435  1.00  0.00     0.124 HD
HETATM   10  O1  PAP L   1      -8.686  12.444   5.552  1.00  0.00    -0.361 OA
HETATM   11  H7  PAP L   1      -8.083  11.746   5.251  1.00  0.00     0.217 HD
HETATM    1  C1  PAP L   1      -8.721  12.792   6.837  1.00  0.00     0.026 A 
HETATM    2  C2  PAP L   1      -8.741  11.463   6.407  1.00  0.00     0.038 A 
HETATM    3  C3  PAP L   1      -8.771  10.438   7.343  1.00  0.00     0.065 A 
HETATM    4  C4  PAP L   1      -8.798  10.722   8.704  1.00  0.00     0.038 A 
HETATM    5  C5  PAP L   1      -8.777  12.054   9.126  1.00  0.00     0.026 A 
HETATM    6  C6  PAP L   1      -8.687  13.099   8.200  1.00  0.00     0.005 A 
HETATM    7  N1  PAP L   1      -8.788  14.429   8.626  1.00  0.00    -0.303 NA
HETATM    8  H5  PAP L   1      -8.703  14.542   9.631  1.00  0.00     0.124 HD
HETATM    9  H6  PAP L   1      -9.591  14.921   8.249  1.00  0.00     0.124 HD
HETATM   10  O1  PAP L   1      -8.792   9.155   6.884  1.00  0.00    -0.361 OA
HETATM   11  H7  PAP L   1      -8.260   8.604   7.480  1.00  0.00     0.217 HD
HETATM    1  C1  PAP L   1      -9.392  11.745   6.997  1.00  0.00     0.026 A 
HETATM    2  C2  PAP L   1      -8.605  11.152   6.006  1.00  0.00     0.038 A 
HETATM    3  C3  PAP L   1      -7.822  10.049   6.319  1.00  0.00     0.065 A 
HETATM    4  C4  PAP L   1      -7.825   9.520   7.605  1.00  0.00     0.038 A 
HETATM    5  C5  PAP L   1      -8.614  10.120   8.591  1.00  0.00     0.026 A 
HETATM    6  C6  PAP L   1      -9.365  11.266   8.310  1.00  0.00     0.005 A 
HETATM    7  N1  PAP L   1     -10.242  11.787   9.268  1.00  0.00    -0.303 NA
HETATM    8  H5  PAP L   1     -10.727  12.625   8.965  1.00  0.00     0.124 HD
HETATM    9  H6  PAP L   1      -9.828  11.892  10.189  1.00  0.00     0.124 HD
HETATM   10  O1  PAP L   1      -7.070   9.498   5.326  1.00  0.00    -0.361 OA
HETATM   11  H7  PAP L   1      -7.272   9.954   4.494  1.00  0.00     0.217 HD
HETATM    1  C1  PAP L   1      -8.639  11.677   9.126  1.00  0.00     0.026 A 
HETATM    2  C2  PAP L   1      -8.627  10.416   8.523  1.00  0.00     0.038 A 
HETATM    3  C3  PAP L   1      -8.667  10.316   7.139  1.00  0.00     0.065 A 
HETATM    4  C4  PAP L   1      -8.702  11.457   6.346  1.00  0.00     0.038 A 
HETATM    5  C5  PAP L   1      -8.714  12.715   6.956  1.00  0.00     0.026 A 
HETATM    6  C6  PAP L   1      -8.734  12.836   8.350  1.00  0.00     0.005 A 
HETATM    7  N1  PAP L   1      -8.626  14.096   8.949  1.00  0.00    -0.303 NA
HETATM    8  H5  PAP L   1      -7.694  14.494   8.896  1.00  0.00     0.124 HD
HETATM    9  H6  PAP L   1      -9.011  14.139   9.887  1.00  0.00     0.124 HD
HETATM   10  O1  PAP L   1      -8.651   9.069   6.589  1.00  0.00    -0.361 OA
HETATM   11  H7  PAP L   1      -9.068   8.451   7.211  1.00  0.00     0.217 HD
HETATM    1  C1  PAP L   1      -8.909  11.243   7.692  1.00  0.00     0.026 A 
HETATM    2  C2  PAP L   1      -8.930  11.269   9.089  1.00  0.00     0.038 A 
HETATM    3  C3  PAP L   1      -8.815  12.481   9.755  1.00  0.00     0.065 A 
HETATM    4  C4  PAP L   1      -8.696  13.671   9.046  1.00  0.00     0.038 A 
HETATM    5  C5  PAP L   1      -8.675  13.637   7.648  1.00  0.00     0.026 A 
HETATM    6  C6  PAP L   1      -8.730  12.420   6.960  1.00  0.00     0.005 A 
HETATM    7  N1  PAP L   1      -8.828  12.404   5.564  1.00  0.00    -0.303 NA
HETATM    8  H5  PAP L   1      -9.467  11.701   5.208  1.00  0.00     0.124 HD
HETATM    9  H6  PAP L   1      -7.932  12.386   5.089  1.00  0.00     0.124 HD
HETATM   10  O1  PAP L   1      -8.842  12.466  11.117  1.00  0.00    -0.361 OA
HETATM   11  H7  PAP L   1      -8.035  12.034  11.439  1.00  0.00     0.217 HD
HETATM    1  C1  PAP L   1     -11.179  10.457   5.090  1.00  0.00     0.026 A 
HETATM    2  C2  PAP L   1     -10.476  11.655   5.246  1.00  0.00     0.038 A 
HETATM    3  C3  PAP L   1      -9.155  11.626   5.671  1.00  0.00     0.065 A 
HETATM    4  C4  PAP L   1      -8.519  10.416   5.928  1.00  0.00     0.038 A 
HETATM    5  C5  PAP L   1      -9.230   9.222   5.772  1.00  0.00     0.026 A 
HETATM    6  C6  PAP L   1     -10.579   9.233   5.401  1.00  0.00     0.005 A 
HETATM    7  N1  PAP L   1     -11.246   8.033   5.131  1.00  0.00    -0.303 NA
HETATM    8  H5  PAP L   1     -10.624   7.262   4.911  1.00  0.00     0.124 HD
HETATM    9  H6  PAP L   1     -12.000   8.125   4.459  1.00  0.00     0.124 HD
HETATM   10  O1  PAP L   1      -8.502  12.814   5.808  1.00  0.00    -0.361 OA
HETATM   11  H7  PAP L   1      -7.618  12.729   5.417  1.00  0.00     0.217 HD
HETATM    1  C1  PAP L   1      -9.212  12.103   8.848  1.00  0.00     0.026 A 
HETATM    2  C2  PAP L   1      -8.567  13.226   8.323  1.00  0.00     0.038 A 
HETATM    3  C3  PAP L   1      -8.309  13.297   6.961  1.00  0.00     0.065 A 
HETATM    4  C4  PAP L   1      -8.700  12.268   6.112  1.00  0.00     0.038 A 
HETATM    5  C5  PAP L   1      -9.344  11.147   6.645  1.00  0.00     0.026 A 
HETATM    6  C6  PAP L   1      -9.560  11.031   8.022  1.00  0.00     0.005 A 
HETATM    7  N1  PAP L   1     -10.310   9.964   8.530  1.00  0.00    -0.303 NA
HETATM    8  H5  PAP L   1      -9.859   9.479   9.299  1.00  0.00     0.124 HD
HETATM    9  H6  PAP L   1     -10.650   9.325   7.818  1.00  0.00     0.124 HD
HETATM   10  O1  PAP L   1      -7.681  14.409   6.487  1.00  0.00    -0.361 OA
HETATM   11  H7  PAP L   1      -7.351  14.222   5.594  1.00  0.00     0.217 HD
HETATM    1  C1  PAP L   1      -8.747  12.499  10.329  1.00  0.00     0.026 A 
HETATM    2  C2  PAP L   1      -8.907  11.364   9.529  1.00  0.00     0.038 A 
HETATM    3  C3  PAP L   1      -8.986  11.501   8.150  1.00  0.00     0.065 A 
HETATM    4  C4  PAP L   1      -8.891  12.754   7.555  1.00  0.00     0.038 A 
HETATM    5  C5  PAP L   1      -8.731  13.885   8.362  1.00  0.00     0.026 A 
HETATM    6  C6  PAP L   1      -8.708  13.774   9.756  1.00  0.00     0.005 A 
HETATM    7  N1  PAP L   1      -8.429  14.894  10.547  1.00  0.00    -0.303 NA
HETATM    8  H5  PAP L   1      -7.701  14.735  11.236  1.00  0.00     0.124 HD
HETATM    9  H6  PAP L   1      -9.253  15.328  10.950  1.00  0.00     0.124 HD
HETATM   10  O1  PAP L   1      -9.141  10.370   7.405  1.00  0.00    -0.361 OA
HETATM   11  H7  PAP L   1      -9.988   9.958   7.639  1.00  0.00     0.217 HD
HETATM    1  C1  PAP L   1      -9.458  11.900   6.747  1.00  0.00     0.026 A 
HETATM    2  C2  PAP L   1      -8.256  11.324   6.328  1.00  0.00     0.038 A 
HETATM    3  C3  PAP L   1      -8.268  10.077   5.717  1.00  0.00     0.065 A 
HETATM    4  C4  PAP L   1      -9.466   9.404   5.503  1.00  0.00     0.038 A 
HETATM    5  C5  PAP L   1     -10.665   9.987   5.926  1.00  0.00     0.026 A 
HETATM    6  C6  PAP L   1     -10.668  11.215   6.596  1.00  0.00     0.005 A 
HETATM    7  N1  PAP L   1     -11.878  11.845   6.907  1.00  0.00    -0.303 NA
HETATM    8  H5  PAP L   1     -12.630  11.199   7.124  1.00  0.00     0.124 HD
HETATM    9  H6  PAP L   1     -12.158  12.551   6.234  1.00  0.00     0.124 HD
HETATM   10  O1  PAP L   1      -7.076   9.549   5.321  1.00  0.00    -0.361 OA
HETATM   11  H7  PAP L   1      -6.888   9.851   4.418  1.00  0.00     0.217 HD
HETATM    1  C1  PAP L   1      -6.887  19.874   7.286  1.00  0.00     0.026 A 
HETATM    2  C2  PAP L   1      -5.998  20.938   7.456  1.00  0.00     0.038 A 
HETATM    3  C3  PAP L   1      -4.978  21.136   6.536  1.00  0.00     0.065 A 
HETATM    4  C4  PAP L   1      -4.841  20.293   5.437  1.00  0.00     0.038 A 
HETATM    5  C5  PAP L   1      -5.734  19.230   5.275  1.00  0.00     0.026 A 
HETATM    6  C6  PAP L   1      -6.732  18.980   6.222  1.00  0.00     0.005 A 
HETATM    7  N1  PAP L   1      -7.693  17.989   5.989  1.00  0.00    -0.303 NA
HETATM    8  H5  PAP L   1      -8.347  18.221   5.250  1.00  0.00     0.124 HD
HETATM    9  H6  PAP L   1      -8.160  17.664   6.830  1.00  0.00     0.124 HD
HETATM   10  O1  PAP L   1      -4.133  22.185   6.735  1.00  0.00    -0.361 OA
HETATM   11  H7  PAP L   1      -4.014  22.653   5.892  1.00  0.00     0.217 HD
HETATM    1  C1  PAP L   1      -9.553  11.021  10.028  1.00  0.00     0.026 A 
HETATM    2  C2  PAP L   1      -8.776  10.799   8.888  1.00  0.00     0.038 A 
HETATM    3  C3  PAP L   1      -8.481   9.500   8.499  1.00  0.00     0.065 A 
HETATM    4  C4  PAP L   1      -8.963   8.416   9.224  1.00  0.00     0.038 A 
HETATM    5  C5  PAP L   1      -9.739   8.646  10.365  1.00  0.00     0.026 A 
HETATM    6  C6  PAP L   1      -9.998   9.948  10.806  1.00  0.00     0.005 A 
HETATM    7  N1  PAP L   1     -10.872  10.168  11.876  1.00  0.00    -0.303 NA
HETATM    8  H5  PAP L   1     -11.852  10.154  11.612  1.00  0.00     0.124 HD
HETATM    9  H6  PAP L   1     -10.636  10.978  12.439  1.00  0.00     0.124 HD
HETATM   10  O1  PAP L   1      -7.723   9.326   7.380  1.00  0.00    -0.361 OA
HETATM   11  H7  PAP L   1      -7.821   8.408   7.079  1.00  0.00     0.217 HD
HETATM    1  C1  PAP L   1      -6.712  22.012   6.231  1.00  0.00     0.026 A 
HETATM    2  C2  PAP L   1      -7.319  20.753   6.209  1.00  0.00     0.038 A 
HETATM    3  C3  PAP L   1      -6.547  19.615   6.399  1.00  0.00     0.065 A 
HETATM    4  C4  PAP L   1      -5.180  19.716   6.628  1.00  0.00     0.038 A 
HETATM    5  C5  PAP L   1      -4.580  20.979   6.648  1.00  0.00     0.026 A 
HETATM    6  C6  PAP L   1      -5.330  22.134   6.400  1.00  0.00     0.005 A 
HETATM    7  N1  PAP L   1      -4.745  23.397   6.540  1.00  0.00    -0.303 NA
HETATM    8  H5  PAP L   1      -4.106  23.636   5.790  1.00  0.00     0.124 HD
HETATM    9  H6  PAP L   1      -4.344  23.564   7.457  1.00  0.00     0.124 HD
HETATM   10  O1  PAP L   1      -7.176  18.407   6.373  1.00  0.00    -0.361 OA
HETATM   11  H7  PAP L   1      -6.509  17.708   6.467  1.00  0.00     0.217 HD
HETATM    1  C1  PAP L   1      -9.081  10.620   9.118  1.00  0.00     0.026 A 
HETATM    2  C2  PAP L   1      -9.793  10.659  10.320  1.00  0.00     0.038 A 
HETATM    3  C3  PAP L   1     -10.067   9.477  10.995  1.00  0.00     0.065 A 
HETATM    4  C4  PAP L   1      -9.627   8.257  10.495  1.00  0.00     0.038 A 
HETATM    5  C5  PAP L   1      -8.916   8.226   9.291  1.00  0.00     0.026 A 
HETATM    6  C6  PAP L   1      -8.680   9.399   8.567  1.00  0.00     0.005 A 
HETATM    7  N1  PAP L   1      -7.867   9.373   7.428  1.00  0.00    -0.303 NA
HETATM    8  H5  PAP L   1      -7.652   8.437   7.102  1.00  0.00     0.124 HD
HETATM    9  H6  PAP L   1      -7.039   9.955   7.502  1.00  0.00     0.124 HD
HETATM   10  O1  PAP L   1     -10.762   9.557  12.164  1.00  0.00    -0.361 OA
HETATM   11  H7  PAP L   1     -11.697   9.369  11.983  1.00  0.00     0.217 HD
