MODEL 1
REMARK VINA RESULT:      -3.4      0.000      0.000
REMARK  2 active torsions:
REMARK  status: ('A' for Active; 'I' for Inactive)
REMARK    1  A    between atoms: C3_3  and  O1_8 
REMARK    2  A    between atoms: C6_6  and  N1_7 
ROOT
HETATM    1  C1  UNL     1       1.589  11.316   4.773  1.00  0.00     0.026 A 
HETATM    2  C2  UNL     1       0.711  10.230   4.785  1.00  0.00     0.038 A 
HETATM    3  C3  UNL     1      -0.497  10.315   4.108  1.00  0.00     0.065 A 
HETATM    4  C4  UNL     1      -0.835  11.466   3.404  1.00  0.00     0.038 A 
HETATM    5  C5  UNL     1       0.049  12.549   3.397  1.00  0.00     0.026 A 
HETATM    6  C6  UNL     1       1.244  12.504   4.122  1.00  0.00     0.005 A 
ENDROOT
BRANCH   6   7
HETATM    7  N1  UNL     1       2.174  13.545   4.013  1.00  0.00    -0.303 NA
HETATM    8  H5  UNL     1       2.520  13.685   3.069  1.00  0.00     0.124 HD
HETATM    9  H6  UNL     1       2.923  13.499   4.696  1.00  0.00     0.124 HD
ENDBRANCH   6   7
BRANCH   3  10
HETATM   10  O1  UNL     1      -1.325   9.234   4.141  1.00  0.00    -0.361 OA
HETATM   11  H7  UNL     1      -1.944   9.294   3.396  1.00  0.00     0.217 HD
ENDBRANCH   3  10
TORSDOF 2
ENDMDL
MODEL 2
REMARK VINA RESULT:      -3.3      2.780      3.682
REMARK  2 active torsions:
REMARK  status: ('A' for Active; 'I' for Inactive)
REMARK    1  A    between atoms: C3_3  and  O1_8 
REMARK    2  A    between atoms: C6_6  and  N1_7 
ROOT
HETATM    1  C1  UNL     1      -0.734  11.603   3.452  1.00  0.00     0.026 A 
HETATM    2  C2  UNL     1       0.177  12.662   3.429  1.00  0.00     0.038 A 
HETATM    3  C3  UNL     1       1.389  12.541   4.094  1.00  0.00     0.065 A 
HETATM    4  C4  UNL     1       1.712  11.369   4.770  1.00  0.00     0.038 A 
HETATM    5  C5  UNL     1       0.794  10.314   4.789  1.00  0.00     0.026 A 
HETATM    6  C6  UNL     1      -0.456  10.439   4.175  1.00  0.00     0.005 A 
ENDROOT
BRANCH   6   7
HETATM    7  N1  UNL     1      -1.317   9.339   4.098  1.00  0.00    -0.303 NA
HETATM    8  H5  UNL     1      -2.255   9.575   3.789  1.00  0.00     0.124 HD
HETATM    9  H6  UNL     1      -1.319   8.760   4.932  1.00  0.00     0.124 HD
ENDBRANCH   6   7
BRANCH   3  10
HETATM   10  O1  UNL     1       2.252  13.594   4.046  1.00  0.00    -0.361 OA
HETATM   11  H7  UNL     1       2.209  13.989   3.161  1.00  0.00     0.217 HD
ENDBRANCH   3  10
TORSDOF 2
ENDMDL
MODEL 3
REMARK VINA RESULT:      -3.2      2.607      3.083
REMARK  2 active torsions:
REMARK  status: ('A' for Active; 'I' for Inactive)
REMARK    1  A    between atoms: C3_3  and  O1_8 
REMARK    2  A    between atoms: C6_6  and  N1_7 
ROOT
HETATM    1  C1  UNL     1      -0.797  10.956   4.828  1.00  0.00     0.026 A 
HETATM    2  C2  UNL     1       0.543  10.606   4.647  1.00  0.00     0.038 A 
HETATM    3  C3  UNL     1       1.522  11.588   4.685  1.00  0.00     0.065 A 
HETATM    4  C4  UNL     1       1.182  12.917   4.917  1.00  0.00     0.038 A 
HETATM    5  C5  UNL     1      -0.161  13.260   5.095  1.00  0.00     0.026 A 
HETATM    6  C6  UNL     1      -1.167  12.293   5.002  1.00  0.00     0.005 A 
ENDROOT
BRANCH   6   7
HETATM    7  N1  UNL     1      -2.493  12.625   5.300  1.00  0.00    -0.303 NA
HETATM    8  H5  UNL     1      -2.592  13.212   6.122  1.00  0.00     0.124 HD
HETATM    9  H6  UNL     1      -3.122  11.829   5.315  1.00  0.00     0.124 HD
ENDBRANCH   6   7
BRANCH   3  10
HETATM   10  O1  UNL     1       2.817  11.206   4.507  1.00  0.00    -0.361 OA
HETATM   11  H7  UNL     1       3.342  11.988   4.273  1.00  0.00     0.217 HD
ENDBRANCH   3  10
TORSDOF 2
ENDMDL
MODEL 4
REMARK VINA RESULT:      -3.1      1.870      2.302
REMARK  2 active torsions:
REMARK  status: ('A' for Active; 'I' for Inactive)
REMARK    1  A    between atoms: C3_3  and  O1_8 
REMARK    2  A    between atoms: C6_6  and  N1_7 
ROOT
HETATM    1  C1  UNL     1       0.846  13.269   4.304  1.00  0.00     0.026 A 
HETATM    2  C2  UNL     1       1.534  12.076   4.538  1.00  0.00     0.038 A 
HETATM    3  C3  UNL     1       0.824  10.910   4.784  1.00  0.00     0.065 A 
HETATM    4  C4  UNL     1      -0.566  10.914   4.785  1.00  0.00     0.038 A 
HETATM    5  C5  UNL     1      -1.248  12.112   4.551  1.00  0.00     0.026 A 
HETATM    6  C6  UNL     1      -0.550  13.309   4.359  1.00  0.00     0.005 A 
ENDROOT
BRANCH   6   7
HETATM    7  N1  UNL     1      -1.237  14.477   4.009  1.00  0.00    -0.303 NA
HETATM    8  H5  UNL     1      -2.068  14.309   3.451  1.00  0.00     0.124 HD
HETATM    9  H6  UNL     1      -0.644  15.198   3.613  1.00  0.00     0.124 HD
ENDBRANCH   6   7
BRANCH   3  10
HETATM   10  O1  UNL     1       1.532   9.766   5.004  1.00  0.00    -0.361 OA
HETATM   11  H7  UNL     1       1.665   9.316   4.155  1.00  0.00     0.217 HD
ENDBRANCH   3  10
TORSDOF 2
ENDMDL
MODEL 5
REMARK VINA RESULT:      -3.1      3.646      4.541
REMARK  2 active torsions:
REMARK  status: ('A' for Active; 'I' for Inactive)
REMARK    1  A    between atoms: C3_3  and  O1_8 
REMARK    2  A    between atoms: C6_6  and  N1_7 
ROOT
HETATM    1  C1  UNL     1      -3.063  10.809   3.296  1.00  0.00     0.026 A 
HETATM    2  C2  UNL     1      -1.844  10.670   3.964  1.00  0.00     0.038 A 
HETATM    3  C3  UNL     1      -1.052   9.556   3.725  1.00  0.00     0.065 A 
HETATM    4  C4  UNL     1      -1.453   8.584   2.815  1.00  0.00     0.038 A 
HETATM    5  C5  UNL     1      -2.675   8.729   2.151  1.00  0.00     0.026 A 
HETATM    6  C6  UNL     1      -3.514   9.815   2.422  1.00  0.00     0.005 A 
ENDROOT
BRANCH   6   7
HETATM    7  N1  UNL     1      -4.676  10.013   1.667  1.00  0.00    -0.303 NA
HETATM    8  H5  UNL     1      -5.323   9.232   1.702  1.00  0.00     0.124 HD
HETATM    9  H6  UNL     1      -4.501  10.328   0.719  1.00  0.00     0.124 HD
ENDBRANCH   6   7
BRANCH   3  10
HETATM   10  O1  UNL     1       0.131   9.458   4.394  1.00  0.00    -0.361 OA
HETATM   11  H7  UNL     1       0.146  10.129   5.096  1.00  0.00     0.217 HD
ENDBRANCH   3  10
TORSDOF 2
ENDMDL
MODEL 6
REMARK VINA RESULT:      -3.1      1.389      1.814
REMARK  2 active torsions:
REMARK  status: ('A' for Active; 'I' for Inactive)
REMARK    1  A    between atoms: C3_3  and  O1_8 
REMARK    2  A    between atoms: C6_6  and  N1_7 
ROOT
HETATM    1  C1  UNL     1       0.435  10.296   4.693  1.00  0.00     0.026 A 
HETATM    2  C2  UNL     1      -0.815  10.344   4.071  1.00  0.00     0.038 A 
HETATM    3  C3  UNL     1      -1.200  11.490   3.390  1.00  0.00     0.065 A 
HETATM    4  C4  UNL     1      -0.346  12.584   3.306  1.00  0.00     0.038 A 
HETATM    5  C5  UNL     1       0.903  12.529   3.932  1.00  0.00     0.026 A 
HETATM    6  C6  UNL     1       1.285  11.406   4.673  1.00  0.00     0.005 A 
ENDROOT
BRANCH   6   7
HETATM    7  N1  UNL     1       2.580  11.313   5.194  1.00  0.00    -0.303 NA
HETATM    8  H5  UNL     1       2.637  11.524   6.185  1.00  0.00     0.124 HD
HETATM    9  H6  UNL     1       3.278  11.812   4.652  1.00  0.00     0.124 HD
ENDBRANCH   6   7
BRANCH   3  10
HETATM   10  O1  UNL     1      -2.425  11.497   2.794  1.00  0.00    -0.361 OA
HETATM   11  H7  UNL     1      -2.547  12.349   2.345  1.00  0.00     0.217 HD
ENDBRANCH   3  10
TORSDOF 2
ENDMDL
MODEL 7
REMARK VINA RESULT:      -3.1      0.999      1.826
REMARK  2 active torsions:
REMARK  status: ('A' for Active; 'I' for Inactive)
REMARK    1  A    between atoms: C3_3  and  O1_8 
REMARK    2  A    between atoms: C6_6  and  N1_7 
ROOT
HETATM    1  C1  UNL     1      -0.152  12.861   4.974  1.00  0.00     0.026 A 
HETATM    2  C2  UNL     1      -0.940  11.739   4.706  1.00  0.00     0.038 A 
HETATM    3  C3  UNL     1      -0.338  10.500   4.540  1.00  0.00     0.065 A 
HETATM    4  C4  UNL     1       1.041  10.361   4.654  1.00  0.00     0.038 A 
HETATM    5  C5  UNL     1       1.823  11.489   4.921  1.00  0.00     0.026 A 
HETATM    6  C6  UNL     1       1.241  12.756   5.033  1.00  0.00     0.005 A 
ENDROOT
BRANCH   6   7
HETATM    7  N1  UNL     1       2.016  13.856   5.418  1.00  0.00    -0.303 NA
HETATM    8  H5  UNL     1       2.848  13.605   5.943  1.00  0.00     0.124 HD
HETATM    9  H6  UNL     1       1.485  14.596   5.865  1.00  0.00     0.124 HD
ENDBRANCH   6   7
BRANCH   3  10
HETATM   10  O1  UNL     1      -1.141   9.430   4.282  1.00  0.00    -0.361 OA
HETATM   11  H7  UNL     1      -0.867   9.032   3.440  1.00  0.00     0.217 HD
ENDBRANCH   3  10
TORSDOF 2
ENDMDL
MODEL 8
REMARK VINA RESULT:      -3.0      2.444      2.972
REMARK  2 active torsions:
REMARK  status: ('A' for Active; 'I' for Inactive)
REMARK    1  A    between atoms: C3_3  and  O1_8 
REMARK    2  A    between atoms: C6_6  and  N1_7 
ROOT
HETATM    1  C1  UNL     1       1.239  12.183   4.480  1.00  0.00     0.026 A 
HETATM    2  C2  UNL     1       0.446  13.307   4.241  1.00  0.00     0.038 A 
HETATM    3  C3  UNL     1      -0.936  13.182   4.224  1.00  0.00     0.065 A 
HETATM    4  C4  UNL     1      -1.539  11.951   4.459  1.00  0.00     0.038 A 
HETATM    5  C5  UNL     1      -0.738  10.830   4.696  1.00  0.00     0.026 A 
HETATM    6  C6  UNL     1       0.657  10.924   4.658  1.00  0.00     0.005 A 
ENDROOT
BRANCH   6   7
HETATM    7  N1  UNL     1       1.448   9.825   5.014  1.00  0.00    -0.303 NA
HETATM    8  H5  UNL     1       1.132   9.350   5.853  1.00  0.00     0.124 HD
HETATM    9  H6  UNL     1       2.442  10.024   5.033  1.00  0.00     0.124 HD
ENDBRANCH   6   7
BRANCH   3  10
HETATM   10  O1  UNL     1      -1.676  14.303   3.991  1.00  0.00    -0.361 OA
HETATM   11  H7  UNL     1      -1.415  14.984   4.630  1.00  0.00     0.217 HD
ENDBRANCH   3  10
TORSDOF 2
ENDMDL
MODEL 9
REMARK VINA RESULT:      -3.0      4.291      4.913
REMARK  2 active torsions:
REMARK  status: ('A' for Active; 'I' for Inactive)
REMARK    1  A    between atoms: C3_3  and  O1_8 
REMARK    2  A    between atoms: C6_6  and  N1_7 
ROOT
HETATM    1  C1  UNL     1      -4.122   9.310   2.979  1.00  0.00     0.026 A 
HETATM    2  C2  UNL     1      -3.907   8.004   3.424  1.00  0.00     0.038 A 
HETATM    3  C3  UNL     1      -2.706   7.369   3.141  1.00  0.00     0.065 A 
HETATM    4  C4  UNL     1      -1.708   8.027   2.431  1.00  0.00     0.038 A 
HETATM    5  C5  UNL     1      -1.931   9.334   1.987  1.00  0.00     0.026 A 
HETATM    6  C6  UNL     1      -3.156   9.969   2.212  1.00  0.00     0.005 A 
ENDROOT
BRANCH   6   7
HETATM    7  N1  UNL     1      -3.326  11.315   1.869  1.00  0.00    -0.303 NA
HETATM    8  H5  UNL     1      -4.297  11.609   1.838  1.00  0.00     0.124 HD
HETATM    9  H6  UNL     1      -2.811  11.596   1.042  1.00  0.00     0.124 HD
ENDBRANCH   6   7
BRANCH   3  10
HETATM   10  O1  UNL     1      -2.534   6.096   3.595  1.00  0.00    -0.361 OA
HETATM   11  H7  UNL     1      -3.369   5.614   3.489  1.00  0.00     0.217 HD
ENDBRANCH   3  10
TORSDOF 2
ENDMDL
