MODEL 1
REMARK VINA RESULT:      -3.3      0.000      0.000
REMARK  2 active torsions:
REMARK  status: ('A' for Active; 'I' for Inactive)
REMARK    1  A    between atoms: C3_3  and  O1_10 
REMARK    2  A    between atoms: C6_6  and  N1_7 
ROOT
HETATM    1  C1  PAP L   1      -7.650   3.959  -5.634  1.00  0.00     0.026 A 
HETATM    2  C2  PAP L   1      -8.400   4.591  -4.638  1.00  0.00     0.038 A 
HETATM    3  C3  PAP L   1      -8.427   4.059  -3.356  1.00  0.00     0.065 A 
HETATM    4  C4  PAP L   1      -7.701   2.914  -3.049  1.00  0.00     0.038 A 
HETATM    5  C5  PAP L   1      -6.953   2.287  -4.051  1.00  0.00     0.026 A 
HETATM    6  C6  PAP L   1      -6.961   2.774  -5.362  1.00  0.00     0.005 A 
ENDROOT
BRANCH   6   7
HETATM    7  N1  PAP L   1      -6.117   2.212  -6.327  1.00  0.00    -0.303 NA
HETATM    8  H5  PAP L   1      -6.487   2.260  -7.270  1.00  0.00     0.124 HD
HETATM    9  H6  PAP L   1      -5.785   1.282  -6.091  1.00  0.00     0.124 HD
ENDBRANCH   6   7
BRANCH   3  10
HETATM   10  O1  PAP L   1      -9.168   4.705  -2.413  1.00  0.00    -0.361 OA
HETATM   11  H7  PAP L   1      -8.706   4.646  -1.561  1.00  0.00     0.217 HD
ENDBRANCH   3  10
TORSDOF 2
ENDMDL
MODEL 2
REMARK VINA RESULT:      -3.2      1.387      2.083
REMARK  2 active torsions:
REMARK  status: ('A' for Active; 'I' for Inactive)
REMARK    1  A    between atoms: C3_3  and  O1_10 
REMARK    2  A    between atoms: C6_6  and  N1_7 
ROOT
HETATM    1  C1  PAP L   1      -7.152   2.529  -4.346  1.00  0.00     0.026 A 
HETATM    2  C2  PAP L   1      -8.330   2.829  -3.656  1.00  0.00     0.038 A 
HETATM    3  C3  PAP L   1      -9.475   3.164  -4.365  1.00  0.00     0.065 A 
HETATM    4  C4  PAP L   1      -9.466   3.189  -5.755  1.00  0.00     0.038 A 
HETATM    5  C5  PAP L   1      -8.284   2.888  -6.439  1.00  0.00     0.026 A 
HETATM    6  C6  PAP L   1      -7.104   2.606  -5.741  1.00  0.00     0.005 A 
ENDROOT
BRANCH   6   7
HETATM    7  N1  PAP L   1      -5.960   2.191  -6.432  1.00  0.00    -0.303 NA
HETATM    8  H5  PAP L   1      -6.067   1.295  -6.896  1.00  0.00     0.124 HD
HETATM    9  H6  PAP L   1      -5.108   2.242  -5.882  1.00  0.00     0.124 HD
ENDBRANCH   6   7
BRANCH   3  10
HETATM   10  O1  PAP L   1     -10.604   3.448  -3.657  1.00  0.00    -0.361 OA
HETATM   11  H7  PAP L   1     -10.691   2.800  -2.939  1.00  0.00     0.217 HD
ENDBRANCH   3  10
TORSDOF 2
ENDMDL
MODEL 3
REMARK VINA RESULT:      -3.2      2.363      3.012
REMARK  2 active torsions:
REMARK  status: ('A' for Active; 'I' for Inactive)
REMARK    1  A    between atoms: C3_3  and  O1_10 
REMARK    2  A    between atoms: C6_6  and  N1_7 
ROOT
HETATM    1  C1  PAP L   1      -7.522   6.225  -3.262  1.00  0.00     0.026 A 
HETATM    2  C2  PAP L   1      -7.909   5.079  -2.563  1.00  0.00     0.038 A 
HETATM    3  C3  PAP L   1      -8.132   3.896  -3.253  1.00  0.00     0.065 A 
HETATM    4  C4  PAP L   1      -7.959   3.836  -4.631  1.00  0.00     0.038 A 
HETATM    5  C5  PAP L   1      -7.572   4.987  -5.324  1.00  0.00     0.026 A 
HETATM    6  C6  PAP L   1      -7.399   6.203  -4.654  1.00  0.00     0.005 A 
ENDROOT
BRANCH   6   7
HETATM    7  N1  PAP L   1      -6.897   7.317  -5.336  1.00  0.00    -0.303 NA
HETATM    8  H5  PAP L   1      -7.574   7.760  -5.949  1.00  0.00     0.124 HD
HETATM    9  H6  PAP L   1      -6.010   7.150  -5.799  1.00  0.00     0.124 HD
ENDBRANCH   6   7
BRANCH   3  10
HETATM   10  O1  PAP L   1      -8.507   2.800  -2.535  1.00  0.00    -0.361 OA
HETATM   11  H7  PAP L   1      -9.475   2.733  -2.554  1.00  0.00     0.217 HD
ENDBRANCH   3  10
TORSDOF 2
ENDMDL
MODEL 4
REMARK VINA RESULT:      -3.2      2.057      2.585
REMARK  2 active torsions:
REMARK  status: ('A' for Active; 'I' for Inactive)
REMARK    1  A    between atoms: C3_3  and  O1_10 
REMARK    2  A    between atoms: C6_6  and  N1_7 
ROOT
HETATM    1  C1  PAP L   1      -7.283   3.384  -5.803  1.00  0.00     0.026 A 
HETATM    2  C2  PAP L   1      -7.156   2.273  -4.965  1.00  0.00     0.038 A 
HETATM    3  C3  PAP L   1      -7.440   2.397  -3.612  1.00  0.00     0.065 A 
HETATM    4  C4  PAP L   1      -7.866   3.612  -3.086  1.00  0.00     0.038 A 
HETATM    5  C5  PAP L   1      -7.990   4.719  -3.931  1.00  0.00     0.026 A 
HETATM    6  C6  PAP L   1      -7.651   4.629  -5.285  1.00  0.00     0.005 A 
ENDROOT
BRANCH   6   7
HETATM    7  N1  PAP L   1      -7.892   5.707  -6.144  1.00  0.00    -0.303 NA
HETATM    8  H5  PAP L   1      -8.845   6.053  -6.107  1.00  0.00     0.124 HD
HETATM    9  H6  PAP L   1      -7.574   5.552  -7.096  1.00  0.00     0.124 HD
ENDBRANCH   6   7
BRANCH   3  10
HETATM   10  O1  PAP L   1      -7.307   1.291  -2.828  1.00  0.00    -0.361 OA
HETATM   11  H7  PAP L   1      -7.976   0.640  -3.093  1.00  0.00     0.217 HD
ENDBRANCH   3  10
TORSDOF 2
ENDMDL
MODEL 5
REMARK VINA RESULT:      -3.2      2.098      2.657
REMARK  2 active torsions:
REMARK  status: ('A' for Active; 'I' for Inactive)
REMARK    1  A    between atoms: C3_3  and  O1_10 
REMARK    2  A    between atoms: C6_6  and  N1_7 
ROOT
HETATM    1  C1  PAP L   1      -7.909   3.649  -3.139  1.00  0.00     0.026 A 
HETATM    2  C2  PAP L   1      -7.988   4.755  -3.989  1.00  0.00     0.038 A 
HETATM    3  C3  PAP L   1      -7.666   4.613  -5.332  1.00  0.00     0.065 A 
HETATM    4  C4  PAP L   1      -7.283   3.378  -5.843  1.00  0.00     0.038 A 
HETATM    5  C5  PAP L   1      -7.206   2.276  -4.985  1.00  0.00     0.026 A 
HETATM    6  C6  PAP L   1      -7.468   2.411  -3.618  1.00  0.00     0.005 A 
ENDROOT
BRANCH   6   7
HETATM    7  N1  PAP L   1      -7.505   1.282  -2.793  1.00  0.00    -0.303 NA
HETATM    8  H5  PAP L   1      -8.442   0.933  -2.620  1.00  0.00     0.124 HD
HETATM    9  H6  PAP L   1      -6.966   1.380  -1.938  1.00  0.00     0.124 HD
ENDBRANCH   6   7
BRANCH   3  10
HETATM   10  O1  PAP L   1      -7.758   5.714  -6.129  1.00  0.00    -0.361 OA
HETATM   11  H7  PAP L   1      -8.592   5.672  -6.623  1.00  0.00     0.217 HD
ENDBRANCH   3  10
TORSDOF 2
ENDMDL
MODEL 6
REMARK VINA RESULT:      -3.2      1.704      1.875
REMARK  2 active torsions:
REMARK  status: ('A' for Active; 'I' for Inactive)
REMARK    1  A    between atoms: C3_3  and  O1_10 
REMARK    2  A    between atoms: C6_6  and  N1_7 
ROOT
HETATM    1  C1  PAP L   1      -7.715   4.571  -5.165  1.00  0.00     0.026 A 
HETATM    2  C2  PAP L   1      -7.659   5.815  -4.533  1.00  0.00     0.038 A 
HETATM    3  C3  PAP L   1      -7.672   5.883  -3.146  1.00  0.00     0.065 A 
HETATM    4  C4  PAP L   1      -7.724   4.723  -2.381  1.00  0.00     0.038 A 
HETATM    5  C5  PAP L   1      -7.782   3.481  -3.021  1.00  0.00     0.026 A 
HETATM    6  C6  PAP L   1      -7.829   3.396  -4.416  1.00  0.00     0.005 A 
ENDROOT
BRANCH   6   7
HETATM    7  N1  PAP L   1      -7.765   2.148  -5.048  1.00  0.00    -0.303 NA
HETATM    8  H5  PAP L   1      -7.913   1.365  -4.420  1.00  0.00     0.124 HD
HETATM    9  H6  PAP L   1      -6.944   2.025  -5.632  1.00  0.00     0.124 HD
ENDBRANCH   6   7
BRANCH   3  10
HETATM   10  O1  PAP L   1      -7.613   7.115  -2.567  1.00  0.00    -0.361 OA
HETATM   11  H7  PAP L   1      -8.513   7.473  -2.508  1.00  0.00     0.217 HD
ENDBRANCH   3  10
TORSDOF 2
ENDMDL
MODEL 7
REMARK VINA RESULT:      -3.2      2.891      3.633
REMARK  2 active torsions:
REMARK  status: ('A' for Active; 'I' for Inactive)
REMARK    1  A    between atoms: C3_3  and  O1_10 
REMARK    2  A    between atoms: C6_6  and  N1_7 
ROOT
HETATM    1  C1  PAP L   1      -7.543   3.831  -5.693  1.00  0.00     0.026 A 
HETATM    2  C2  PAP L   1      -7.846   2.481  -5.493  1.00  0.00     0.038 A 
HETATM    3  C3  PAP L   1      -9.060   1.976  -5.937  1.00  0.00     0.065 A 
HETATM    4  C4  PAP L   1      -9.972   2.796  -6.592  1.00  0.00     0.038 A 
HETATM    5  C5  PAP L   1      -9.663   4.145  -6.787  1.00  0.00     0.026 A 
HETATM    6  C6  PAP L   1      -8.470   4.687  -6.296  1.00  0.00     0.005 A 
ENDROOT
BRANCH   6   7
HETATM    7  N1  PAP L   1      -8.117   6.006  -6.601  1.00  0.00    -0.303 NA
HETATM    8  H5  PAP L   1      -7.345   6.081  -7.255  1.00  0.00     0.124 HD
HETATM    9  H6  PAP L   1      -7.990   6.596  -5.785  1.00  0.00     0.124 HD
ENDBRANCH   6   7
BRANCH   3  10
HETATM   10  O1  PAP L   1      -9.317   0.655  -5.725  1.00  0.00    -0.361 OA
HETATM   11  H7  PAP L   1     -10.116   0.411  -6.220  1.00  0.00     0.217 HD
ENDBRANCH   3  10
TORSDOF 2
ENDMDL
MODEL 8
REMARK VINA RESULT:      -3.1      3.103      3.685
REMARK  2 active torsions:
REMARK  status: ('A' for Active; 'I' for Inactive)
REMARK    1  A    between atoms: C3_3  and  O1_10 
REMARK    2  A    between atoms: C6_6  and  N1_7 
ROOT
HETATM    1  C1  PAP L   1      -7.662   6.322  -2.686  1.00  0.00     0.026 A 
HETATM    2  C2  PAP L   1      -7.608   6.310  -4.083  1.00  0.00     0.038 A 
HETATM    3  C3  PAP L   1      -7.734   5.108  -4.765  1.00  0.00     0.065 A 
HETATM    4  C4  PAP L   1      -7.931   3.917  -4.074  1.00  0.00     0.038 A 
HETATM    5  C5  PAP L   1      -7.983   3.937  -2.677  1.00  0.00     0.026 A 
HETATM    6  C6  PAP L   1      -7.799   5.130  -1.969  1.00  0.00     0.005 A 
ENDROOT
BRANCH   6   7
HETATM    7  N1  PAP L   1      -7.972   5.159  -0.580  1.00  0.00    -0.303 NA
HETATM    8  H5  PAP L   1      -8.373   4.307  -0.202  1.00  0.00     0.124 HD
HETATM    9  H6  PAP L   1      -8.444   5.991  -0.243  1.00  0.00     0.124 HD
ENDBRANCH   6   7
BRANCH   3  10
HETATM   10  O1  PAP L   1      -7.678   5.138  -6.126  1.00  0.00    -0.361 OA
HETATM   11  H7  PAP L   1      -7.075   4.440  -6.427  1.00  0.00     0.217 HD
ENDBRANCH   3  10
TORSDOF 2
ENDMDL
MODEL 9
REMARK VINA RESULT:      -3.1      2.771      3.202
REMARK  2 active torsions:
REMARK  status: ('A' for Active; 'I' for Inactive)
REMARK    1  A    between atoms: C3_3  and  O1_10 
REMARK    2  A    between atoms: C6_6  and  N1_7 
ROOT
HETATM    1  C1  PAP L   1      -7.713   5.486  -4.841  1.00  0.00     0.026 A 
HETATM    2  C2  PAP L   1      -7.733   4.157  -5.271  1.00  0.00     0.038 A 
HETATM    3  C3  PAP L   1      -7.763   3.132  -4.335  1.00  0.00     0.065 A 
HETATM    4  C4  PAP L   1      -7.790   3.416  -2.974  1.00  0.00     0.038 A 
HETATM    5  C5  PAP L   1      -7.769   4.748  -2.552  1.00  0.00     0.026 A 
HETATM    6  C6  PAP L   1      -7.679   5.793  -3.478  1.00  0.00     0.005 A 
ENDROOT
BRANCH   6   7
HETATM    7  N1  PAP L   1      -7.780   7.123  -3.052  1.00  0.00    -0.303 NA
HETATM    8  H5  PAP L   1      -7.695   7.236  -2.047  1.00  0.00     0.124 HD
HETATM    9  H6  PAP L   1      -8.583   7.615  -3.429  1.00  0.00     0.124 HD
ENDBRANCH   6   7
BRANCH   3  10
HETATM   10  O1  PAP L   1      -7.784   1.849  -4.794  1.00  0.00    -0.361 OA
HETATM   11  H7  PAP L   1      -7.252   1.298  -4.198  1.00  0.00     0.217 HD
ENDBRANCH   3  10
TORSDOF 2
ENDMDL
MODEL 10
REMARK VINA RESULT:      -3.1      2.780      3.265
REMARK  2 active torsions:
REMARK  status: ('A' for Active; 'I' for Inactive)
REMARK    1  A    between atoms: C3_3  and  O1_10 
REMARK    2  A    between atoms: C6_6  and  N1_7 
ROOT
HETATM    1  C1  PAP L   1      -8.384   4.439  -4.681  1.00  0.00     0.026 A 
HETATM    2  C2  PAP L   1      -7.597   3.846  -5.672  1.00  0.00     0.038 A 
HETATM    3  C3  PAP L   1      -6.814   2.743  -5.359  1.00  0.00     0.065 A 
HETATM    4  C4  PAP L   1      -6.817   2.214  -4.073  1.00  0.00     0.038 A 
HETATM    5  C5  PAP L   1      -7.606   2.814  -3.087  1.00  0.00     0.026 A 
HETATM    6  C6  PAP L   1      -8.357   3.960  -3.368  1.00  0.00     0.005 A 
ENDROOT
BRANCH   6   7
HETATM    7  N1  PAP L   1      -9.234   4.481  -2.410  1.00  0.00    -0.303 NA
HETATM    8  H5  PAP L   1      -9.719   5.319  -2.713  1.00  0.00     0.124 HD
HETATM    9  H6  PAP L   1      -8.820   4.586  -1.489  1.00  0.00     0.124 HD
ENDBRANCH   6   7
BRANCH   3  10
HETATM   10  O1  PAP L   1      -6.062   2.192  -6.352  1.00  0.00    -0.361 OA
HETATM   11  H7  PAP L   1      -6.264   2.648  -7.184  1.00  0.00     0.217 HD
ENDBRANCH   3  10
TORSDOF 2
ENDMDL
MODEL 11
REMARK VINA RESULT:      -3.1      2.759      3.569
REMARK  2 active torsions:
REMARK  status: ('A' for Active; 'I' for Inactive)
REMARK    1  A    between atoms: C3_3  and  O1_10 
REMARK    2  A    between atoms: C6_6  and  N1_7 
ROOT
HETATM    1  C1  PAP L   1      -7.631   4.371  -2.552  1.00  0.00     0.026 A 
HETATM    2  C2  PAP L   1      -7.619   3.110  -3.155  1.00  0.00     0.038 A 
HETATM    3  C3  PAP L   1      -7.659   3.010  -4.539  1.00  0.00     0.065 A 
HETATM    4  C4  PAP L   1      -7.694   4.151  -5.332  1.00  0.00     0.038 A 
HETATM    5  C5  PAP L   1      -7.706   5.409  -4.722  1.00  0.00     0.026 A 
HETATM    6  C6  PAP L   1      -7.726   5.530  -3.328  1.00  0.00     0.005 A 
ENDROOT
BRANCH   6   7
HETATM    7  N1  PAP L   1      -7.618   6.790  -2.729  1.00  0.00    -0.303 NA
HETATM    8  H5  PAP L   1      -6.686   7.188  -2.782  1.00  0.00     0.124 HD
HETATM    9  H6  PAP L   1      -8.003   6.833  -1.791  1.00  0.00     0.124 HD
ENDBRANCH   6   7
BRANCH   3  10
HETATM   10  O1  PAP L   1      -7.643   1.763  -5.089  1.00  0.00    -0.361 OA
HETATM   11  H7  PAP L   1      -8.060   1.145  -4.467  1.00  0.00     0.217 HD
ENDBRANCH   3  10
TORSDOF 2
ENDMDL
MODEL 12
REMARK VINA RESULT:      -3.1      2.030      2.815
REMARK  2 active torsions:
REMARK  status: ('A' for Active; 'I' for Inactive)
REMARK    1  A    between atoms: C3_3  and  O1_10 
REMARK    2  A    between atoms: C6_6  and  N1_7 
ROOT
HETATM    1  C1  PAP L   1      -7.901   3.937  -3.986  1.00  0.00     0.026 A 
HETATM    2  C2  PAP L   1      -7.922   3.963  -2.589  1.00  0.00     0.038 A 
HETATM    3  C3  PAP L   1      -7.807   5.175  -1.923  1.00  0.00     0.065 A 
HETATM    4  C4  PAP L   1      -7.688   6.365  -2.632  1.00  0.00     0.038 A 
HETATM    5  C5  PAP L   1      -7.667   6.331  -4.030  1.00  0.00     0.026 A 
HETATM    6  C6  PAP L   1      -7.722   5.114  -4.718  1.00  0.00     0.005 A 
ENDROOT
BRANCH   6   7
HETATM    7  N1  PAP L   1      -7.820   5.098  -6.114  1.00  0.00    -0.303 NA
HETATM    8  H5  PAP L   1      -8.459   4.395  -6.470  1.00  0.00     0.124 HD
HETATM    9  H6  PAP L   1      -6.924   5.080  -6.589  1.00  0.00     0.124 HD
ENDBRANCH   6   7
BRANCH   3  10
HETATM   10  O1  PAP L   1      -7.834   5.160  -0.561  1.00  0.00    -0.361 OA
HETATM   11  H7  PAP L   1      -7.027   4.728  -0.239  1.00  0.00     0.217 HD
ENDBRANCH   3  10
TORSDOF 2
ENDMDL
MODEL 13
REMARK VINA RESULT:      -3.0      2.706      3.063
REMARK  2 active torsions:
REMARK  status: ('A' for Active; 'I' for Inactive)
REMARK    1  A    between atoms: C3_3  and  O1_10 
REMARK    2  A    between atoms: C6_6  and  N1_7 
ROOT
HETATM    1  C1  PAP L   1     -10.171   3.151  -6.588  1.00  0.00     0.026 A 
HETATM    2  C2  PAP L   1      -9.468   4.349  -6.432  1.00  0.00     0.038 A 
HETATM    3  C3  PAP L   1      -8.147   4.320  -6.007  1.00  0.00     0.065 A 
HETATM    4  C4  PAP L   1      -7.511   3.110  -5.750  1.00  0.00     0.038 A 
HETATM    5  C5  PAP L   1      -8.222   1.916  -5.906  1.00  0.00     0.026 A 
HETATM    6  C6  PAP L   1      -9.571   1.927  -6.277  1.00  0.00     0.005 A 
ENDROOT
BRANCH   6   7
HETATM    7  N1  PAP L   1     -10.238   0.727  -6.547  1.00  0.00    -0.303 NA
HETATM    8  H5  PAP L   1      -9.616  -0.044  -6.767  1.00  0.00     0.124 HD
HETATM    9  H6  PAP L   1     -10.992   0.819  -7.219  1.00  0.00     0.124 HD
ENDBRANCH   6   7
BRANCH   3  10
HETATM   10  O1  PAP L   1      -7.494   5.508  -5.870  1.00  0.00    -0.361 OA
HETATM   11  H7  PAP L   1      -6.610   5.423  -6.261  1.00  0.00     0.217 HD
ENDBRANCH   3  10
TORSDOF 2
ENDMDL
MODEL 14
REMARK VINA RESULT:      -3.0      2.539      3.204
REMARK  2 active torsions:
REMARK  status: ('A' for Active; 'I' for Inactive)
REMARK    1  A    between atoms: C3_3  and  O1_10 
REMARK    2  A    between atoms: C6_6  and  N1_7 
ROOT
HETATM    1  C1  PAP L   1      -8.204   4.797  -2.830  1.00  0.00     0.026 A 
HETATM    2  C2  PAP L   1      -7.559   5.920  -3.355  1.00  0.00     0.038 A 
HETATM    3  C3  PAP L   1      -7.301   5.991  -4.717  1.00  0.00     0.065 A 
HETATM    4  C4  PAP L   1      -7.692   4.962  -5.566  1.00  0.00     0.038 A 
HETATM    5  C5  PAP L   1      -8.336   3.841  -5.033  1.00  0.00     0.026 A 
HETATM    6  C6  PAP L   1      -8.552   3.725  -3.656  1.00  0.00     0.005 A 
ENDROOT
BRANCH   6   7
HETATM    7  N1  PAP L   1      -9.302   2.658  -3.148  1.00  0.00    -0.303 NA
HETATM    8  H5  PAP L   1      -8.851   2.173  -2.379  1.00  0.00     0.124 HD
HETATM    9  H6  PAP L   1      -9.642   2.019  -3.860  1.00  0.00     0.124 HD
ENDBRANCH   6   7
BRANCH   3  10
HETATM   10  O1  PAP L   1      -6.673   7.103  -5.191  1.00  0.00    -0.361 OA
HETATM   11  H7  PAP L   1      -6.343   6.916  -6.084  1.00  0.00     0.217 HD
ENDBRANCH   3  10
TORSDOF 2
ENDMDL
MODEL 15
REMARK VINA RESULT:      -2.9      3.324      4.256
REMARK  2 active torsions:
REMARK  status: ('A' for Active; 'I' for Inactive)
REMARK    1  A    between atoms: C3_3  and  O1_10 
REMARK    2  A    between atoms: C6_6  and  N1_7 
ROOT
HETATM    1  C1  PAP L   1      -7.739   5.193  -1.349  1.00  0.00     0.026 A 
HETATM    2  C2  PAP L   1      -7.899   4.058  -2.149  1.00  0.00     0.038 A 
HETATM    3  C3  PAP L   1      -7.978   4.195  -3.528  1.00  0.00     0.065 A 
HETATM    4  C4  PAP L   1      -7.883   5.448  -4.123  1.00  0.00     0.038 A 
HETATM    5  C5  PAP L   1      -7.723   6.579  -3.316  1.00  0.00     0.026 A 
HETATM    6  C6  PAP L   1      -7.700   6.468  -1.922  1.00  0.00     0.005 A 
ENDROOT
BRANCH   6   7
HETATM    7  N1  PAP L   1      -7.421   7.588  -1.131  1.00  0.00    -0.303 NA
HETATM    8  H5  PAP L   1      -6.693   7.429  -0.442  1.00  0.00     0.124 HD
HETATM    9  H6  PAP L   1      -8.245   8.022  -0.728  1.00  0.00     0.124 HD
ENDBRANCH   6   7
BRANCH   3  10
HETATM   10  O1  PAP L   1      -8.133   3.064  -4.273  1.00  0.00    -0.361 OA
HETATM   11  H7  PAP L   1      -8.980   2.652  -4.039  1.00  0.00     0.217 HD
ENDBRANCH   3  10
TORSDOF 2
ENDMDL
MODEL 16
REMARK VINA RESULT:      -2.9      3.080      3.626
REMARK  2 active torsions:
REMARK  status: ('A' for Active; 'I' for Inactive)
REMARK    1  A    between atoms: C3_3  and  O1_10 
REMARK    2  A    between atoms: C6_6  and  N1_7 
ROOT
HETATM    1  C1  PAP L   1      -8.450   4.594  -4.931  1.00  0.00     0.026 A 
HETATM    2  C2  PAP L   1      -7.248   4.018  -5.350  1.00  0.00     0.038 A 
HETATM    3  C3  PAP L   1      -7.260   2.771  -5.961  1.00  0.00     0.065 A 
HETATM    4  C4  PAP L   1      -8.458   2.098  -6.175  1.00  0.00     0.038 A 
HETATM    5  C5  PAP L   1      -9.657   2.681  -5.752  1.00  0.00     0.026 A 
HETATM    6  C6  PAP L   1      -9.660   3.909  -5.082  1.00  0.00     0.005 A 
ENDROOT
BRANCH   6   7
HETATM    7  N1  PAP L   1     -10.870   4.539  -4.771  1.00  0.00    -0.303 NA
HETATM    8  H5  PAP L   1     -11.622   3.893  -4.554  1.00  0.00     0.124 HD
HETATM    9  H6  PAP L   1     -11.150   5.245  -5.444  1.00  0.00     0.124 HD
ENDBRANCH   6   7
BRANCH   3  10
HETATM   10  O1  PAP L   1      -6.068   2.243  -6.357  1.00  0.00    -0.361 OA
HETATM   11  H7  PAP L   1      -5.880   2.545  -7.260  1.00  0.00     0.217 HD
ENDBRANCH   3  10
TORSDOF 2
ENDMDL
MODEL 17
REMARK VINA RESULT:      -2.8      9.421     10.127
REMARK  2 active torsions:
REMARK  status: ('A' for Active; 'I' for Inactive)
REMARK    1  A    between atoms: C3_3  and  O1_10 
REMARK    2  A    between atoms: C6_6  and  N1_7 
ROOT
HETATM    1  C1  PAP L   1      -5.879  12.568  -4.392  1.00  0.00     0.026 A 
HETATM    2  C2  PAP L   1      -4.990  13.632  -4.222  1.00  0.00     0.038 A 
HETATM    3  C3  PAP L   1      -3.970  13.830  -5.142  1.00  0.00     0.065 A 
HETATM    4  C4  PAP L   1      -3.833  12.987  -6.241  1.00  0.00     0.038 A 
HETATM    5  C5  PAP L   1      -4.726  11.924  -6.403  1.00  0.00     0.026 A 
HETATM    6  C6  PAP L   1      -5.724  11.674  -5.456  1.00  0.00     0.005 A 
ENDROOT
BRANCH   6   7
HETATM    7  N1  PAP L   1      -6.685  10.683  -5.689  1.00  0.00    -0.303 NA
HETATM    8  H5  PAP L   1      -7.339  10.915  -6.428  1.00  0.00     0.124 HD
HETATM    9  H6  PAP L   1      -7.152  10.358  -4.848  1.00  0.00     0.124 HD
ENDBRANCH   6   7
BRANCH   3  10
HETATM   10  O1  PAP L   1      -3.125  14.879  -4.943  1.00  0.00    -0.361 OA
HETATM   11  H7  PAP L   1      -3.006  15.347  -5.786  1.00  0.00     0.217 HD
ENDBRANCH   3  10
TORSDOF 2
ENDMDL
MODEL 18
REMARK VINA RESULT:      -2.7      3.447      4.176
REMARK  2 active torsions:
REMARK  status: ('A' for Active; 'I' for Inactive)
REMARK    1  A    between atoms: C3_3  and  O1_10 
REMARK    2  A    between atoms: C6_6  and  N1_7 
ROOT
HETATM    1  C1  PAP L   1      -8.545   3.715  -1.650  1.00  0.00     0.026 A 
HETATM    2  C2  PAP L   1      -7.768   3.493  -2.790  1.00  0.00     0.038 A 
HETATM    3  C3  PAP L   1      -7.473   2.194  -3.179  1.00  0.00     0.065 A 
HETATM    4  C4  PAP L   1      -7.955   1.110  -2.454  1.00  0.00     0.038 A 
HETATM    5  C5  PAP L   1      -8.731   1.340  -1.313  1.00  0.00     0.026 A 
HETATM    6  C6  PAP L   1      -8.990   2.642  -0.872  1.00  0.00     0.005 A 
ENDROOT
BRANCH   6   7
HETATM    7  N1  PAP L   1      -9.864   2.862   0.198  1.00  0.00    -0.303 NA
HETATM    8  H5  PAP L   1     -10.844   2.848  -0.066  1.00  0.00     0.124 HD
HETATM    9  H6  PAP L   1      -9.628   3.672   0.761  1.00  0.00     0.124 HD
ENDBRANCH   6   7
BRANCH   3  10
HETATM   10  O1  PAP L   1      -6.715   2.020  -4.298  1.00  0.00    -0.361 OA
HETATM   11  H7  PAP L   1      -6.813   1.102  -4.599  1.00  0.00     0.217 HD
ENDBRANCH   3  10
TORSDOF 2
ENDMDL
MODEL 19
REMARK VINA RESULT:      -2.7     10.167     10.850
REMARK  2 active torsions:
REMARK  status: ('A' for Active; 'I' for Inactive)
REMARK    1  A    between atoms: C3_3  and  O1_10 
REMARK    2  A    between atoms: C6_6  and  N1_7 
ROOT
HETATM    1  C1  PAP L   1      -5.704  14.706  -5.447  1.00  0.00     0.026 A 
HETATM    2  C2  PAP L   1      -6.311  13.447  -5.469  1.00  0.00     0.038 A 
HETATM    3  C3  PAP L   1      -5.539  12.309  -5.279  1.00  0.00     0.065 A 
HETATM    4  C4  PAP L   1      -4.172  12.410  -5.050  1.00  0.00     0.038 A 
HETATM    5  C5  PAP L   1      -3.572  13.673  -5.030  1.00  0.00     0.026 A 
HETATM    6  C6  PAP L   1      -4.322  14.828  -5.278  1.00  0.00     0.005 A 
ENDROOT
BRANCH   6   7
HETATM    7  N1  PAP L   1      -3.737  16.091  -5.138  1.00  0.00    -0.303 NA
HETATM    8  H5  PAP L   1      -3.098  16.330  -5.888  1.00  0.00     0.124 HD
HETATM    9  H6  PAP L   1      -3.336  16.258  -4.221  1.00  0.00     0.124 HD
ENDBRANCH   6   7
BRANCH   3  10
HETATM   10  O1  PAP L   1      -6.168  11.101  -5.305  1.00  0.00    -0.361 OA
HETATM   11  H7  PAP L   1      -5.501  10.402  -5.211  1.00  0.00     0.217 HD
ENDBRANCH   3  10
TORSDOF 2
ENDMDL
MODEL 20
REMARK VINA RESULT:      -2.6      2.391      3.021
REMARK  2 active torsions:
REMARK  status: ('A' for Active; 'I' for Inactive)
REMARK    1  A    between atoms: C3_3  and  O1_10 
REMARK    2  A    between atoms: C6_6  and  N1_7 
ROOT
HETATM    1  C1  PAP L   1      -8.073   3.314  -2.560  1.00  0.00     0.026 A 
HETATM    2  C2  PAP L   1      -8.785   3.353  -1.358  1.00  0.00     0.038 A 
HETATM    3  C3  PAP L   1      -9.059   2.171  -0.683  1.00  0.00     0.065 A 
HETATM    4  C4  PAP L   1      -8.619   0.951  -1.183  1.00  0.00     0.038 A 
HETATM    5  C5  PAP L   1      -7.908   0.920  -2.387  1.00  0.00     0.026 A 
HETATM    6  C6  PAP L   1      -7.672   2.093  -3.111  1.00  0.00     0.005 A 
ENDROOT
BRANCH   6   7
HETATM    7  N1  PAP L   1      -6.859   2.067  -4.250  1.00  0.00    -0.303 NA
HETATM    8  H5  PAP L   1      -6.644   1.131  -4.576  1.00  0.00     0.124 HD
HETATM    9  H6  PAP L   1      -6.031   2.649  -4.176  1.00  0.00     0.124 HD
ENDBRANCH   6   7
BRANCH   3  10
HETATM   10  O1  PAP L   1      -9.754   2.251   0.486  1.00  0.00    -0.361 OA
HETATM   11  H7  PAP L   1     -10.689   2.063   0.305  1.00  0.00     0.217 HD
ENDBRANCH   3  10
TORSDOF 2
ENDMDL
