MODEL 1
REMARK VINA RESULT:      -4.3      0.000      0.000
REMARK  2 active torsions:
REMARK  status: ('A' for Active; 'I' for Inactive)
REMARK    1  A    between atoms: C3_3  and  O1_8 
REMARK    2  A    between atoms: C6_6  and  N1_7 
ROOT
HETATM    1  C1  UNL     1       6.955   6.946  -7.401  1.00  0.00     0.026 A 
HETATM    2  C2  UNL     1       6.525   6.248  -8.532  1.00  0.00     0.038 A 
HETATM    3  C3  UNL     1       5.191   5.881  -8.648  1.00  0.00     0.065 A 
HETATM    4  C4  UNL     1       4.276   6.216  -7.656  1.00  0.00     0.038 A 
HETATM    5  C5  UNL     1       4.714   6.913  -6.527  1.00  0.00     0.026 A 
HETATM    6  C6  UNL     1       6.064   7.240  -6.364  1.00  0.00     0.005 A 
ENDROOT
BRANCH   6   7
HETATM    7  N1  UNL     1       6.472   8.040  -5.290  1.00  0.00    -0.303 NA
HETATM    8  H5  UNL     1       6.983   7.532  -4.575  1.00  0.00     0.124 HD
HETATM    9  H6  UNL     1       5.731   8.613  -4.902  1.00  0.00     0.124 HD
ENDBRANCH   6   7
BRANCH   3  10
HETATM   10  O1  UNL     1       4.811   5.204  -9.768  1.00  0.00    -0.361 OA
HETATM   11  H7  UNL     1       5.218   5.628 -10.540  1.00  0.00     0.217 HD
ENDBRANCH   3  10
TORSDOF 2
ENDMDL
MODEL 2
REMARK VINA RESULT:      -4.3      2.405      2.948
REMARK  2 active torsions:
REMARK  status: ('A' for Active; 'I' for Inactive)
REMARK    1  A    between atoms: C3_3  and  O1_8 
REMARK    2  A    between atoms: C6_6  and  N1_7 
ROOT
HETATM    1  C1  UNL     1       7.033   6.889  -7.516  1.00  0.00     0.026 A 
HETATM    2  C2  UNL     1       6.074   7.230  -6.559  1.00  0.00     0.038 A 
HETATM    3  C3  UNL     1       4.791   6.711  -6.656  1.00  0.00     0.065 A 
HETATM    4  C4  UNL     1       4.455   5.841  -7.687  1.00  0.00     0.038 A 
HETATM    5  C5  UNL     1       5.420   5.505  -8.642  1.00  0.00     0.026 A 
HETATM    6  C6  UNL     1       6.701   6.064  -8.594  1.00  0.00     0.005 A 
ENDROOT
BRANCH   6   7
HETATM    7  N1  UNL     1       7.692   5.631  -9.482  1.00  0.00    -0.303 NA
HETATM    8  H5  UNL     1       7.419   5.688 -10.458  1.00  0.00     0.124 HD
HETATM    9  H6  UNL     1       8.089   4.728  -9.245  1.00  0.00     0.124 HD
ENDBRANCH   6   7
BRANCH   3  10
HETATM   10  O1  UNL     1       3.885   7.066  -5.701  1.00  0.00    -0.361 OA
HETATM   11  H7  UNL     1       3.955   8.021  -5.548  1.00  0.00     0.217 HD
ENDBRANCH   3  10
TORSDOF 2
ENDMDL
MODEL 3
REMARK VINA RESULT:      -4.2      2.778      3.681
REMARK  2 active torsions:
REMARK  status: ('A' for Active; 'I' for Inactive)
REMARK    1  A    between atoms: C3_3  and  O1_8 
REMARK    2  A    between atoms: C6_6  and  N1_7 
ROOT
HETATM    1  C1  UNL     1       4.333   6.260  -7.576  1.00  0.00     0.026 A 
HETATM    2  C2  UNL     1       4.771   6.955  -6.446  1.00  0.00     0.038 A 
HETATM    3  C3  UNL     1       6.109   7.301  -6.327  1.00  0.00     0.065 A 
HETATM    4  C4  UNL     1       7.016   6.976  -7.330  1.00  0.00     0.038 A 
HETATM    5  C5  UNL     1       6.571   6.279  -8.457  1.00  0.00     0.026 A 
HETATM    6  C6  UNL     1       5.238   5.871  -8.568  1.00  0.00     0.005 A 
ENDROOT
BRANCH   6   7
HETATM    7  N1  UNL     1       4.778   5.280  -9.750  1.00  0.00    -0.303 NA
HETATM    8  H5  UNL     1       4.381   4.355  -9.616  1.00  0.00     0.124 HD
HETATM    9  H6  UNL     1       5.448   5.307 -10.510  1.00  0.00     0.124 HD
ENDBRANCH   6   7
BRANCH   3  10
HETATM   10  O1  UNL     1       6.496   7.981  -5.212  1.00  0.00    -0.361 OA
HETATM   11  H7  UNL     1       5.703   8.246  -4.719  1.00  0.00     0.217 HD
ENDBRANCH   3  10
TORSDOF 2
ENDMDL
MODEL 4
REMARK VINA RESULT:      -4.2      2.780      3.264
REMARK  2 active torsions:
REMARK  status: ('A' for Active; 'I' for Inactive)
REMARK    1  A    between atoms: C3_3  and  O1_8 
REMARK    2  A    between atoms: C6_6  and  N1_7 
ROOT
HETATM    1  C1  UNL     1       6.506   6.442  -8.513  1.00  0.00     0.026 A 
HETATM    2  C2  UNL     1       6.941   7.094  -7.357  1.00  0.00     0.038 A 
HETATM    3  C3  UNL     1       6.044   7.341  -6.328  1.00  0.00     0.065 A 
HETATM    4  C4  UNL     1       4.719   6.931  -6.430  1.00  0.00     0.038 A 
HETATM    5  C5  UNL     1       4.290   6.281  -7.590  1.00  0.00     0.026 A 
HETATM    6  C6  UNL     1       5.165   6.075  -8.662  1.00  0.00     0.005 A 
ENDROOT
BRANCH   6   7
HETATM    7  N1  UNL     1       4.759   5.320  -9.768  1.00  0.00    -0.303 NA
HETATM    8  H5  UNL     1       3.752   5.221  -9.847  1.00  0.00     0.124 HD
HETATM    9  H6  UNL     1       5.242   4.432  -9.858  1.00  0.00     0.124 HD
ENDBRANCH   6   7
BRANCH   3  10
HETATM   10  O1  UNL     1       6.508   7.976  -5.215  1.00  0.00    -0.361 OA
HETATM   11  H7  UNL     1       7.456   7.787  -5.123  1.00  0.00     0.217 HD
ENDBRANCH   3  10
TORSDOF 2
ENDMDL
MODEL 5
REMARK VINA RESULT:      -4.2      2.934      3.653
REMARK  2 active torsions:
REMARK  status: ('A' for Active; 'I' for Inactive)
REMARK    1  A    between atoms: C3_3  and  O1_8 
REMARK    2  A    between atoms: C6_6  and  N1_7 
ROOT
HETATM    1  C1  UNL     1       4.789   5.773  -9.675  1.00  0.00     0.026 A 
HETATM    2  C2  UNL     1       4.825   6.737 -10.685  1.00  0.00     0.038 A 
HETATM    3  C3  UNL     1       6.035   7.319 -11.037  1.00  0.00     0.065 A 
HETATM    4  C4  UNL     1       7.213   6.940 -10.404  1.00  0.00     0.038 A 
HETATM    5  C5  UNL     1       7.169   5.975  -9.393  1.00  0.00     0.026 A 
HETATM    6  C6  UNL     1       5.952   5.420  -8.984  1.00  0.00     0.005 A 
ENDROOT
BRANCH   6   7
HETATM    7  N1  UNL     1       5.931   4.372  -8.057  1.00  0.00    -0.303 NA
HETATM    8  H5  UNL     1       6.098   4.670  -7.101  1.00  0.00     0.124 HD
HETATM    9  H6  UNL     1       6.507   3.580  -8.320  1.00  0.00     0.124 HD
ENDBRANCH   6   7
BRANCH   3  10
HETATM   10  O1  UNL     1       6.029   8.253 -12.029  1.00  0.00    -0.361 OA
HETATM   11  H7  UNL     1       5.201   8.171 -12.527  1.00  0.00     0.217 HD
ENDBRANCH   3  10
TORSDOF 2
ENDMDL
MODEL 6
REMARK VINA RESULT:      -4.1      3.195      3.930
REMARK  2 active torsions:
REMARK  status: ('A' for Active; 'I' for Inactive)
REMARK    1  A    between atoms: C3_3  and  O1_8 
REMARK    2  A    between atoms: C6_6  and  N1_7 
ROOT
HETATM    1  C1  UNL     1       4.764   6.672 -10.553  1.00  0.00     0.026 A 
HETATM    2  C2  UNL     1       4.780   5.694  -9.556  1.00  0.00     0.038 A 
HETATM    3  C3  UNL     1       5.985   5.316  -8.982  1.00  0.00     0.065 A 
HETATM    4  C4  UNL     1       7.176   5.914  -9.379  1.00  0.00     0.038 A 
HETATM    5  C5  UNL     1       7.153   6.891 -10.379  1.00  0.00     0.026 A 
HETATM    6  C6  UNL     1       5.955   7.243 -11.010  1.00  0.00     0.005 A 
ENDROOT
BRANCH   6   7
HETATM    7  N1  UNL     1       5.925   8.304 -11.922  1.00  0.00    -0.303 NA
HETATM    8  H5  UNL     1       6.086   9.212 -11.498  1.00  0.00     0.124 HD
HETATM    9  H6  UNL     1       5.112   8.300 -12.529  1.00  0.00     0.124 HD
ENDBRANCH   6   7
BRANCH   3  10
HETATM   10  O1  UNL     1       5.959   4.361  -8.011  1.00  0.00    -0.361 OA
HETATM   11  H7  UNL     1       6.841   4.300  -7.612  1.00  0.00     0.217 HD
ENDBRANCH   3  10
TORSDOF 2
ENDMDL
MODEL 7
REMARK VINA RESULT:      -4.1      2.154      3.017
REMARK  2 active torsions:
REMARK  status: ('A' for Active; 'I' for Inactive)
REMARK    1  A    between atoms: C3_3  and  O1_8 
REMARK    2  A    between atoms: C6_6  and  N1_7 
ROOT
HETATM    1  C1  UNL     1       7.044   7.769  -7.692  1.00  0.00     0.026 A 
HETATM    2  C2  UNL     1       6.558   6.470  -7.858  1.00  0.00     0.038 A 
HETATM    3  C3  UNL     1       6.813   5.785  -9.037  1.00  0.00     0.065 A 
HETATM    4  C4  UNL     1       7.563   6.375 -10.049  1.00  0.00     0.038 A 
HETATM    5  C5  UNL     1       8.045   7.675  -9.877  1.00  0.00     0.026 A 
HETATM    6  C6  UNL     1       7.748   8.403  -8.720  1.00  0.00     0.005 A 
ENDROOT
BRANCH   6   7
HETATM    7  N1  UNL     1       8.333   9.656  -8.505  1.00  0.00    -0.303 NA
HETATM    8  H5  UNL     1       9.124   9.633  -7.868  1.00  0.00     0.124 HD
HETATM    9  H6  UNL     1       7.668  10.385  -8.270  1.00  0.00     0.124 HD
ENDBRANCH   6   7
BRANCH   3  10
HETATM   10  O1  UNL     1       6.324   4.519  -9.160  1.00  0.00    -0.361 OA
HETATM   11  H7  UNL     1       6.034   4.214  -8.286  1.00  0.00     0.217 HD
ENDBRANCH   3  10
TORSDOF 2
ENDMDL
MODEL 8
REMARK VINA RESULT:      -4.1      3.081      3.701
REMARK  2 active torsions:
REMARK  status: ('A' for Active; 'I' for Inactive)
REMARK    1  A    between atoms: C3_3  and  O1_8 
REMARK    2  A    between atoms: C6_6  and  N1_7 
ROOT
HETATM    1  C1  UNL     1       7.443   6.349  -9.953  1.00  0.00     0.026 A 
HETATM    2  C2  UNL     1       7.996   7.619  -9.775  1.00  0.00     0.038 A 
HETATM    3  C3  UNL     1       7.781   8.302  -8.586  1.00  0.00     0.065 A 
HETATM    4  C4  UNL     1       7.034   7.727  -7.564  1.00  0.00     0.038 A 
HETATM    5  C5  UNL     1       6.482   6.456  -7.750  1.00  0.00     0.026 A 
HETATM    6  C6  UNL     1       6.638   5.777  -8.963  1.00  0.00     0.005 A 
ENDROOT
BRANCH   6   7
HETATM    7  N1  UNL     1       6.185   4.460  -9.096  1.00  0.00    -0.303 NA
HETATM    8  H5  UNL     1       6.005   3.999  -8.210  1.00  0.00     0.124 HD
HETATM    9  H6  UNL     1       6.750   3.892  -9.719  1.00  0.00     0.124 HD
ENDBRANCH   6   7
BRANCH   3  10
HETATM   10  O1  UNL     1       8.340   9.538  -8.450  1.00  0.00    -0.361 OA
HETATM   11  H7  UNL     1       8.266  10.006  -9.296  1.00  0.00     0.217 HD
ENDBRANCH   3  10
TORSDOF 2
ENDMDL
MODEL 9
REMARK VINA RESULT:      -4.1      1.491      2.264
REMARK  2 active torsions:
REMARK  status: ('A' for Active; 'I' for Inactive)
REMARK    1  A    between atoms: C3_3  and  O1_8 
REMARK    2  A    between atoms: C6_6  and  N1_7 
ROOT
HETATM    1  C1  UNL     1       4.483   5.917  -8.032  1.00  0.00     0.026 A 
HETATM    2  C2  UNL     1       5.434   5.591  -9.001  1.00  0.00     0.038 A 
HETATM    3  C3  UNL     1       6.730   6.073  -8.883  1.00  0.00     0.065 A 
HETATM    4  C4  UNL     1       7.095   6.864  -7.799  1.00  0.00     0.038 A 
HETATM    5  C5  UNL     1       6.137   7.188  -6.834  1.00  0.00     0.026 A 
HETATM    6  C6  UNL     1       4.812   6.760  -6.966  1.00  0.00     0.005 A 
ENDROOT
BRANCH   6   7
HETATM    7  N1  UNL     1       3.891   6.988  -5.937  1.00  0.00    -0.303 NA
HETATM    8  H5  UNL     1       3.095   6.358  -5.955  1.00  0.00     0.124 HD
HETATM    9  H6  UNL     1       3.613   7.959  -5.842  1.00  0.00     0.124 HD
ENDBRANCH   6   7
BRANCH   3  10
HETATM   10  O1  UNL     1       7.629   5.731  -9.848  1.00  0.00    -0.361 OA
HETATM   11  H7  UNL     1       7.167   5.228 -10.538  1.00  0.00     0.217 HD
ENDBRANCH   3  10
TORSDOF 2
ENDMDL
MODEL 10
REMARK VINA RESULT:      -4.1      3.098      3.979
REMARK  2 active torsions:
REMARK  status: ('A' for Active; 'I' for Inactive)
REMARK    1  A    between atoms: C3_3  and  O1_8 
REMARK    2  A    between atoms: C6_6  and  N1_7 
ROOT
HETATM    1  C1  UNL     1       6.547   6.511  -7.725  1.00  0.00     0.026 A 
HETATM    2  C2  UNL     1       7.040   7.806  -7.555  1.00  0.00     0.038 A 
HETATM    3  C3  UNL     1       7.759   8.409  -8.578  1.00  0.00     0.065 A 
HETATM    4  C4  UNL     1       7.978   7.740  -9.777  1.00  0.00     0.038 A 
HETATM    5  C5  UNL     1       7.482   6.443  -9.940  1.00  0.00     0.026 A 
HETATM    6  C6  UNL     1       6.807   5.798  -8.899  1.00  0.00     0.005 A 
ENDROOT
BRANCH   6   7
HETATM    7  N1  UNL     1       6.213   4.549  -9.113  1.00  0.00    -0.303 NA
HETATM    8  H5  UNL     1       6.351   3.895  -8.348  1.00  0.00     0.124 HD
HETATM    9  H6  UNL     1       6.431   4.139 -10.015  1.00  0.00     0.124 HD
ENDBRANCH   6   7
BRANCH   3  10
HETATM   10  O1  UNL     1       8.221   9.674  -8.374  1.00  0.00    -0.361 OA
HETATM   11  H7  UNL     1       7.711  10.078  -7.654  1.00  0.00     0.217 HD
ENDBRANCH   3  10
TORSDOF 2
ENDMDL
MODEL 11
REMARK VINA RESULT:      -4.1      1.819      2.791
REMARK  2 active torsions:
REMARK  status: ('A' for Active; 'I' for Inactive)
REMARK    1  A    between atoms: C3_3  and  O1_8 
REMARK    2  A    between atoms: C6_6  and  N1_7 
ROOT
HETATM    1  C1  UNL     1       5.865   6.520  -8.175  1.00  0.00     0.026 A 
HETATM    2  C2  UNL     1       5.449   6.519  -9.508  1.00  0.00     0.038 A 
HETATM    3  C3  UNL     1       6.388   6.639 -10.522  1.00  0.00     0.065 A 
HETATM    4  C4  UNL     1       7.742   6.745 -10.223  1.00  0.00     0.038 A 
HETATM    5  C5  UNL     1       8.151   6.747  -8.886  1.00  0.00     0.026 A 
HETATM    6  C6  UNL     1       7.215   6.686  -7.850  1.00  0.00     0.005 A 
ENDROOT
BRANCH   6   7
HETATM    7  N1  UNL     1       7.640   6.569  -6.522  1.00  0.00    -0.303 NA
HETATM    8  H5  UNL     1       8.099   5.686  -6.317  1.00  0.00     0.124 HD
HETATM    9  H6  UNL     1       6.926   6.800  -5.840  1.00  0.00     0.124 HD
ENDBRANCH   6   7
BRANCH   3  10
HETATM   10  O1  UNL     1       5.943   6.631 -11.810  1.00  0.00    -0.361 OA
HETATM   11  H7  UNL     1       6.570   7.130 -12.357  1.00  0.00     0.217 HD
ENDBRANCH   3  10
TORSDOF 2
ENDMDL
MODEL 12
REMARK VINA RESULT:      -4.0      1.800      2.173
REMARK  2 active torsions:
REMARK  status: ('A' for Active; 'I' for Inactive)
REMARK    1  A    between atoms: C3_3  and  O1_8 
REMARK    2  A    between atoms: C6_6  and  N1_7 
ROOT
HETATM    1  C1  UNL     1       8.057   6.640  -8.903  1.00  0.00     0.026 A 
HETATM    2  C2  UNL     1       7.638   6.649 -10.235  1.00  0.00     0.038 A 
HETATM    3  C3  UNL     1       6.282   6.660 -10.529  1.00  0.00     0.065 A 
HETATM    4  C4  UNL     1       5.336   6.680  -9.509  1.00  0.00     0.038 A 
HETATM    5  C5  UNL     1       5.764   6.670  -8.178  1.00  0.00     0.026 A 
HETATM    6  C6  UNL     1       7.124   6.599  -7.862  1.00  0.00     0.005 A 
ENDROOT
BRANCH   6   7
HETATM    7  N1  UNL     1       7.545   6.710  -6.532  1.00  0.00    -0.303 NA
HETATM    8  H5  UNL     1       6.954   6.211  -5.874  1.00  0.00     0.124 HD
HETATM    9  H6  UNL     1       7.731   7.663  -6.239  1.00  0.00     0.124 HD
ENDBRANCH   6   7
BRANCH   3  10
HETATM   10  O1  UNL     1       5.913   6.671 -11.841  1.00  0.00    -0.361 OA
HETATM   11  H7  UNL     1       6.127   5.808 -12.230  1.00  0.00     0.217 HD
ENDBRANCH   3  10
TORSDOF 2
ENDMDL
MODEL 13
REMARK VINA RESULT:      -3.9      3.164      3.744
REMARK  2 active torsions:
REMARK  status: ('A' for Active; 'I' for Inactive)
REMARK    1  A    between atoms: C3_3  and  O1_8 
REMARK    2  A    between atoms: C6_6  and  N1_7 
ROOT
HETATM    1  C1  UNL     1       7.196   7.478 -10.114  1.00  0.00     0.026 A 
HETATM    2  C2  UNL     1       7.711   7.470  -8.815  1.00  0.00     0.038 A 
HETATM    3  C3  UNL     1       7.145   6.642  -7.856  1.00  0.00     0.065 A 
HETATM    4  C4  UNL     1       6.081   5.807  -8.181  1.00  0.00     0.038 A 
HETATM    5  C5  UNL     1       5.571   5.821  -9.482  1.00  0.00     0.026 A 
HETATM    6  C6  UNL     1       6.089   6.691 -10.446  1.00  0.00     0.005 A 
ENDROOT
BRANCH   6   7
HETATM    7  N1  UNL     1       5.653   6.613 -11.774  1.00  0.00    -0.303 NA
HETATM    8  H5  UNL     1       6.074   7.307 -12.383  1.00  0.00     0.124 HD
HETATM    9  H6  UNL     1       4.644   6.574 -11.872  1.00  0.00     0.124 HD
ENDBRANCH   6   7
BRANCH   3  10
HETATM   10  O1  UNL     1       7.677   6.662  -6.602  1.00  0.00    -0.361 OA
HETATM   11  H7  UNL     1       8.636   6.789  -6.674  1.00  0.00     0.217 HD
ENDBRANCH   3  10
TORSDOF 2
ENDMDL
MODEL 14
REMARK VINA RESULT:      -3.8      3.383      3.768
REMARK  2 active torsions:
REMARK  status: ('A' for Active; 'I' for Inactive)
REMARK    1  A    between atoms: C3_3  and  O1_8 
REMARK    2  A    between atoms: C6_6  and  N1_7 
ROOT
HETATM    1  C1  UNL     1       7.674   7.247 -10.491  1.00  0.00     0.026 A 
HETATM    2  C2  UNL     1       7.544   6.125  -9.669  1.00  0.00     0.038 A 
HETATM    3  C3  UNL     1       6.293   5.555  -9.478  1.00  0.00     0.065 A 
HETATM    4  C4  UNL     1       5.171   6.080 -10.109  1.00  0.00     0.038 A 
HETATM    5  C5  UNL     1       5.309   7.204 -10.929  1.00  0.00     0.026 A 
HETATM    6  C6  UNL     1       6.551   7.828 -11.088  1.00  0.00     0.005 A 
ENDROOT
BRANCH   6   7
HETATM    7  N1  UNL     1       6.701   8.877 -12.002  1.00  0.00    -0.303 NA
HETATM    8  H5  UNL     1       6.280   9.748 -11.696  1.00  0.00     0.124 HD
HETATM    9  H6  UNL     1       6.439   8.634 -12.952  1.00  0.00     0.124 HD
ENDBRANCH   6   7
BRANCH   3  10
HETATM   10  O1  UNL     1       6.208   4.460  -8.671  1.00  0.00    -0.361 OA
HETATM   11  H7  UNL     1       6.399   3.669  -9.201  1.00  0.00     0.217 HD
ENDBRANCH   3  10
TORSDOF 2
ENDMDL
MODEL 15
REMARK VINA RESULT:      -3.8      5.195      6.112
REMARK  2 active torsions:
REMARK  status: ('A' for Active; 'I' for Inactive)
REMARK    1  A    between atoms: C3_3  and  O1_8 
REMARK    2  A    between atoms: C6_6  and  N1_7 
ROOT
HETATM    1  C1  UNL     1       8.482   7.935 -10.217  1.00  0.00     0.026 A 
HETATM    2  C2  UNL     1       8.274   8.725  -9.084  1.00  0.00     0.038 A 
HETATM    3  C3  UNL     1       8.675  10.053  -9.089  1.00  0.00     0.065 A 
HETATM    4  C4  UNL     1       9.268  10.610 -10.217  1.00  0.00     0.038 A 
HETATM    5  C5  UNL     1       9.474   9.812 -11.347  1.00  0.00     0.026 A 
HETATM    6  C6  UNL     1       9.130   8.457 -11.341  1.00  0.00     0.005 A 
ENDROOT
BRANCH   6   7
HETATM    7  N1  UNL     1       9.231   7.699 -12.513  1.00  0.00    -0.303 NA
HETATM    8  H5  UNL     1      10.138   7.764 -12.964  1.00  0.00     0.124 HD
HETATM    9  H6  UNL     1       8.465   7.844 -13.162  1.00  0.00     0.124 HD
ENDBRANCH   6   7
BRANCH   3  10
HETATM   10  O1  UNL     1       8.452  10.791  -7.966  1.00  0.00    -0.361 OA
HETATM   11  H7  UNL     1       9.295  10.907  -7.499  1.00  0.00     0.217 HD
ENDBRANCH   3  10
TORSDOF 2
ENDMDL
MODEL 16
REMARK VINA RESULT:      -3.7      4.029      4.732
REMARK  2 active torsions:
REMARK  status: ('A' for Active; 'I' for Inactive)
REMARK    1  A    between atoms: C3_3  and  O1_8 
REMARK    2  A    between atoms: C6_6  and  N1_7 
ROOT
HETATM    1  C1  UNL     1       6.515   6.906 -10.781  1.00  0.00     0.026 A 
HETATM    2  C2  UNL     1       7.337   6.358  -9.794  1.00  0.00     0.038 A 
HETATM    3  C3  UNL     1       8.352   7.125  -9.241  1.00  0.00     0.065 A 
HETATM    4  C4  UNL     1       8.548   8.440  -9.649  1.00  0.00     0.038 A 
HETATM    5  C5  UNL     1       7.722   8.981 -10.639  1.00  0.00     0.026 A 
HETATM    6  C6  UNL     1       6.732   8.205 -11.249  1.00  0.00     0.005 A 
ENDROOT
BRANCH   6   7
HETATM    7  N1  UNL     1       5.835   8.789 -12.151  1.00  0.00    -0.303 NA
HETATM    8  H5  UNL     1       5.254   9.512 -11.738  1.00  0.00     0.124 HD
HETATM    9  H6  UNL     1       5.294   8.118 -12.685  1.00  0.00     0.124 HD
ENDBRANCH   6   7
BRANCH   3  10
HETATM   10  O1  UNL     1       9.131   6.556  -8.279  1.00  0.00    -0.361 OA
HETATM   11  H7  UNL     1       9.123   5.593  -8.403  1.00  0.00     0.217 HD
ENDBRANCH   3  10
TORSDOF 2
ENDMDL
MODEL 17
REMARK VINA RESULT:      -3.6      4.193      5.043
REMARK  2 active torsions:
REMARK  status: ('A' for Active; 'I' for Inactive)
REMARK    1  A    between atoms: C3_3  and  O1_8 
REMARK    2  A    between atoms: C6_6  and  N1_7 
ROOT
HETATM    1  C1  UNL     1       6.915   7.230  -9.537  1.00  0.00     0.026 A 
HETATM    2  C2  UNL     1       7.618   8.108  -8.710  1.00  0.00     0.038 A 
HETATM    3  C3  UNL     1       8.146   9.277  -9.239  1.00  0.00     0.065 A 
HETATM    4  C4  UNL     1       7.966   9.591 -10.582  1.00  0.00     0.038 A 
HETATM    5  C5  UNL     1       7.262   8.706 -11.404  1.00  0.00     0.026 A 
HETATM    6  C6  UNL     1       6.774   7.495 -10.903  1.00  0.00     0.005 A 
ENDROOT
BRANCH   6   7
HETATM    7  N1  UNL     1       5.969   6.675 -11.702  1.00  0.00    -0.303 NA
HETATM    8  H5  UNL     1       5.698   7.102 -12.582  1.00  0.00     0.124 HD
HETATM    9  H6  UNL     1       5.180   6.269 -11.210  1.00  0.00     0.124 HD
ENDBRANCH   6   7
BRANCH   3  10
HETATM   10  O1  UNL     1       8.823  10.109  -8.399  1.00  0.00    -0.361 OA
HETATM   11  H7  UNL     1       8.224  10.386  -7.687  1.00  0.00     0.217 HD
ENDBRANCH   3  10
TORSDOF 2
ENDMDL
MODEL 18
REMARK VINA RESULT:      -3.5      1.771      2.228
REMARK  2 active torsions:
REMARK  status: ('A' for Active; 'I' for Inactive)
REMARK    1  A    between atoms: C3_3  and  O1_8 
REMARK    2  A    between atoms: C6_6  and  N1_7 
ROOT
HETATM    1  C1  UNL     1       6.833   7.026  -9.527  1.00  0.00     0.026 A 
HETATM    2  C2  UNL     1       5.857   6.048  -9.327  1.00  0.00     0.038 A 
HETATM    3  C3  UNL     1       5.391   5.793  -8.045  1.00  0.00     0.065 A 
HETATM    4  C4  UNL     1       5.876   6.514  -6.960  1.00  0.00     0.038 A 
HETATM    5  C5  UNL     1       6.854   7.491  -7.167  1.00  0.00     0.026 A 
HETATM    6  C6  UNL     1       7.378   7.722  -8.443  1.00  0.00     0.005 A 
ENDROOT
BRANCH   6   7
HETATM    7  N1  UNL     1       8.267   8.781  -8.659  1.00  0.00    -0.303 NA
HETATM    8  H5  UNL     1       8.101   9.283  -9.526  1.00  0.00     0.124 HD
HETATM    9  H6  UNL     1       9.242   8.528  -8.540  1.00  0.00     0.124 HD
ENDBRANCH   6   7
BRANCH   3  10
HETATM   10  O1  UNL     1       4.437   4.833  -7.892  1.00  0.00    -0.361 OA
HETATM   11  H7  UNL     1       4.708   4.044  -8.389  1.00  0.00     0.217 HD
ENDBRANCH   3  10
TORSDOF 2
ENDMDL
MODEL 19
REMARK VINA RESULT:      -3.5      5.024      5.729
REMARK  2 active torsions:
REMARK  status: ('A' for Active; 'I' for Inactive)
REMARK    1  A    between atoms: C3_3  and  O1_8 
REMARK    2  A    between atoms: C6_6  and  N1_7 
ROOT
HETATM    1  C1  UNL     1       7.446   9.060 -11.773  1.00  0.00     0.026 A 
HETATM    2  C2  UNL     1       7.559  10.369 -11.300  1.00  0.00     0.038 A 
HETATM    3  C3  UNL     1       8.089  10.601 -10.038  1.00  0.00     0.065 A 
HETATM    4  C4  UNL     1       8.524   9.543  -9.248  1.00  0.00     0.038 A 
HETATM    5  C5  UNL     1       8.407   8.235  -9.728  1.00  0.00     0.026 A 
HETATM    6  C6  UNL     1       7.821   7.978 -10.972  1.00  0.00     0.005 A 
ENDROOT
BRANCH   6   7
HETATM    7  N1  UNL     1       7.817   6.679 -11.494  1.00  0.00    -0.303 NA
HETATM    8  H5  UNL     1       7.449   5.983 -10.853  1.00  0.00     0.124 HD
HETATM    9  H6  UNL     1       8.703   6.398 -11.902  1.00  0.00     0.124 HD
ENDBRANCH   6   7
BRANCH   3  10
HETATM   10  O1  UNL     1       8.185  11.892  -9.613  1.00  0.00    -0.361 OA
HETATM   11  H7  UNL     1       7.305  12.193  -9.336  1.00  0.00     0.217 HD
ENDBRANCH   3  10
TORSDOF 2
ENDMDL
