MODEL 1
REMARK VINA RESULT:      -4.5      0.000      0.000
REMARK  2 active torsions:
REMARK  status: ('A' for Active; 'I' for Inactive)
REMARK    1  A    between atoms: C3_3  and  O1_8 
REMARK    2  A    between atoms: C6_6  and  N1_7 
ROOT
HETATM    1  C1  UNL     1       7.879  10.627 -11.854  1.00  0.00     0.026 A 
HETATM    2  C2  UNL     1       7.860  10.489 -10.465  1.00  0.00     0.038 A 
HETATM    3  C3  UNL     1       8.428   9.368  -9.877  1.00  0.00     0.065 A 
HETATM    4  C4  UNL     1       9.030   8.387 -10.658  1.00  0.00     0.038 A 
HETATM    5  C5  UNL     1       9.044   8.532 -12.048  1.00  0.00     0.026 A 
HETATM    6  C6  UNL     1       8.425   9.625 -12.662  1.00  0.00     0.005 A 
ENDROOT
BRANCH   6   7
HETATM    7  N1  UNL     1       8.548   9.821 -14.043  1.00  0.00    -0.303 NA
HETATM    8  H5  UNL     1       7.673  10.057 -14.501  1.00  0.00     0.124 HD
HETATM    9  H6  UNL     1       9.045   9.077 -14.520  1.00  0.00     0.124 HD
ENDBRANCH   6   7
BRANCH   3  10
HETATM   10  O1  UNL     1       8.392   9.272  -8.518  1.00  0.00    -0.361 OA
HETATM   11  H7  UNL     1       8.538   8.345  -8.269  1.00  0.00     0.217 HD
ENDBRANCH   3  10
TORSDOF 2
ENDMDL
MODEL 2
REMARK VINA RESULT:      -4.5      2.782      3.683
REMARK  2 active torsions:
REMARK  status: ('A' for Active; 'I' for Inactive)
REMARK    1  A    between atoms: C3_3  and  O1_8 
REMARK    2  A    between atoms: C6_6  and  N1_7 
ROOT
HETATM    1  C1  UNL     1       8.958   8.553 -10.705  1.00  0.00     0.026 A 
HETATM    2  C2  UNL     1       9.022   8.627 -12.099  1.00  0.00     0.038 A 
HETATM    3  C3  UNL     1       8.486   9.726 -12.755  1.00  0.00     0.065 A 
HETATM    4  C4  UNL     1       7.901  10.763 -12.036  1.00  0.00     0.038 A 
HETATM    5  C5  UNL     1       7.839  10.681 -10.642  1.00  0.00     0.026 A 
HETATM    6  C6  UNL     1       8.321   9.555  -9.967  1.00  0.00     0.005 A 
ENDROOT
BRANCH   6   7
HETATM    7  N1  UNL     1       8.363   9.536  -8.568  1.00  0.00    -0.303 NA
HETATM    8  H5  UNL     1       8.641  10.421  -8.157  1.00  0.00     0.124 HD
HETATM    9  H6  UNL     1       8.881   8.752  -8.184  1.00  0.00     0.124 HD
ENDBRANCH   6   7
BRANCH   3  10
HETATM   10  O1  UNL     1       8.570   9.762 -14.114  1.00  0.00    -0.361 OA
HETATM   11  H7  UNL     1       8.702   8.857 -14.440  1.00  0.00     0.217 HD
ENDBRANCH   3  10
TORSDOF 2
ENDMDL
MODEL 3
REMARK VINA RESULT:      -4.4      2.363      3.120
REMARK  2 active torsions:
REMARK  status: ('A' for Active; 'I' for Inactive)
REMARK    1  A    between atoms: C3_3  and  O1_8 
REMARK    2  A    between atoms: C6_6  and  N1_7 
ROOT
HETATM    1  C1  UNL     1       8.713   9.827  -9.802  1.00  0.00     0.026 A 
HETATM    2  C2  UNL     1       8.978   8.649 -10.503  1.00  0.00     0.038 A 
HETATM    3  C3  UNL     1       8.697   8.579 -11.860  1.00  0.00     0.065 A 
HETATM    4  C4  UNL     1       8.170   9.677 -12.532  1.00  0.00     0.038 A 
HETATM    5  C5  UNL     1       7.906  10.852 -11.822  1.00  0.00     0.026 A 
HETATM    6  C6  UNL     1       8.128  10.923 -10.443  1.00  0.00     0.005 A 
ENDROOT
BRANCH   6   7
HETATM    7  N1  UNL     1       7.974  12.138  -9.766  1.00  0.00    -0.303 NA
HETATM    8  H5  UNL     1       7.979  12.045  -8.755  1.00  0.00     0.124 HD
HETATM    9  H6  UNL     1       7.195  12.697 -10.098  1.00  0.00     0.124 HD
ENDBRANCH   6   7
BRANCH   3  10
HETATM   10  O1  UNL     1       8.972   7.413 -12.510  1.00  0.00    -0.361 OA
HETATM   11  H7  UNL     1       9.707   6.971 -12.055  1.00  0.00     0.217 HD
ENDBRANCH   3  10
TORSDOF 2
ENDMDL
MODEL 4
REMARK VINA RESULT:      -4.4      1.769      2.271
REMARK  2 active torsions:
REMARK  status: ('A' for Active; 'I' for Inactive)
REMARK    1  A    between atoms: C3_3  and  O1_8 
REMARK    2  A    between atoms: C6_6  and  N1_7 
ROOT
HETATM    1  C1  UNL     1       8.325  10.065 -12.634  1.00  0.00     0.026 A 
HETATM    2  C2  UNL     1       7.914  11.279 -12.077  1.00  0.00     0.038 A 
HETATM    3  C3  UNL     1       7.860  11.419 -10.698  1.00  0.00     0.065 A 
HETATM    4  C4  UNL     1       8.228  10.369  -9.864  1.00  0.00     0.038 A 
HETATM    5  C5  UNL     1       8.637   9.157 -10.428  1.00  0.00     0.026 A 
HETATM    6  C6  UNL     1       8.642   8.977 -11.815  1.00  0.00     0.005 A 
ENDROOT
BRANCH   6   7
HETATM    7  N1  UNL     1       9.166   7.804 -12.372  1.00  0.00    -0.303 NA
HETATM    8  H5  UNL     1       9.292   7.852 -13.378  1.00  0.00     0.124 HD
HETATM    9  H6  UNL     1       8.682   6.961 -12.082  1.00  0.00     0.124 HD
ENDBRANCH   6   7
BRANCH   3  10
HETATM   10  O1  UNL     1       7.456  12.619 -10.194  1.00  0.00    -0.361 OA
HETATM   11  H7  UNL     1       6.699  12.934 -10.713  1.00  0.00     0.217 HD
ENDBRANCH   3  10
TORSDOF 2
ENDMDL
MODEL 5
REMARK VINA RESULT:      -4.4      2.330      2.886
REMARK  2 active torsions:
REMARK  status: ('A' for Active; 'I' for Inactive)
REMARK    1  A    between atoms: C3_3  and  O1_8 
REMARK    2  A    between atoms: C6_6  and  N1_7 
ROOT
HETATM    1  C1  UNL     1       8.022  11.151 -12.284  1.00  0.00     0.026 A 
HETATM    2  C2  UNL     1       8.469   9.932 -12.800  1.00  0.00     0.038 A 
HETATM    3  C3  UNL     1       8.781   8.892 -11.936  1.00  0.00     0.065 A 
HETATM    4  C4  UNL     1       8.638   9.047 -10.561  1.00  0.00     0.038 A 
HETATM    5  C5  UNL     1       8.191  10.270 -10.052  1.00  0.00     0.026 A 
HETATM    6  C6  UNL     1       7.928  11.348 -10.903  1.00  0.00     0.005 A 
ENDROOT
BRANCH   6   7
HETATM    7  N1  UNL     1       7.368  12.526 -10.396  1.00  0.00    -0.303 NA
HETATM    8  H5  UNL     1       7.548  13.344 -10.971  1.00  0.00     0.124 HD
HETATM    9  H6  UNL     1       7.575  12.690  -9.416  1.00  0.00     0.124 HD
ENDBRANCH   6   7
BRANCH   3  10
HETATM   10  O1  UNL     1       9.212   7.719 -12.478  1.00  0.00    -0.361 OA
HETATM   11  H7  UNL     1       8.475   7.086 -12.472  1.00  0.00     0.217 HD
ENDBRANCH   3  10
TORSDOF 2
ENDMDL
MODEL 6
REMARK VINA RESULT:      -4.2      2.497      2.879
REMARK  2 active torsions:
REMARK  status: ('A' for Active; 'I' for Inactive)
REMARK    1  A    between atoms: C3_3  and  O1_8 
REMARK    2  A    between atoms: C6_6  and  N1_7 
ROOT
HETATM    1  C1  UNL     1      10.490  11.607 -10.224  1.00  0.00     0.026 A 
HETATM    2  C2  UNL     1      10.110  12.143  -8.992  1.00  0.00     0.038 A 
HETATM    3  C3  UNL     1       9.069  11.562  -8.281  1.00  0.00     0.065 A 
HETATM    4  C4  UNL     1       8.413  10.441  -8.776  1.00  0.00     0.038 A 
HETATM    5  C5  UNL     1       8.799   9.910 -10.011  1.00  0.00     0.026 A 
HETATM    6  C6  UNL     1       9.805  10.517 -10.769  1.00  0.00     0.005 A 
ENDROOT
BRANCH   6   7
HETATM    7  N1  UNL     1      10.264   9.911 -11.945  1.00  0.00    -0.303 NA
HETATM    8  H5  UNL     1       9.539   9.769 -12.640  1.00  0.00     0.124 HD
HETATM    9  H6  UNL     1      10.818   9.076 -11.786  1.00  0.00     0.124 HD
ENDBRANCH   6   7
BRANCH   3  10
HETATM   10  O1  UNL     1       8.730  12.113  -7.082  1.00  0.00    -0.361 OA
HETATM   11  H7  UNL     1       9.343  11.785  -6.405  1.00  0.00     0.217 HD
ENDBRANCH   3  10
TORSDOF 2
ENDMDL
MODEL 7
REMARK VINA RESULT:      -4.0      1.687      2.535
REMARK  2 active torsions:
REMARK  status: ('A' for Active; 'I' for Inactive)
REMARK    1  A    between atoms: C3_3  and  O1_8 
REMARK    2  A    between atoms: C6_6  and  N1_7 
ROOT
HETATM    1  C1  UNL     1       8.697   9.354 -10.239  1.00  0.00     0.026 A 
HETATM    2  C2  UNL     1       8.909  10.280  -9.216  1.00  0.00     0.038 A 
HETATM    3  C3  UNL     1       8.582  11.614  -9.416  1.00  0.00     0.065 A 
HETATM    4  C4  UNL     1       8.030  12.033 -10.621  1.00  0.00     0.038 A 
HETATM    5  C5  UNL     1       7.821  11.101 -11.642  1.00  0.00     0.026 A 
HETATM    6  C6  UNL     1       8.199   9.764 -11.479  1.00  0.00     0.005 A 
ENDROOT
BRANCH   6   7
HETATM    7  N1  UNL     1       7.878   8.817 -12.459  1.00  0.00    -0.303 NA
HETATM    8  H5  UNL     1       8.687   8.348 -12.854  1.00  0.00     0.124 HD
HETATM    9  H6  UNL     1       7.246   9.163 -13.172  1.00  0.00     0.124 HD
ENDBRANCH   6   7
BRANCH   3  10
HETATM   10  O1  UNL     1       8.801  12.486  -8.393  1.00  0.00    -0.361 OA
HETATM   11  H7  UNL     1       8.347  13.320  -8.593  1.00  0.00     0.217 HD
ENDBRANCH   3  10
TORSDOF 2
ENDMDL
MODEL 8
REMARK VINA RESULT:      -4.0      2.085      2.549
REMARK  2 active torsions:
REMARK  status: ('A' for Active; 'I' for Inactive)
REMARK    1  A    between atoms: C3_3  and  O1_8 
REMARK    2  A    between atoms: C6_6  and  N1_7 
ROOT
HETATM    1  C1  UNL     1       8.208   8.904 -11.809  1.00  0.00     0.026 A 
HETATM    2  C2  UNL     1       7.358   9.942 -11.421  1.00  0.00     0.038 A 
HETATM    3  C3  UNL     1       7.870  11.220 -11.240  1.00  0.00     0.065 A 
HETATM    4  C4  UNL     1       9.219  11.479 -11.457  1.00  0.00     0.038 A 
HETATM    5  C5  UNL     1      10.064  10.434 -11.844  1.00  0.00     0.026 A 
HETATM    6  C6  UNL     1       9.578   9.129 -11.974  1.00  0.00     0.005 A 
ENDROOT
BRANCH   6   7
HETATM    7  N1  UNL     1      10.404   8.117 -12.475  1.00  0.00    -0.303 NA
HETATM    8  H5  UNL     1      11.220   7.934 -11.900  1.00  0.00     0.124 HD
HETATM    9  H6  UNL     1      10.640   8.227 -13.456  1.00  0.00     0.124 HD
ENDBRANCH   6   7
BRANCH   3  10
HETATM   10  O1  UNL     1       7.008  12.206 -10.865  1.00  0.00    -0.361 OA
HETATM   11  H7  UNL     1       6.478  11.886 -10.117  1.00  0.00     0.217 HD
ENDBRANCH   3  10
TORSDOF 2
ENDMDL
MODEL 9
REMARK VINA RESULT:      -4.0      2.388      3.081
REMARK  2 active torsions:
REMARK  status: ('A' for Active; 'I' for Inactive)
REMARK    1  A    between atoms: C3_3  and  O1_8 
REMARK    2  A    between atoms: C6_6  and  N1_7 
ROOT
HETATM    1  C1  UNL     1       7.677  11.426 -10.981  1.00  0.00     0.026 A 
HETATM    2  C2  UNL     1       7.811  10.116 -10.514  1.00  0.00     0.038 A 
HETATM    3  C3  UNL     1       8.551   9.867  -9.366  1.00  0.00     0.065 A 
HETATM    4  C4  UNL     1       9.147  10.912  -8.668  1.00  0.00     0.038 A 
HETATM    5  C5  UNL     1       9.010  12.220  -9.142  1.00  0.00     0.026 A 
HETATM    6  C6  UNL     1       8.317  12.484 -10.328  1.00  0.00     0.005 A 
ENDROOT
BRANCH   6   7
HETATM    7  N1  UNL     1       8.085  13.804 -10.729  1.00  0.00    -0.303 NA
HETATM    8  H5  UNL     1       7.594  14.360 -10.036  1.00  0.00     0.124 HD
HETATM    9  H6  UNL     1       7.673  13.886 -11.653  1.00  0.00     0.124 HD
ENDBRANCH   6   7
BRANCH   3  10
HETATM   10  O1  UNL     1       8.656   8.577  -8.942  1.00  0.00    -0.361 OA
HETATM   11  H7  UNL     1       9.294   8.542  -8.212  1.00  0.00     0.217 HD
ENDBRANCH   3  10
TORSDOF 2
ENDMDL
MODEL 10
REMARK VINA RESULT:      -3.9     11.526     11.996
REMARK  2 active torsions:
REMARK  status: ('A' for Active; 'I' for Inactive)
REMARK    1  A    between atoms: C3_3  and  O1_8 
REMARK    2  A    between atoms: C6_6  and  N1_7 
ROOT
HETATM    1  C1  UNL     1      -1.294   2.630  -5.987  1.00  0.00     0.026 A 
HETATM    2  C2  UNL     1      -0.777   2.960  -4.733  1.00  0.00     0.038 A 
HETATM    3  C3  UNL     1       0.548   3.356  -4.617  1.00  0.00     0.065 A 
HETATM    4  C4  UNL     1       1.361   3.442  -5.741  1.00  0.00     0.038 A 
HETATM    5  C5  UNL     1       0.837   3.108  -6.994  1.00  0.00     0.026 A 
HETATM    6  C6  UNL     1      -0.478   2.651  -7.122  1.00  0.00     0.005 A 
ENDROOT
BRANCH   6   7
HETATM    7  N1  UNL     1      -1.028   2.434  -8.391  1.00  0.00    -0.303 NA
HETATM    8  H5  UNL     1      -1.668   1.647  -8.429  1.00  0.00     0.124 HD
HETATM    9  H6  UNL     1      -0.342   2.411  -9.137  1.00  0.00     0.124 HD
ENDBRANCH   6   7
BRANCH   3  10
HETATM   10  O1  UNL     1       1.014   3.673  -3.376  1.00  0.00    -0.361 OA
HETATM   11  H7  UNL     1       0.506   3.173  -2.718  1.00  0.00     0.217 HD
ENDBRANCH   3  10
TORSDOF 2
ENDMDL
MODEL 11
REMARK VINA RESULT:      -3.7      3.090      3.732
REMARK  2 active torsions:
REMARK  status: ('A' for Active; 'I' for Inactive)
REMARK    1  A    between atoms: C3_3  and  O1_8 
REMARK    2  A    between atoms: C6_6  and  N1_7 
ROOT
HETATM    1  C1  UNL     1       8.797  11.651  -9.412  1.00  0.00     0.026 A 
HETATM    2  C2  UNL     1       8.739  12.548 -10.480  1.00  0.00     0.038 A 
HETATM    3  C3  UNL     1       8.216  12.135 -11.697  1.00  0.00     0.065 A 
HETATM    4  C4  UNL     1       7.734  10.841 -11.858  1.00  0.00     0.038 A 
HETATM    5  C5  UNL     1       7.796   9.948 -10.784  1.00  0.00     0.026 A 
HETATM    6  C6  UNL     1       8.374  10.328  -9.568  1.00  0.00     0.005 A 
ENDROOT
BRANCH   6   7
HETATM    7  N1  UNL     1       8.323   9.467  -8.465  1.00  0.00    -0.303 NA
HETATM    8  H5  UNL     1       8.801   9.828  -7.645  1.00  0.00     0.124 HD
HETATM    9  H6  UNL     1       8.588   8.512  -8.678  1.00  0.00     0.124 HD
ENDBRANCH   6   7
BRANCH   3  10
HETATM   10  O1  UNL     1       8.174  13.041 -12.715  1.00  0.00    -0.361 OA
HETATM   11  H7  UNL     1       8.324  12.574 -13.552  1.00  0.00     0.217 HD
ENDBRANCH   3  10
TORSDOF 2
ENDMDL
MODEL 12
REMARK VINA RESULT:      -3.7     11.780     12.329
REMARK  2 active torsions:
REMARK  status: ('A' for Active; 'I' for Inactive)
REMARK    1  A    between atoms: C3_3  and  O1_8 
REMARK    2  A    between atoms: C6_6  and  N1_7 
ROOT
HETATM    1  C1  UNL     1      -0.781   2.985  -4.869  1.00  0.00     0.026 A 
HETATM    2  C2  UNL     1      -1.333   2.656  -6.110  1.00  0.00     0.038 A 
HETATM    3  C3  UNL     1      -0.540   2.699  -7.248  1.00  0.00     0.065 A 
HETATM    4  C4  UNL     1       0.803   3.051  -7.163  1.00  0.00     0.038 A 
HETATM    5  C5  UNL     1       1.347   3.380  -5.918  1.00  0.00     0.026 A 
HETATM    6  C6  UNL     1       0.550   3.400  -4.769  1.00  0.00     0.005 A 
ENDROOT
BRANCH   6   7
HETATM    7  N1  UNL     1       1.130   3.614  -3.513  1.00  0.00    -0.303 NA
HETATM    8  H5  UNL     1       0.475   3.952  -2.814  1.00  0.00     0.124 HD
HETATM    9  H6  UNL     1       1.982   4.163  -3.542  1.00  0.00     0.124 HD
ENDBRANCH   6   7
BRANCH   3  10
HETATM   10  O1  UNL     1      -1.114   2.369  -8.439  1.00  0.00    -0.361 OA
HETATM   11  H7  UNL     1      -0.956   3.089  -9.070  1.00  0.00     0.217 HD
ENDBRANCH   3  10
TORSDOF 2
ENDMDL
MODEL 13
REMARK VINA RESULT:      -3.6      3.252      3.829
REMARK  2 active torsions:
REMARK  status: ('A' for Active; 'I' for Inactive)
REMARK    1  A    between atoms: C3_3  and  O1_8 
REMARK    2  A    between atoms: C6_6  and  N1_7 
ROOT
HETATM    1  C1  UNL     1       8.787   9.394 -10.765  1.00  0.00     0.026 A 
HETATM    2  C2  UNL     1       9.494   9.836 -11.885  1.00  0.00     0.038 A 
HETATM    3  C3  UNL     1      10.306  10.957 -11.786  1.00  0.00     0.065 A 
HETATM    4  C4  UNL     1      10.435  11.635 -10.579  1.00  0.00     0.038 A 
HETATM    5  C5  UNL     1       9.723  11.187  -9.462  1.00  0.00     0.026 A 
HETATM    6  C6  UNL     1       8.854  10.095  -9.557  1.00  0.00     0.005 A 
ENDROOT
BRANCH   6   7
HETATM    7  N1  UNL     1       8.239   9.582  -8.409  1.00  0.00    -0.303 NA
HETATM    8  H5  UNL     1       7.244   9.412  -8.521  1.00  0.00     0.124 HD
HETATM    9  H6  UNL     1       8.449  10.103  -7.564  1.00  0.00     0.124 HD
ENDBRANCH   6   7
BRANCH   3  10
HETATM   10  O1  UNL     1      10.982  11.356 -12.900  1.00  0.00    -0.361 OA
HETATM   11  H7  UNL     1      10.691  12.251 -13.136  1.00  0.00     0.217 HD
ENDBRANCH   3  10
TORSDOF 2
ENDMDL
MODEL 14
REMARK VINA RESULT:      -3.5      2.578      2.875
REMARK  2 active torsions:
REMARK  status: ('A' for Active; 'I' for Inactive)
REMARK    1  A    between atoms: C3_3  and  O1_8 
REMARK    2  A    between atoms: C6_6  and  N1_7 
ROOT
HETATM    1  C1  UNL     1       8.823  11.025 -10.641  1.00  0.00     0.026 A 
HETATM    2  C2  UNL     1       7.645  10.424 -11.089  1.00  0.00     0.038 A 
HETATM    3  C3  UNL     1       7.655   9.681 -12.262  1.00  0.00     0.065 A 
HETATM    4  C4  UNL     1       8.830   9.517 -12.986  1.00  0.00     0.038 A 
HETATM    5  C5  UNL     1      10.005  10.123 -12.532  1.00  0.00     0.026 A 
HETATM    6  C6  UNL     1      10.003  10.923 -11.385  1.00  0.00     0.005 A 
ENDROOT
BRANCH   6   7
HETATM    7  N1  UNL     1      11.205  11.426 -10.873  1.00  0.00    -0.303 NA
HETATM    8  H5  UNL     1      11.964  11.431 -11.547  1.00  0.00     0.124 HD
HETATM    9  H6  UNL     1      11.477  11.015  -9.987  1.00  0.00     0.124 HD
ENDBRANCH   6   7
BRANCH   3  10
HETATM   10  O1  UNL     1       6.486   9.108 -12.664  1.00  0.00    -0.361 OA
HETATM   11  H7  UNL     1       6.220   9.506 -13.509  1.00  0.00     0.217 HD
ENDBRANCH   3  10
TORSDOF 2
ENDMDL
MODEL 15
REMARK VINA RESULT:      -3.4      3.407      4.156
REMARK  2 active torsions:
REMARK  status: ('A' for Active; 'I' for Inactive)
REMARK    1  A    between atoms: C3_3  and  O1_8 
REMARK    2  A    between atoms: C6_6  and  N1_7 
ROOT
HETATM    1  C1  UNL     1       9.643  11.016 -10.732  1.00  0.00     0.026 A 
HETATM    2  C2  UNL     1       8.285  11.308 -10.875  1.00  0.00     0.038 A 
HETATM    3  C3  UNL     1       7.835  12.604 -10.672  1.00  0.00     0.065 A 
HETATM    4  C4  UNL     1       8.726  13.620 -10.344  1.00  0.00     0.038 A 
HETATM    5  C5  UNL     1      10.084  13.320 -10.201  1.00  0.00     0.026 A 
HETATM    6  C6  UNL     1      10.548  12.008 -10.344  1.00  0.00     0.005 A 
ENDROOT
BRANCH   6   7
HETATM    7  N1  UNL     1      11.922  11.739 -10.317  1.00  0.00    -0.303 NA
HETATM    8  H5  UNL     1      12.235  11.302  -9.456  1.00  0.00     0.124 HD
HETATM    9  H6  UNL     1      12.500  12.530 -10.581  1.00  0.00     0.124 HD
ENDBRANCH   6   7
BRANCH   3  10
HETATM   10  O1  UNL     1       6.503  12.849 -10.824  1.00  0.00    -0.361 OA
HETATM   11  H7  UNL     1       6.273  13.641 -10.312  1.00  0.00     0.217 HD
ENDBRANCH   3  10
TORSDOF 2
ENDMDL
MODEL 16
REMARK VINA RESULT:      -3.4      3.316      3.745
REMARK  2 active torsions:
REMARK  status: ('A' for Active; 'I' for Inactive)
REMARK    1  A    between atoms: C3_3  and  O1_8 
REMARK    2  A    between atoms: C6_6  and  N1_7 
ROOT
HETATM    1  C1  UNL     1      11.256  11.299 -12.015  1.00  0.00     0.026 A 
HETATM    2  C2  UNL     1      10.699  10.333 -12.855  1.00  0.00     0.038 A 
HETATM    3  C3  UNL     1       9.583   9.621 -12.439  1.00  0.00     0.065 A 
HETATM    4  C4  UNL     1       9.004   9.872 -11.200  1.00  0.00     0.038 A 
HETATM    5  C5  UNL     1       9.569  10.840 -10.364  1.00  0.00     0.026 A 
HETATM    6  C6  UNL     1      10.728  11.526 -10.741  1.00  0.00     0.005 A 
ENDROOT
BRANCH   6   7
HETATM    7  N1  UNL     1      11.214  12.574  -9.951  1.00  0.00    -0.303 NA
HETATM    8  H5  UNL     1      11.678  12.265  -9.103  1.00  0.00     0.124 HD
HETATM    9  H6  UNL     1      10.534  13.305  -9.774  1.00  0.00     0.124 HD
ENDBRANCH   6   7
BRANCH   3  10
HETATM   10  O1  UNL     1       9.067   8.688 -13.288  1.00  0.00    -0.361 OA
HETATM   11  H7  UNL     1       9.312   7.806 -12.965  1.00  0.00     0.217 HD
ENDBRANCH   3  10
TORSDOF 2
ENDMDL
MODEL 17
REMARK VINA RESULT:      -3.2     10.449     10.619
REMARK  2 active torsions:
REMARK  status: ('A' for Active; 'I' for Inactive)
REMARK    1  A    between atoms: C3_3  and  O1_8 
REMARK    2  A    between atoms: C6_6  and  N1_7 
ROOT
HETATM    1  C1  UNL     1       1.149   2.635 -11.545  1.00  0.00     0.026 A 
HETATM    2  C2  UNL     1       0.480   2.290 -10.368  1.00  0.00     0.038 A 
HETATM    3  C3  UNL     1      -0.649   3.001  -9.986  1.00  0.00     0.065 A 
HETATM    4  C4  UNL     1      -1.130   4.043 -10.772  1.00  0.00     0.038 A 
HETATM    5  C5  UNL     1      -0.454   4.383 -11.948  1.00  0.00     0.026 A 
HETATM    6  C6  UNL     1       0.719   3.717 -12.319  1.00  0.00     0.005 A 
ENDROOT
BRANCH   6   7
HETATM    7  N1  UNL     1       1.320   3.984 -13.554  1.00  0.00    -0.303 NA
HETATM    8  H5  UNL     1       2.310   3.759 -13.583  1.00  0.00     0.124 HD
HETATM    9  H6  UNL     1       1.124   4.912 -13.914  1.00  0.00     0.124 HD
ENDBRANCH   6   7
BRANCH   3  10
HETATM   10  O1  UNL     1      -1.276   2.632  -8.834  1.00  0.00    -0.361 OA
HETATM   11  H7  UNL     1      -0.602   2.415  -8.170  1.00  0.00     0.217 HD
ENDBRANCH   3  10
TORSDOF 2
ENDMDL
MODEL 18
REMARK VINA RESULT:      -3.2      3.534      3.829
REMARK  2 active torsions:
REMARK  status: ('A' for Active; 'I' for Inactive)
REMARK    1  A    between atoms: C3_3  and  O1_8 
REMARK    2  A    between atoms: C6_6  and  N1_7 
ROOT
HETATM    1  C1  UNL     1       9.270  11.510  -9.709  1.00  0.00     0.026 A 
HETATM    2  C2  UNL     1       9.732  11.590  -8.393  1.00  0.00     0.038 A 
HETATM    3  C3  UNL     1      11.062  11.904  -8.149  1.00  0.00     0.065 A 
HETATM    4  C4  UNL     1      11.934  12.156  -9.202  1.00  0.00     0.038 A 
HETATM    5  C5  UNL     1      11.465  12.074 -10.516  1.00  0.00     0.026 A 
HETATM    6  C6  UNL     1      10.144  11.702 -10.783  1.00  0.00     0.005 A 
ENDROOT
BRANCH   6   7
HETATM    7  N1  UNL     1       9.653  11.738 -12.094  1.00  0.00    -0.303 NA
HETATM    8  H5  UNL     1      10.376  11.850 -12.797  1.00  0.00     0.124 HD
HETATM    9  H6  UNL     1       8.883  12.385 -12.225  1.00  0.00     0.124 HD
ENDBRANCH   6   7
BRANCH   3  10
HETATM   10  O1  UNL     1      11.473  11.974  -6.852  1.00  0.00    -0.361 OA
HETATM   11  H7  UNL     1      10.716  12.227  -6.300  1.00  0.00     0.217 HD
ENDBRANCH   3  10
TORSDOF 2
ENDMDL
MODEL 19
REMARK VINA RESULT:      -3.2     10.816     11.087
REMARK  2 active torsions:
REMARK  status: ('A' for Active; 'I' for Inactive)
REMARK    1  A    between atoms: C3_3  and  O1_8 
REMARK    2  A    between atoms: C6_6  and  N1_7 
ROOT
HETATM    1  C1  UNL     1       0.724   2.584 -10.015  1.00  0.00     0.026 A 
HETATM    2  C2  UNL     1       1.273   3.027 -11.220  1.00  0.00     0.038 A 
HETATM    3  C3  UNL     1       0.504   3.789 -12.088  1.00  0.00     0.065 A 
HETATM    4  C4  UNL     1      -0.804   4.130 -11.761  1.00  0.00     0.038 A 
HETATM    5  C5  UNL     1      -1.348   3.681 -10.553  1.00  0.00     0.026 A 
HETATM    6  C6  UNL     1      -0.607   2.863  -9.693  1.00  0.00     0.005 A 
ENDROOT
BRANCH   6   7
HETATM    7  N1  UNL     1      -1.117   2.519  -8.436  1.00  0.00    -0.303 NA
HETATM    8  H5  UNL     1      -0.425   2.552  -7.693  1.00  0.00     0.124 HD
HETATM    9  H6  UNL     1      -1.649   1.655  -8.431  1.00  0.00     0.124 HD
ENDBRANCH   6   7
BRANCH   3  10
HETATM   10  O1  UNL     1       1.077   4.205 -13.252  1.00  0.00    -0.361 OA
HETATM   11  H7  UNL     1       0.517   3.919 -13.992  1.00  0.00     0.217 HD
ENDBRANCH   3  10
TORSDOF 2
ENDMDL
