MODEL 1
REMARK VINA RESULT:      -7.1      0.000      0.000
REMARK  27 active torsions:
REMARK  status: ('A' for Active; 'I' for Inactive)
REMARK    1  A    between atoms: C2_2  and  S1_4 
REMARK    2  A    between atoms: S1_4  and  C3_5 
REMARK    3  A    between atoms: C3_5  and  C4_6 
REMARK    4  A    between atoms: C4_6  and  N1_7 
REMARK       I    between atoms: N1_7  and  C5_8 
REMARK    5  A    between atoms: C5_8  and  C6_10 
REMARK    6  A    between atoms: C6_10  and  C7_11 
REMARK    7  A    between atoms: C7_11  and  N2_12 
REMARK       I    between atoms: N2_12  and  C8_13 
REMARK    8  A    between atoms: C8_13  and  C9_15 
REMARK    9  A    between atoms: C9_15  and  C10_16 
REMARK   10  A    between atoms: C9_15  and  O17_54 
REMARK   11  A    between atoms: C10_16  and  C13_19 
REMARK   12  A    between atoms: C13_19  and  O4_20 
REMARK   13  A    between atoms: O4_20  and  P1_21 
REMARK   14  A    between atoms: P1_21  and  O6_23 
REMARK   15  A    between atoms: P1_21  and  O7_24 
REMARK   16  A    between atoms: O7_24  and  P2_25 
REMARK   17  A    between atoms: P2_25  and  O9_27 
REMARK   18  A    between atoms: P2_25  and  O10_28 
REMARK   19  A    between atoms: O10_28  and  C14_29 
REMARK   20  A    between atoms: C14_29  and  C15_30 
REMARK   21  A    between atoms: C16_31  and  O13_49 
REMARK   22  A    between atoms: C17_32  and  O12_48 
REMARK   23  A    between atoms: C18_33  and  N3_35 
REMARK   24  A    between atoms: C21_40  and  N7_47 
REMARK   25  A    between atoms: O13_49  and  P3_50 
REMARK   26  A    between atoms: P3_50  and  O15_52 
REMARK   27  A    between atoms: P3_50  and  O16_53 
ROOT
HETATM    1  C1  UNL     1      -0.798   3.126  -5.038  1.00  0.00     0.104 C 
HETATM    2  C2  UNL     1       0.606   3.490  -5.411  1.00  0.00     0.182 C 
HETATM    3  O1  UNL     1       1.372   4.085  -4.656  1.00  0.00    -0.286 OA
ENDROOT
BRANCH   2   4
HETATM    4  S1  UNL     1       1.066   3.029  -7.045  1.00  0.00    -0.091 SA
BRANCH   4   5
HETATM    5  C3  UNL     1      -0.580   2.860  -7.808  1.00  0.00     0.102 C 
BRANCH   5   6
HETATM    6  C4  UNL     1      -0.503   2.215  -9.193  1.00  0.00     0.133 C 
BRANCH   6   7
HETATM    7  N1  UNL     1       0.254   3.009 -10.139  1.00  0.00    -0.360 N 
HETATM    8  C5  UNL     1      -0.363   3.866 -11.020  1.00  0.00     0.219 C 
HETATM    9  O2  UNL     1      -1.582   3.951 -11.115  1.00  0.00    -0.274 OA
HETATM   10  H8  UNL     1       1.262   2.932 -10.142  1.00  0.00     0.162 HD
BRANCH   8  11
HETATM   11  C6  UNL     1       0.610   4.641 -11.882  1.00  0.00     0.122 C 
BRANCH  11  12
HETATM   12  C7  UNL     1       0.548   6.143 -11.605  1.00  0.00     0.132 C 
BRANCH  12  13
HETATM   13  N2  UNL     1       1.418   6.916 -12.466  1.00  0.00    -0.358 N 
HETATM   14  C8  UNL     1       2.009   8.075 -11.999  1.00  0.00     0.247 C 
HETATM   15  O3  UNL     1       1.735   8.552 -10.905  1.00  0.00    -0.271 OA
HETATM   16  H13 UNL     1       1.929   6.382 -13.166  1.00  0.00     0.162 HD
BRANCH  14  17
HETATM   17  C9  UNL     1       3.043   8.699 -12.949  1.00  0.00     0.219 C 
BRANCH  17  18
HETATM   18  C10 UNL     1       2.584  10.019 -13.622  1.00  0.00     0.009 C 
HETATM   19  C11 UNL     1       1.233   9.865 -14.336  1.00  0.00     0.020 C 
HETATM   20  C12 UNL     1       2.450  11.160 -12.593  1.00  0.00     0.020 C 
BRANCH  18  21
HETATM   21  C13 UNL     1       3.686  10.375 -14.660  1.00  0.00     0.192 C 
BRANCH  21  22
HETATM   22  O4  UNL     1       4.639  11.282 -14.144  1.00  0.00    -0.296 OA
BRANCH  22  23
HETATM   23  P1  UNL     1       6.195  11.223 -14.527  1.00  0.00     0.401 P 
HETATM   24  O5  UNL     1       6.463  11.209 -15.999  1.00  0.00    -0.631 OA
BRANCH  23  25
HETATM   25  O6  UNL     1       6.819   9.963 -13.742  1.00  0.00    -0.307 OA
HETATM   26  H23 UNL     1       7.642   9.657 -14.145  1.00  0.00     0.222 HD
ENDBRANCH  23  25
BRANCH  23  27
HETATM   27  O7  UNL     1       6.858  12.436 -13.741  1.00  0.00    -0.195 OA
BRANCH  27  28
HETATM   28  P2  UNL     1       6.854  12.416 -12.148  1.00  0.00     0.401 P 
HETATM   29  O8  UNL     1       6.778  13.738 -11.455  1.00  0.00    -0.631 OA
BRANCH  28  30
HETATM   30  O9  UNL     1       5.652  11.426 -11.797  1.00  0.00    -0.307 OA
HETATM   31  H24 UNL     1       4.955  11.375 -12.495  1.00  0.00     0.222 HD
ENDBRANCH  28  30
BRANCH  28  32
HETATM   32  O10 UNL     1       8.108  11.502 -11.771  1.00  0.00    -0.294 OA
BRANCH  32  33
HETATM   33  C14 UNL     1       8.565  11.450 -10.444  1.00  0.00     0.215 C 
BRANCH  33  34
HETATM   34  C15 UNL     1       9.053  10.020 -10.217  1.00  0.00     0.180 C 
HETATM   35  C16 UNL     1       9.059   9.262 -11.538  1.00  0.00     0.197 C 
HETATM   36  C17 UNL     1       8.070   8.130 -11.336  1.00  0.00     0.199 C 
HETATM   37  C18 UNL     1       8.094   7.947  -9.816  1.00  0.00     0.262 C 
HETATM   38  O11 UNL     1       8.234   9.289  -9.298  1.00  0.00    -0.353 OA
BRANCH  35  39
HETATM   39  O13 UNL     1      10.381   8.785 -11.767  1.00  0.00    -0.286 OA
BRANCH  39  40
HETATM   40  P3  UNL     1      11.163   9.475 -12.979  1.00  0.00     0.391 P 
HETATM   41  O14 UNL     1      11.952  10.680 -12.578  1.00  0.00    -0.632 OA
BRANCH  40  42
HETATM   42  O15 UNL     1       9.970   9.685 -14.024  1.00  0.00    -0.307 OA
HETATM   43  H36 UNL     1      10.153   9.201 -14.864  1.00  0.00     0.222 HD
ENDBRANCH  40  42
BRANCH  40  44
HETATM   44  O16 UNL     1      11.961   8.240 -13.584  1.00  0.00    -0.307 OA
HETATM   45  H37 UNL     1      11.527   7.390 -13.409  1.00  0.00     0.222 HD
ENDBRANCH  40  44
ENDBRANCH  39  40
ENDBRANCH  35  39
BRANCH  36  46
HETATM   46  O12 UNL     1       8.434   7.003 -12.138  1.00  0.00    -0.388 OA
HETATM   47  H35 UNL     1       7.712   6.889 -12.801  1.00  0.00     0.210 HD
ENDBRANCH  36  46
BRANCH  37  48
HETATM   48  N3  UNL     1       6.865   7.375  -9.305  1.00  0.00    -0.297 N 
HETATM   49  C19 UNL     1       5.951   6.615  -9.996  1.00  0.00     0.188 A 
HETATM   50  N4  UNL     1       5.005   6.140  -9.215  1.00  0.00    -0.346 N 
HETATM   51  C20 UNL     1       5.324   6.612  -7.954  1.00  0.00     0.116 A 
HETATM   52  H4  UNL     1       4.213   5.555  -9.480  1.00  0.00     0.167 HD
HETATM   53  C21 UNL     1       4.737   6.427  -6.691  1.00  0.00     0.109 A 
HETATM   54  C23 UNL     1       6.452   7.411  -8.002  1.00  0.00     0.142 A 
HETATM   55  N5  UNL     1       5.291   7.046  -5.620  1.00  0.00    -0.341 N 
HETATM   56  C22 UNL     1       6.379   7.816  -5.821  1.00  0.00     0.183 A 
HETATM   57  H5  UNL     1       4.895   6.932  -4.687  1.00  0.00     0.167 HD
HETATM   58  N6  UNL     1       7.031   8.059  -6.976  1.00  0.00    -0.336 N 
HETATM   59  H6  UNL     1       7.854   8.656  -7.061  1.00  0.00     0.168 HD
BRANCH  53  60
HETATM   60  N7  UNL     1       3.609   5.648  -6.481  1.00  0.00    -0.287 NA
HETATM   61  H33 UNL     1       3.799   4.740  -6.063  1.00  0.00     0.125 HD
HETATM   62  H34 UNL     1       2.968   5.664  -7.263  1.00  0.00     0.125 HD
ENDBRANCH  53  60
ENDBRANCH  37  48
ENDBRANCH  33  34
ENDBRANCH  32  33
ENDBRANCH  28  32
ENDBRANCH  27  28
ENDBRANCH  23  27
ENDBRANCH  22  23
ENDBRANCH  21  22
ENDBRANCH  18  21
ENDBRANCH  17  18
BRANCH  17  63
HETATM   63  O17 UNL     1       4.268   8.946 -12.251  1.00  0.00    -0.385 OA
HETATM   64  H38 UNL     1       4.695   9.720 -12.655  1.00  0.00     0.210 HD
ENDBRANCH  17  63
ENDBRANCH  14  17
ENDBRANCH  12  13
ENDBRANCH  11  12
ENDBRANCH   8  11
ENDBRANCH   6   7
ENDBRANCH   5   6
ENDBRANCH   4   5
ENDBRANCH   2   4
TORSDOF 27
ENDMDL
MODEL 2
REMARK VINA RESULT:      -6.9      5.454      8.182
REMARK  27 active torsions:
REMARK  status: ('A' for Active; 'I' for Inactive)
REMARK    1  A    between atoms: C2_2  and  S1_4 
REMARK    2  A    between atoms: S1_4  and  C3_5 
REMARK    3  A    between atoms: C3_5  and  C4_6 
REMARK    4  A    between atoms: C4_6  and  N1_7 
REMARK       I    between atoms: N1_7  and  C5_8 
REMARK    5  A    between atoms: C5_8  and  C6_10 
REMARK    6  A    between atoms: C6_10  and  C7_11 
REMARK    7  A    between atoms: C7_11  and  N2_12 
REMARK       I    between atoms: N2_12  and  C8_13 
REMARK    8  A    between atoms: C8_13  and  C9_15 
REMARK    9  A    between atoms: C9_15  and  C10_16 
REMARK   10  A    between atoms: C9_15  and  O17_54 
REMARK   11  A    between atoms: C10_16  and  C13_19 
REMARK   12  A    between atoms: C13_19  and  O4_20 
REMARK   13  A    between atoms: O4_20  and  P1_21 
REMARK   14  A    between atoms: P1_21  and  O6_23 
REMARK   15  A    between atoms: P1_21  and  O7_24 
REMARK   16  A    between atoms: O7_24  and  P2_25 
REMARK   17  A    between atoms: P2_25  and  O9_27 
REMARK   18  A    between atoms: P2_25  and  O10_28 
REMARK   19  A    between atoms: O10_28  and  C14_29 
REMARK   20  A    between atoms: C14_29  and  C15_30 
REMARK   21  A    between atoms: C16_31  and  O13_49 
REMARK   22  A    between atoms: C17_32  and  O12_48 
REMARK   23  A    between atoms: C18_33  and  N3_35 
REMARK   24  A    between atoms: C21_40  and  N7_47 
REMARK   25  A    between atoms: O13_49  and  P3_50 
REMARK   26  A    between atoms: P3_50  and  O15_52 
REMARK   27  A    between atoms: P3_50  and  O16_53 
ROOT
HETATM    1  C1  UNL     1       6.188   7.271  -6.550  1.00  0.00     0.104 C 
HETATM    2  C2  UNL     1       5.300   6.737  -7.632  1.00  0.00     0.182 C 
HETATM    3  O1  UNL     1       4.085   6.920  -7.658  1.00  0.00    -0.286 OA
ENDROOT
BRANCH   2   4
HETATM    4  S1  UNL     1       6.134   5.785  -8.852  1.00  0.00    -0.091 SA
BRANCH   4   5
HETATM    5  C3  UNL     1       5.736   6.751 -10.345  1.00  0.00     0.102 C 
BRANCH   5   6
HETATM    6  C4  UNL     1       4.519   6.188 -11.081  1.00  0.00     0.133 C 
BRANCH   6   7
HETATM    7  N1  UNL     1       3.326   6.986 -10.884  1.00  0.00    -0.360 N 
HETATM    8  C5  UNL     1       2.339   7.061 -11.839  1.00  0.00     0.219 C 
HETATM    9  O2  UNL     1       2.443   6.529 -12.938  1.00  0.00    -0.274 OA
HETATM   10  H8  UNL     1       3.218   7.493 -10.015  1.00  0.00     0.162 HD
BRANCH   8  11
HETATM   11  C6  UNL     1       1.155   7.902 -11.412  1.00  0.00     0.122 C 
BRANCH  11  12
HETATM   12  C7  UNL     1       0.667   8.813 -12.538  1.00  0.00     0.132 C 
BRANCH  12  13
HETATM   13  N2  UNL     1       1.732   9.254 -13.413  1.00  0.00    -0.358 N 
HETATM   14  C8  UNL     1       1.602  10.430 -14.129  1.00  0.00     0.247 C 
HETATM   15  O3  UNL     1       0.559  11.071 -14.146  1.00  0.00    -0.271 OA
HETATM   16  H13 UNL     1       2.671   8.981 -13.133  1.00  0.00     0.162 HD
BRANCH  14  17
HETATM   17  C9  UNL     1       2.869  10.872 -14.877  1.00  0.00     0.219 C 
BRANCH  17  18
HETATM   18  C10 UNL     1       3.827  11.766 -14.047  1.00  0.00     0.009 C 
HETATM   19  C11 UNL     1       3.751  11.457 -12.545  1.00  0.00     0.020 C 
HETATM   20  C12 UNL     1       5.293  11.592 -14.494  1.00  0.00     0.020 C 
BRANCH  18  21
HETATM   21  C13 UNL     1       3.372  13.231 -14.303  1.00  0.00     0.192 C 
BRANCH  21  22
HETATM   22  O4  UNL     1       2.659  13.772 -13.209  1.00  0.00    -0.296 OA
BRANCH  22  23
HETATM   23  P1  UNL     1       1.188  14.396 -13.351  1.00  0.00     0.401 P 
HETATM   24  O5  UNL     1       0.247  13.999 -12.258  1.00  0.00    -0.631 OA
BRANCH  23  25
HETATM   25  O6  UNL     1       0.665  14.023 -14.827  1.00  0.00    -0.307 OA
HETATM   26  H23 UNL     1       1.374  14.059 -15.482  1.00  0.00     0.222 HD
ENDBRANCH  23  25
BRANCH  23  27
HETATM   27  O7  UNL     1       1.420  15.964 -13.492  1.00  0.00    -0.195 OA
BRANCH  27  28
HETATM   28  P2  UNL     1       0.180  16.946 -13.298  1.00  0.00     0.401 P 
HETATM   29  O8  UNL     1       0.156  18.180 -14.140  1.00  0.00    -0.631 OA
BRANCH  28  30
HETATM   30  O9  UNL     1      -1.081  15.990 -13.509  1.00  0.00    -0.307 OA
HETATM   31  H24 UNL     1      -1.817  16.400 -14.026  1.00  0.00     0.222 HD
ENDBRANCH  28  30
BRANCH  28  32
HETATM   32  O10 UNL     1       0.113  17.176 -11.720  1.00  0.00    -0.294 OA
BRANCH  32  33
HETATM   33  C14 UNL     1       0.987  18.087 -11.105  1.00  0.00     0.215 C 
BRANCH  33  34
HETATM   34  C15 UNL     1       1.431  17.436  -9.796  1.00  0.00     0.180 C 
HETATM   35  C16 UNL     1       2.433  16.327 -10.086  1.00  0.00     0.197 C 
HETATM   36  C17 UNL     1       1.761  15.062  -9.585  1.00  0.00     0.199 C 
HETATM   37  C18 UNL     1       0.806  15.605  -8.519  1.00  0.00     0.262 C 
HETATM   38  O11 UNL     1       0.344  16.862  -9.061  1.00  0.00    -0.353 OA
BRANCH  35  39
HETATM   39  O13 UNL     1       3.631  16.617  -9.374  1.00  0.00    -0.286 OA
BRANCH  39  40
HETATM   40  P3  UNL     1       4.988  16.393 -10.188  1.00  0.00     0.391 P 
HETATM   41  O14 UNL     1       5.756  17.650 -10.437  1.00  0.00    -0.632 OA
BRANCH  40  42
HETATM   42  O15 UNL     1       4.444  15.592 -11.462  1.00  0.00    -0.307 OA
HETATM   43  H36 UNL     1       4.218  14.663 -11.219  1.00  0.00     0.222 HD
ENDBRANCH  40  42
BRANCH  40  44
HETATM   44  O16 UNL     1       5.692  15.260  -9.322  1.00  0.00    -0.307 OA
HETATM   45  H37 UNL     1       5.302  15.164  -8.439  1.00  0.00     0.222 HD
ENDBRANCH  40  44
ENDBRANCH  39  40
ENDBRANCH  35  39
BRANCH  36  46
HETATM   46  O12 UNL     1       2.744  14.112  -9.163  1.00  0.00    -0.388 OA
HETATM   47  H35 UNL     1       2.261  13.424  -8.647  1.00  0.00     0.210 HD
ENDBRANCH  36  46
BRANCH  37  48
HETATM   48  N3  UNL     1      -0.339  14.741  -8.306  1.00  0.00    -0.297 N 
HETATM   49  C19 UNL     1      -0.567  13.913  -7.232  1.00  0.00     0.188 A 
HETATM   50  N4  UNL     1      -1.757  13.357  -7.275  1.00  0.00    -0.346 N 
HETATM   51  C20 UNL     1      -2.332  13.852  -8.433  1.00  0.00     0.116 A 
HETATM   52  H4  UNL     1      -2.166  12.706  -6.605  1.00  0.00     0.167 HD
HETATM   53  C21 UNL     1      -3.598  13.676  -9.018  1.00  0.00     0.109 A 
HETATM   54  C23 UNL     1      -1.449  14.680  -9.101  1.00  0.00     0.142 A 
HETATM   55  N5  UNL     1      -3.863  14.303 -10.191  1.00  0.00    -0.341 N 
HETATM   56  C22 UNL     1      -2.895  15.063 -10.741  1.00  0.00     0.183 A 
HETATM   57  H5  UNL     1      -4.771  14.203 -10.644  1.00  0.00     0.167 HD
HETATM   58  N6  UNL     1      -1.655  15.311 -10.271  1.00  0.00    -0.336 N 
HETATM   59  H6  UNL     1      -0.966  15.899 -10.740  1.00  0.00     0.168 HD
BRANCH  53  60
HETATM   60  N7  UNL     1      -4.591  12.885  -8.464  1.00  0.00    -0.287 NA
HETATM   61  H33 UNL     1      -5.168  13.359  -7.773  1.00  0.00     0.125 HD
HETATM   62  H34 UNL     1      -4.270  11.955  -8.229  1.00  0.00     0.125 HD
ENDBRANCH  53  60
ENDBRANCH  37  48
ENDBRANCH  33  34
ENDBRANCH  32  33
ENDBRANCH  28  32
ENDBRANCH  27  28
ENDBRANCH  23  27
ENDBRANCH  22  23
ENDBRANCH  21  22
ENDBRANCH  18  21
ENDBRANCH  17  18
BRANCH  17  63
HETATM   63  O17 UNL     1       3.597   9.726 -15.332  1.00  0.00    -0.385 OA
HETATM   64  H38 UNL     1       3.333   8.965 -14.788  1.00  0.00     0.210 HD
ENDBRANCH  17  63
ENDBRANCH  14  17
ENDBRANCH  12  13
ENDBRANCH  11  12
ENDBRANCH   8  11
ENDBRANCH   6   7
ENDBRANCH   5   6
ENDBRANCH   4   5
ENDBRANCH   2   4
TORSDOF 27
ENDMDL
MODEL 3
REMARK VINA RESULT:      -6.7      4.752      6.850
REMARK  27 active torsions:
REMARK  status: ('A' for Active; 'I' for Inactive)
REMARK    1  A    between atoms: C2_2  and  S1_4 
REMARK    2  A    between atoms: S1_4  and  C3_5 
REMARK    3  A    between atoms: C3_5  and  C4_6 
REMARK    4  A    between atoms: C4_6  and  N1_7 
REMARK       I    between atoms: N1_7  and  C5_8 
REMARK    5  A    between atoms: C5_8  and  C6_10 
REMARK    6  A    between atoms: C6_10  and  C7_11 
REMARK    7  A    between atoms: C7_11  and  N2_12 
REMARK       I    between atoms: N2_12  and  C8_13 
REMARK    8  A    between atoms: C8_13  and  C9_15 
REMARK    9  A    between atoms: C9_15  and  C10_16 
REMARK   10  A    between atoms: C9_15  and  O17_54 
REMARK   11  A    between atoms: C10_16  and  C13_19 
REMARK   12  A    between atoms: C13_19  and  O4_20 
REMARK   13  A    between atoms: O4_20  and  P1_21 
REMARK   14  A    between atoms: P1_21  and  O6_23 
REMARK   15  A    between atoms: P1_21  and  O7_24 
REMARK   16  A    between atoms: O7_24  and  P2_25 
REMARK   17  A    between atoms: P2_25  and  O9_27 
REMARK   18  A    between atoms: P2_25  and  O10_28 
REMARK   19  A    between atoms: O10_28  and  C14_29 
REMARK   20  A    between atoms: C14_29  and  C15_30 
REMARK   21  A    between atoms: C16_31  and  O13_49 
REMARK   22  A    between atoms: C17_32  and  O12_48 
REMARK   23  A    between atoms: C18_33  and  N3_35 
REMARK   24  A    between atoms: C21_40  and  N7_47 
REMARK   25  A    between atoms: O13_49  and  P3_50 
REMARK   26  A    between atoms: P3_50  and  O15_52 
REMARK   27  A    between atoms: P3_50  and  O16_53 
ROOT
HETATM    1  C1  UNL     1       3.848  18.982  -6.911  1.00  0.00     0.104 C 
HETATM    2  C2  UNL     1       2.672  18.160  -6.481  1.00  0.00     0.182 C 
HETATM    3  O1  UNL     1       2.364  17.986  -5.304  1.00  0.00    -0.286 OA
ENDROOT
BRANCH   2   4
HETATM    4  S1  UNL     1       1.779  17.423  -7.805  1.00  0.00    -0.091 SA
BRANCH   4   5
HETATM    5  C3  UNL     1       0.556  16.450  -6.869  1.00  0.00     0.102 C 
BRANCH   5   6
HETATM    6  C4  UNL     1       0.309  15.081  -7.506  1.00  0.00     0.133 C 
BRANCH   6   7
HETATM    7  N1  UNL     1      -0.447  15.166  -8.739  1.00  0.00    -0.360 N 
HETATM    8  C5  UNL     1      -1.666  14.546  -8.885  1.00  0.00     0.219 C 
HETATM    9  O2  UNL     1      -2.146  13.823  -8.020  1.00  0.00    -0.274 OA
HETATM   10  H8  UNL     1      -0.066  15.703  -9.506  1.00  0.00     0.162 HD
BRANCH   8  11
HETATM   11  C6  UNL     1      -2.313  14.805 -10.228  1.00  0.00     0.122 C 
BRANCH  11  12
HETATM   12  C7  UNL     1      -1.723  16.035 -10.917  1.00  0.00     0.132 C 
BRANCH  12  13
HETATM   13  N2  UNL     1      -0.944  15.709 -12.093  1.00  0.00    -0.358 N 
HETATM   14  C8  UNL     1       0.413  15.971 -12.125  1.00  0.00     0.247 C 
HETATM   15  O3  UNL     1       0.979  16.586 -11.230  1.00  0.00    -0.271 OA
HETATM   16  H13 UNL     1      -1.277  14.911 -12.631  1.00  0.00     0.162 HD
BRANCH  14  17
HETATM   17  C9  UNL     1       1.148  15.416 -13.354  1.00  0.00     0.219 C 
BRANCH  17  18
HETATM   18  C10 UNL     1       2.254  14.379 -13.026  1.00  0.00     0.009 C 
HETATM   19  C11 UNL     1       3.597  15.049 -12.700  1.00  0.00     0.020 C 
HETATM   20  C12 UNL     1       1.861  13.493 -11.827  1.00  0.00     0.020 C 
BRANCH  18  21
HETATM   21  C13 UNL     1       2.405  13.499 -14.301  1.00  0.00     0.192 C 
BRANCH  21  22
HETATM   22  O4  UNL     1       2.820  12.182 -14.000  1.00  0.00    -0.296 OA
BRANCH  22  23
HETATM   23  P1  UNL     1       4.140  11.521 -14.627  1.00  0.00     0.401 P 
HETATM   24  O5  UNL     1       4.435  11.954 -16.028  1.00  0.00    -0.631 OA
BRANCH  23  25
HETATM   25  O6  UNL     1       3.986   9.927 -14.459  1.00  0.00    -0.307 OA
HETATM   26  H23 UNL     1       3.345   9.558 -15.081  1.00  0.00     0.222 HD
ENDBRANCH  23  25
BRANCH  23  27
HETATM   27  O7  UNL     1       5.294  11.832 -13.577  1.00  0.00    -0.195 OA
BRANCH  27  28
HETATM   28  P2  UNL     1       6.508  10.810 -13.442  1.00  0.00     0.401 P 
HETATM   29  O8  UNL     1       6.224   9.507 -12.769  1.00  0.00    -0.631 OA
BRANCH  28  30
HETATM   30  O9  UNL     1       7.035  10.666 -14.943  1.00  0.00    -0.307 OA
HETATM   31  H24 UNL     1       6.604   9.938 -15.454  1.00  0.00     0.222 HD
ENDBRANCH  28  30
BRANCH  28  32
HETATM   32  O10 UNL     1       7.680  11.685 -12.802  1.00  0.00    -0.294 OA
BRANCH  32  33
HETATM   33  C14 UNL     1       7.601  12.093 -11.461  1.00  0.00     0.215 C 
BRANCH  33  34
HETATM   34  C15 UNL     1       8.599  11.229 -10.692  1.00  0.00     0.180 C 
HETATM   35  C16 UNL     1       9.578  10.583 -11.664  1.00  0.00     0.197 C 
HETATM   36  C17 UNL     1       9.349   9.092 -11.506  1.00  0.00     0.199 C 
HETATM   37  C18 UNL     1       8.792   9.000 -10.084  1.00  0.00     0.262 C 
HETATM   38  O11 UNL     1       7.972  10.181  -9.945  1.00  0.00    -0.353 OA
BRANCH  35  39
HETATM   39  O13 UNL     1      10.895  10.968 -11.284  1.00  0.00    -0.286 OA
BRANCH  39  40
HETATM   40  P3  UNL     1      11.760  11.681 -12.423  1.00  0.00     0.391 P 
HETATM   41  O14 UNL     1      11.148  12.941 -12.946  1.00  0.00    -0.632 OA
BRANCH  40  42
HETATM   42  O15 UNL     1      11.958  10.472 -13.451  1.00  0.00    -0.307 OA
HETATM   43  H36 UNL     1      11.085  10.140 -13.771  1.00  0.00     0.222 HD
ENDBRANCH  40  42
BRANCH  40  44
HETATM   44  O16 UNL     1      13.181  11.792 -11.717  1.00  0.00    -0.307 OA
HETATM   45  H37 UNL     1      13.631  10.935 -11.642  1.00  0.00     0.222 HD
ENDBRANCH  40  44
ENDBRANCH  39  40
ENDBRANCH  35  39
BRANCH  36  46
HETATM   46  O12 UNL     1      10.553   8.373 -11.788  1.00  0.00    -0.388 OA
HETATM   47  H35 UNL     1      10.530   7.562 -11.226  1.00  0.00     0.210 HD
ENDBRANCH  36  46
BRANCH  37  48
HETATM   48  N3  UNL     1       7.961   7.829  -9.886  1.00  0.00    -0.297 N 
HETATM   49  C19 UNL     1       7.702   6.831 -10.796  1.00  0.00     0.188 A 
HETATM   50  N4  UNL     1       7.013   5.843 -10.269  1.00  0.00    -0.346 N 
HETATM   51  C20 UNL     1       6.819   6.216  -8.951  1.00  0.00     0.116 A 
HETATM   52  H4  UNL     1       6.692   4.991 -10.729  1.00  0.00     0.167 HD
HETATM   53  C21 UNL     1       6.200   5.580  -7.861  1.00  0.00     0.109 A 
HETATM   54  C23 UNL     1       7.368   7.463  -8.710  1.00  0.00     0.142 A 
HETATM   55  N5  UNL     1       6.163   6.224  -6.669  1.00  0.00    -0.341 N 
HETATM   56  C22 UNL     1       6.720   7.448  -6.588  1.00  0.00     0.183 A 
HETATM   57  H5  UNL     1       5.725   5.792  -5.855  1.00  0.00     0.167 HD
HETATM   58  N6  UNL     1       7.345   8.150  -7.555  1.00  0.00    -0.336 N 
HETATM   59  H6  UNL     1       7.747   9.079  -7.428  1.00  0.00     0.168 HD
BRANCH  53  60
HETATM   60  N7  UNL     1       5.613   4.327  -7.943  1.00  0.00    -0.287 NA
HETATM   61  H33 UNL     1       6.276   3.559  -8.033  1.00  0.00     0.125 HD
HETATM   62  H34 UNL     1       4.808   4.307  -8.554  1.00  0.00     0.125 HD
ENDBRANCH  53  60
ENDBRANCH  37  48
ENDBRANCH  33  34
ENDBRANCH  32  33
ENDBRANCH  28  32
ENDBRANCH  27  28
ENDBRANCH  23  27
ENDBRANCH  22  23
ENDBRANCH  21  22
ENDBRANCH  18  21
ENDBRANCH  17  18
BRANCH  17  63
HETATM   63  O17 UNL     1       0.214  14.814 -14.257  1.00  0.00    -0.385 OA
HETATM   64  H38 UNL     1      -0.572  14.553 -13.748  1.00  0.00     0.210 HD
ENDBRANCH  17  63
ENDBRANCH  14  17
ENDBRANCH  12  13
ENDBRANCH  11  12
ENDBRANCH   8  11
ENDBRANCH   6   7
ENDBRANCH   5   6
ENDBRANCH   4   5
ENDBRANCH   2   4
TORSDOF 27
ENDMDL
MODEL 4
REMARK VINA RESULT:      -6.4      5.459      8.499
REMARK  27 active torsions:
REMARK  status: ('A' for Active; 'I' for Inactive)
REMARK    1  A    between atoms: C2_2  and  S1_4 
REMARK    2  A    between atoms: S1_4  and  C3_5 
REMARK    3  A    between atoms: C3_5  and  C4_6 
REMARK    4  A    between atoms: C4_6  and  N1_7 
REMARK       I    between atoms: N1_7  and  C5_8 
REMARK    5  A    between atoms: C5_8  and  C6_10 
REMARK    6  A    between atoms: C6_10  and  C7_11 
REMARK    7  A    between atoms: C7_11  and  N2_12 
REMARK       I    between atoms: N2_12  and  C8_13 
REMARK    8  A    between atoms: C8_13  and  C9_15 
REMARK    9  A    between atoms: C9_15  and  C10_16 
REMARK   10  A    between atoms: C9_15  and  O17_54 
REMARK   11  A    between atoms: C10_16  and  C13_19 
REMARK   12  A    between atoms: C13_19  and  O4_20 
REMARK   13  A    between atoms: O4_20  and  P1_21 
REMARK   14  A    between atoms: P1_21  and  O6_23 
REMARK   15  A    between atoms: P1_21  and  O7_24 
REMARK   16  A    between atoms: O7_24  and  P2_25 
REMARK   17  A    between atoms: P2_25  and  O9_27 
REMARK   18  A    between atoms: P2_25  and  O10_28 
REMARK   19  A    between atoms: O10_28  and  C14_29 
REMARK   20  A    between atoms: C14_29  and  C15_30 
REMARK   21  A    between atoms: C16_31  and  O13_49 
REMARK   22  A    between atoms: C17_32  and  O12_48 
REMARK   23  A    between atoms: C18_33  and  N3_35 
REMARK   24  A    between atoms: C21_40  and  N7_47 
REMARK   25  A    between atoms: O13_49  and  P3_50 
REMARK   26  A    between atoms: P3_50  and  O15_52 
REMARK   27  A    between atoms: P3_50  and  O16_53 
ROOT
HETATM    1  C1  UNL     1       8.813   9.230 -10.401  1.00  0.00     0.104 C 
HETATM    2  C2  UNL     1       8.468   7.946 -11.093  1.00  0.00     0.182 C 
HETATM    3  O1  UNL     1       8.855   7.665 -12.225  1.00  0.00    -0.286 OA
ENDROOT
BRANCH   2   4
HETATM    4  S1  UNL     1       7.423   6.880 -10.164  1.00  0.00    -0.091 SA
BRANCH   4   5
HETATM    5  C3  UNL     1       5.852   7.108 -11.057  1.00  0.00     0.102 C 
BRANCH   5   6
HETATM    6  C4  UNL     1       4.768   6.150 -10.558  1.00  0.00     0.133 C 
BRANCH   6   7
HETATM    7  N1  UNL     1       3.429   6.635 -10.819  1.00  0.00    -0.360 N 
HETATM    8  C5  UNL     1       2.711   6.224 -11.917  1.00  0.00     0.219 C 
HETATM    9  O2  UNL     1       3.183   5.491 -12.778  1.00  0.00    -0.274 OA
HETATM   10  H8  UNL     1       3.013   7.289 -10.169  1.00  0.00     0.162 HD
BRANCH   8  11
HETATM   11  C6  UNL     1       1.315   6.806 -11.973  1.00  0.00     0.122 C 
BRANCH  11  12
HETATM   12  C7  UNL     1       1.331   8.333 -11.918  1.00  0.00     0.132 C 
BRANCH  12  13
HETATM   13  N2  UNL     1       0.914   8.950 -13.160  1.00  0.00    -0.358 N 
HETATM   14  C8  UNL     1       1.852   9.292 -14.117  1.00  0.00     0.247 C 
HETATM   15  O3  UNL     1       3.056   9.200 -13.912  1.00  0.00    -0.271 OA
HETATM   16  H13 UNL     1      -0.013   8.691 -13.489  1.00  0.00     0.162 HD
BRANCH  14  17
HETATM   17  C9  UNL     1       1.264   9.772 -15.453  1.00  0.00     0.219 C 
BRANCH  17  18
HETATM   18  C10 UNL     1       1.446  11.288 -15.727  1.00  0.00     0.009 C 
HETATM   19  C11 UNL     1       2.822  11.605 -16.332  1.00  0.00     0.020 C 
HETATM   20  C12 UNL     1       0.368  11.821 -16.692  1.00  0.00     0.020 C 
BRANCH  18  21
HETATM   21  C13 UNL     1       1.308  11.991 -14.346  1.00  0.00     0.192 C 
BRANCH  21  22
HETATM   22  O4  UNL     1       0.930  13.347 -14.469  1.00  0.00    -0.296 OA
BRANCH  22  23
HETATM   23  P1  UNL     1       1.243  14.443 -13.341  1.00  0.00     0.401 P 
HETATM   24  O5  UNL     1       2.628  14.365 -12.779  1.00  0.00    -0.631 OA
BRANCH  23  25
HETATM   25  O6  UNL     1       0.084  14.315 -12.232  1.00  0.00    -0.307 OA
HETATM   26  H23 UNL     1       0.371  13.798 -11.467  1.00  0.00     0.222 HD
ENDBRANCH  23  25
BRANCH  23  27
HETATM   27  O7  UNL     1       0.876  15.839 -14.011  1.00  0.00    -0.195 OA
BRANCH  27  28
HETATM   28  P2  UNL     1       1.373  17.182 -13.314  1.00  0.00     0.401 P 
HETATM   29  O8  UNL     1       2.817  17.532 -13.469  1.00  0.00    -0.631 OA
BRANCH  28  30
HETATM   30  O9  UNL     1       0.371  18.285 -13.888  1.00  0.00    -0.307 OA
HETATM   31  H24 UNL     1       0.799  18.948 -14.484  1.00  0.00     0.222 HD
ENDBRANCH  28  30
BRANCH  28  32
HETATM   32  O10 UNL     1       0.842  17.057 -11.813  1.00  0.00    -0.294 OA
BRANCH  32  33
HETATM   33  C14 UNL     1       1.073  18.096 -10.897  1.00  0.00     0.215 C 
BRANCH  33  34
HETATM   34  C15 UNL     1       1.468  17.425  -9.583  1.00  0.00     0.180 C 
HETATM   35  C16 UNL     1       2.479  16.319  -9.851  1.00  0.00     0.197 C 
HETATM   36  C17 UNL     1       1.789  15.048  -9.394  1.00  0.00     0.199 C 
HETATM   37  C18 UNL     1       0.795  15.576  -8.357  1.00  0.00     0.262 C 
HETATM   38  O11 UNL     1       0.355  16.841  -8.897  1.00  0.00    -0.353 OA
BRANCH  35  39
HETATM   39  O13 UNL     1       3.650  16.597  -9.091  1.00  0.00    -0.286 OA
BRANCH  39  40
HETATM   40  P3  UNL     1       5.024  16.579  -9.909  1.00  0.00     0.391 P 
HETATM   41  O14 UNL     1       5.869  17.793  -9.696  1.00  0.00    -0.632 OA
BRANCH  40  42
HETATM   42  O15 UNL     1       4.486  16.301 -11.390  1.00  0.00    -0.307 OA
HETATM   43  H36 UNL     1       5.215  15.976 -11.970  1.00  0.00     0.222 HD
ENDBRANCH  40  42
BRANCH  40  44
HETATM   44  O16 UNL     1       5.630  15.174  -9.475  1.00  0.00    -0.307 OA
HETATM   45  H37 UNL     1       6.435  14.944  -9.965  1.00  0.00     0.222 HD
ENDBRANCH  40  44
ENDBRANCH  39  40
ENDBRANCH  35  39
BRANCH  36  46
HETATM   46  O12 UNL     1       2.755  14.091  -8.950  1.00  0.00    -0.388 OA
HETATM   47  H35 UNL     1       2.739  13.355  -9.608  1.00  0.00     0.210 HD
ENDBRANCH  36  46
BRANCH  37  48
HETATM   48  N3  UNL     1      -0.356  14.710  -8.199  1.00  0.00    -0.297 N 
HETATM   49  C19 UNL     1      -0.607  13.841  -7.163  1.00  0.00     0.188 A 
HETATM   50  N4  UNL     1      -1.800  13.293  -7.249  1.00  0.00    -0.346 N 
HETATM   51  C20 UNL     1      -2.351  13.837  -8.396  1.00  0.00     0.116 A 
HETATM   52  H4  UNL     1      -2.223  12.618  -6.613  1.00  0.00     0.167 HD
HETATM   53  C21 UNL     1      -3.607  13.692  -9.010  1.00  0.00     0.109 A 
HETATM   54  C23 UNL     1      -1.453  14.687  -9.015  1.00  0.00     0.142 A 
HETATM   55  N5  UNL     1      -3.849  14.367 -10.161  1.00  0.00    -0.341 N 
HETATM   56  C22 UNL     1      -2.868  15.143 -10.663  1.00  0.00     0.183 A 
HETATM   57  H5  UNL     1      -4.749  14.289 -10.633  1.00  0.00     0.167 HD
HETATM   58  N6  UNL     1      -1.636  15.365 -10.161  1.00  0.00    -0.336 N 
HETATM   59  H6  UNL     1      -0.935  15.968 -10.594  1.00  0.00     0.168 HD
BRANCH  53  60
HETATM   60  N7  UNL     1      -4.614  12.884  -8.506  1.00  0.00    -0.287 NA
HETATM   61  H33 UNL     1      -5.228  12.488  -9.214  1.00  0.00     0.125 HD
HETATM   62  H34 UNL     1      -5.057  13.273  -7.684  1.00  0.00     0.125 HD
ENDBRANCH  53  60
ENDBRANCH  37  48
ENDBRANCH  33  34
ENDBRANCH  32  33
ENDBRANCH  28  32
ENDBRANCH  27  28
ENDBRANCH  23  27
ENDBRANCH  22  23
ENDBRANCH  21  22
ENDBRANCH  18  21
ENDBRANCH  17  18
BRANCH  17  63
HETATM   63  O17 UNL     1       1.845   9.040 -16.538  1.00  0.00    -0.385 OA
HETATM   64  H38 UNL     1       1.169   8.940 -17.229  1.00  0.00     0.210 HD
ENDBRANCH  17  63
ENDBRANCH  14  17
ENDBRANCH  12  13
ENDBRANCH  11  12
ENDBRANCH   8  11
ENDBRANCH   6   7
ENDBRANCH   5   6
ENDBRANCH   4   5
ENDBRANCH   2   4
TORSDOF 27
ENDMDL
MODEL 5
REMARK VINA RESULT:      -6.4      4.494      6.872
REMARK  27 active torsions:
REMARK  status: ('A' for Active; 'I' for Inactive)
REMARK    1  A    between atoms: C2_2  and  S1_4 
REMARK    2  A    between atoms: S1_4  and  C3_5 
REMARK    3  A    between atoms: C3_5  and  C4_6 
REMARK    4  A    between atoms: C4_6  and  N1_7 
REMARK       I    between atoms: N1_7  and  C5_8 
REMARK    5  A    between atoms: C5_8  and  C6_10 
REMARK    6  A    between atoms: C6_10  and  C7_11 
REMARK    7  A    between atoms: C7_11  and  N2_12 
REMARK       I    between atoms: N2_12  and  C8_13 
REMARK    8  A    between atoms: C8_13  and  C9_15 
REMARK    9  A    between atoms: C9_15  and  C10_16 
REMARK   10  A    between atoms: C9_15  and  O17_54 
REMARK   11  A    between atoms: C10_16  and  C13_19 
REMARK   12  A    between atoms: C13_19  and  O4_20 
REMARK   13  A    between atoms: O4_20  and  P1_21 
REMARK   14  A    between atoms: P1_21  and  O6_23 
REMARK   15  A    between atoms: P1_21  and  O7_24 
REMARK   16  A    between atoms: O7_24  and  P2_25 
REMARK   17  A    between atoms: P2_25  and  O9_27 
REMARK   18  A    between atoms: P2_25  and  O10_28 
REMARK   19  A    between atoms: O10_28  and  C14_29 
REMARK   20  A    between atoms: C14_29  and  C15_30 
REMARK   21  A    between atoms: C16_31  and  O13_49 
REMARK   22  A    between atoms: C17_32  and  O12_48 
REMARK   23  A    between atoms: C18_33  and  N3_35 
REMARK   24  A    between atoms: C21_40  and  N7_47 
REMARK   25  A    between atoms: O13_49  and  P3_50 
REMARK   26  A    between atoms: P3_50  and  O15_52 
REMARK   27  A    between atoms: P3_50  and  O16_53 
ROOT
HETATM    1  C1  UNL     1       0.197  14.454  -6.533  1.00  0.00     0.104 C 
HETATM    2  C2  UNL     1      -0.162  15.301  -7.715  1.00  0.00     0.182 C 
HETATM    3  O1  UNL     1      -1.199  15.156  -8.358  1.00  0.00    -0.286 OA
ENDROOT
BRANCH   2   4
HETATM    4  S1  UNL     1       1.048  16.504  -8.140  1.00  0.00    -0.091 SA
BRANCH   4   5
HETATM    5  C3  UNL     1       0.042  18.021  -8.046  1.00  0.00     0.102 C 
BRANCH   5   6
HETATM    6  C4  UNL     1      -0.270  18.584  -9.434  1.00  0.00     0.133 C 
BRANCH   6   7
HETATM    7  N1  UNL     1      -0.769  17.576 -10.347  1.00  0.00    -0.360 N 
HETATM    8  C5  UNL     1      -0.222  17.397 -11.597  1.00  0.00     0.219 C 
HETATM    9  O2  UNL     1       0.658  18.125 -12.042  1.00  0.00    -0.274 OA
HETATM   10  H8  UNL     1      -1.535  16.987 -10.050  1.00  0.00     0.162 HD
BRANCH   8  11
HETATM   11  C6  UNL     1      -0.851  16.258 -12.368  1.00  0.00     0.122 C 
BRANCH  11  12
HETATM   12  C7  UNL     1      -0.117  15.983 -13.680  1.00  0.00     0.132 C 
BRANCH  12  13
HETATM   13  N2  UNL     1       1.204  15.425 -13.485  1.00  0.00    -0.358 N 
HETATM   14  C8  UNL     1       1.503  14.160 -13.958  1.00  0.00     0.247 C 
HETATM   15  O3  UNL     1       0.650  13.428 -14.444  1.00  0.00    -0.271 OA
HETATM   16  H13 UNL     1       1.965  16.100 -13.451  1.00  0.00     0.162 HD
BRANCH  14  17
HETATM   17  C9  UNL     1       2.982  13.762 -13.843  1.00  0.00     0.219 C 
BRANCH  17  18
HETATM   18  C10 UNL     1       3.314  12.867 -12.620  1.00  0.00     0.009 C 
HETATM   19  C11 UNL     1       2.538  13.293 -11.365  1.00  0.00     0.020 C 
HETATM   20  C12 UNL     1       2.991  11.386 -12.899  1.00  0.00     0.020 C 
BRANCH  18  21
HETATM   21  C13 UNL     1       4.841  13.033 -12.372  1.00  0.00     0.192 C 
BRANCH  21  22
HETATM   22  O4  UNL     1       5.349  14.232 -12.922  1.00  0.00    -0.296 OA
BRANCH  22  23
HETATM   23  P1  UNL     1       6.702  14.291 -13.780  1.00  0.00     0.401 P 
HETATM   24  O5  UNL     1       7.039  15.653 -14.299  1.00  0.00    -0.631 OA
BRANCH  23  25
HETATM   25  O6  UNL     1       6.574  13.171 -14.929  1.00  0.00    -0.307 OA
HETATM   26  H23 UNL     1       7.437  12.903 -15.270  1.00  0.00     0.222 HD
ENDBRANCH  23  25
BRANCH  23  27
HETATM   27  O7  UNL     1       7.812  13.644 -12.841  1.00  0.00    -0.195 OA
BRANCH  27  28
HETATM   28  P2  UNL     1       8.581  14.577 -11.803  1.00  0.00     0.401 P 
HETATM   29  O8  UNL     1       9.792  15.293 -12.305  1.00  0.00    -0.631 OA
BRANCH  28  30
HETATM   30  O9  UNL     1       7.433  15.542 -11.257  1.00  0.00    -0.307 OA
HETATM   31  H24 UNL     1       6.889  15.964 -11.967  1.00  0.00     0.222 HD
ENDBRANCH  28  30
BRANCH  28  32
HETATM   32  O10 UNL     1       8.803  13.637 -10.531  1.00  0.00    -0.294 OA
BRANCH  32  33
HETATM   33  C14 UNL     1       8.020  12.484 -10.364  1.00  0.00     0.215 C 
BRANCH  33  34
HETATM   34  C15 UNL     1       8.977  11.378  -9.924  1.00  0.00     0.180 C 
HETATM   35  C16 UNL     1       9.734  10.841 -11.132  1.00  0.00     0.197 C 
HETATM   36  C17 UNL     1       9.325   9.383 -11.225  1.00  0.00     0.199 C 
HETATM   37  C18 UNL     1       8.937   9.064  -9.779  1.00  0.00     0.262 C 
HETATM   38  O11 UNL     1       8.308  10.274  -9.303  1.00  0.00    -0.353 OA
BRANCH  35  39
HETATM   39  O13 UNL     1      11.127  10.992 -10.883  1.00  0.00    -0.286 OA
BRANCH  39  40
HETATM   40  P3  UNL     1      11.868  12.102 -11.764  1.00  0.00     0.391 P 
HETATM   41  O14 UNL     1      13.209  11.675 -12.267  1.00  0.00    -0.632 OA
BRANCH  40  42
HETATM   42  O15 UNL     1      11.813  13.357 -10.773  1.00  0.00    -0.307 OA
HETATM   43  H36 UNL     1      11.199  13.181 -10.021  1.00  0.00     0.222 HD
ENDBRANCH  40  42
BRANCH  40  44
HETATM   44  O16 UNL     1      10.752  12.444 -12.843  1.00  0.00    -0.307 OA
HETATM   45  H37 UNL     1      10.614  11.727 -13.483  1.00  0.00     0.222 HD
ENDBRANCH  40  44
ENDBRANCH  39  40
ENDBRANCH  35  39
BRANCH  36  46
HETATM   46  O12 UNL     1      10.376   8.609 -11.808  1.00  0.00    -0.388 OA
HETATM   47  H35 UNL     1      11.220   9.057 -11.563  1.00  0.00     0.210 HD
ENDBRANCH  36  46
BRANCH  37  48
HETATM   48  N3  UNL     1       7.984   7.976  -9.685  1.00  0.00    -0.297 N 
HETATM   49  C19 UNL     1       7.657   7.071 -10.668  1.00  0.00     0.188 A 
HETATM   50  N4  UNL     1       6.852   6.128 -10.229  1.00  0.00    -0.346 N 
HETATM   51  C20 UNL     1       6.652   6.433  -8.895  1.00  0.00     0.116 A 
HETATM   52  H4  UNL     1       6.462   5.346 -10.755  1.00  0.00     0.167 HD
HETATM   53  C21 UNL     1       5.932   5.796  -7.869  1.00  0.00     0.109 A 
HETATM   54  C23 UNL     1       7.316   7.597  -8.554  1.00  0.00     0.142 A 
HETATM   55  N5  UNL     1       5.919   6.361  -6.637  1.00  0.00    -0.341 N 
HETATM   56  C22 UNL     1       6.595   7.514  -6.457  1.00  0.00     0.183 A 
HETATM   57  H5  UNL     1       5.411   5.926  -5.867  1.00  0.00     0.167 HD
HETATM   58  N6  UNL     1       7.322   8.208  -7.356  1.00  0.00    -0.336 N 
HETATM   59  H6  UNL     1       7.812   9.079  -7.154  1.00  0.00     0.168 HD
BRANCH  53  60
HETATM   60  N7  UNL     1       5.224   4.619  -8.052  1.00  0.00    -0.287 NA
HETATM   61  H33 UNL     1       4.251   4.753  -8.319  1.00  0.00     0.125 HD
HETATM   62  H34 UNL     1       5.409   3.931  -7.335  1.00  0.00     0.125 HD
ENDBRANCH  53  60
ENDBRANCH  37  48
ENDBRANCH  33  34
ENDBRANCH  32  33
ENDBRANCH  28  32
ENDBRANCH  27  28
ENDBRANCH  23  27
ENDBRANCH  22  23
ENDBRANCH  21  22
ENDBRANCH  18  21
ENDBRANCH  17  18
BRANCH  17  63
HETATM   63  O17 UNL     1       3.404  13.082 -15.031  1.00  0.00    -0.385 OA
HETATM   64  H38 UNL     1       2.700  12.464 -15.291  1.00  0.00     0.210 HD
ENDBRANCH  17  63
ENDBRANCH  14  17
ENDBRANCH  12  13
ENDBRANCH  11  12
ENDBRANCH   8  11
ENDBRANCH   6   7
ENDBRANCH   5   6
ENDBRANCH   4   5
ENDBRANCH   2   4
TORSDOF 27
ENDMDL
MODEL 6
REMARK VINA RESULT:      -6.3      5.087      8.494
REMARK  27 active torsions:
REMARK  status: ('A' for Active; 'I' for Inactive)
REMARK    1  A    between atoms: C2_2  and  S1_4 
REMARK    2  A    between atoms: S1_4  and  C3_5 
REMARK    3  A    between atoms: C3_5  and  C4_6 
REMARK    4  A    between atoms: C4_6  and  N1_7 
REMARK       I    between atoms: N1_7  and  C5_8 
REMARK    5  A    between atoms: C5_8  and  C6_10 
REMARK    6  A    between atoms: C6_10  and  C7_11 
REMARK    7  A    between atoms: C7_11  and  N2_12 
REMARK       I    between atoms: N2_12  and  C8_13 
REMARK    8  A    between atoms: C8_13  and  C9_15 
REMARK    9  A    between atoms: C9_15  and  C10_16 
REMARK   10  A    between atoms: C9_15  and  O17_54 
REMARK   11  A    between atoms: C10_16  and  C13_19 
REMARK   12  A    between atoms: C13_19  and  O4_20 
REMARK   13  A    between atoms: O4_20  and  P1_21 
REMARK   14  A    between atoms: P1_21  and  O6_23 
REMARK   15  A    between atoms: P1_21  and  O7_24 
REMARK   16  A    between atoms: O7_24  and  P2_25 
REMARK   17  A    between atoms: P2_25  and  O9_27 
REMARK   18  A    between atoms: P2_25  and  O10_28 
REMARK   19  A    between atoms: O10_28  and  C14_29 
REMARK   20  A    between atoms: C14_29  and  C15_30 
REMARK   21  A    between atoms: C16_31  and  O13_49 
REMARK   22  A    between atoms: C17_32  and  O12_48 
REMARK   23  A    between atoms: C18_33  and  N3_35 
REMARK   24  A    between atoms: C21_40  and  N7_47 
REMARK   25  A    between atoms: O13_49  and  P3_50 
REMARK   26  A    between atoms: P3_50  and  O15_52 
REMARK   27  A    between atoms: P3_50  and  O16_53 
ROOT
HETATM    1  C1  UNL     1       6.686  10.523 -12.630  1.00  0.00     0.104 C 
HETATM    2  C2  UNL     1       8.117  10.119 -12.816  1.00  0.00     0.182 C 
HETATM    3  O1  UNL     1       8.696  10.167 -13.898  1.00  0.00    -0.286 OA
ENDROOT
BRANCH   2   4
HETATM    4  S1  UNL     1       8.899   9.527 -11.357  1.00  0.00    -0.091 SA
BRANCH   4   5
HETATM    5  C3  UNL     1       8.366   7.784 -11.388  1.00  0.00     0.102 C 
BRANCH   5   6
HETATM    6  C4  UNL     1       7.809   7.334 -10.036  1.00  0.00     0.133 C 
BRANCH   6   7
HETATM    7  N1  UNL     1       6.384   7.075 -10.077  1.00  0.00    -0.360 N 
HETATM    8  C5  UNL     1       5.848   5.902  -9.598  1.00  0.00     0.219 C 
HETATM    9  O2  UNL     1       6.542   4.979  -9.186  1.00  0.00    -0.274 OA
HETATM   10  H8  UNL     1       5.772   7.781 -10.462  1.00  0.00     0.162 HD
BRANCH   8  11
HETATM   11  C6  UNL     1       4.338   5.855  -9.683  1.00  0.00     0.122 C 
BRANCH  11  12
HETATM   12  C7  UNL     1       3.716   7.246  -9.564  1.00  0.00     0.132 C 
BRANCH  12  13
HETATM   13  N2  UNL     1       2.696   7.498 -10.560  1.00  0.00    -0.358 N 
HETATM   14  C8  UNL     1       3.053   7.887 -11.838  1.00  0.00     0.247 C 
HETATM   15  O3  UNL     1       4.211   8.145 -12.142  1.00  0.00    -0.271 OA
HETATM   16  H13 UNL     1       1.842   6.955 -10.460  1.00  0.00     0.162 HD
BRANCH  14  17
HETATM   17  C9  UNL     1       1.890   7.949 -12.840  1.00  0.00     0.219 C 
BRANCH  17  18
HETATM   18  C10 UNL     1       1.770   9.294 -13.604  1.00  0.00     0.009 C 
HETATM   19  C11 UNL     1       2.387   9.218 -15.009  1.00  0.00     0.020 C 
HETATM   20  C12 UNL     1       0.299   9.730 -13.754  1.00  0.00     0.020 C 
BRANCH  18  21
HETATM   21  C13 UNL     1       2.543  10.340 -12.750  1.00  0.00     0.192 C 
BRANCH  21  22
HETATM   22  O4  UNL     1       3.277  11.248 -13.546  1.00  0.00    -0.296 OA
BRANCH  22  23
HETATM   23  P1  UNL     1       3.143  12.839 -13.399  1.00  0.00     0.401 P 
HETATM   24  O5  UNL     1       3.472  13.599 -14.646  1.00  0.00    -0.631 OA
BRANCH  23  25
HETATM   25  O6  UNL     1       4.030  13.266 -12.126  1.00  0.00    -0.307 OA
HETATM   26  H23 UNL     1       3.490  13.639 -11.417  1.00  0.00     0.222 HD
ENDBRANCH  23  25
BRANCH  23  27
HETATM   27  O7  UNL     1       1.671  13.078 -12.845  1.00  0.00    -0.195 OA
BRANCH  27  28
HETATM   28  P2  UNL     1       0.874  14.377 -13.309  1.00  0.00     0.401 P 
HETATM   29  O8  UNL     1       0.471  14.446 -14.746  1.00  0.00    -0.631 OA
BRANCH  28  30
HETATM   30  O9  UNL     1      -0.349  14.442 -12.286  1.00  0.00    -0.307 OA
HETATM   31  H24 UNL     1      -1.146  13.935 -12.577  1.00  0.00     0.222 HD
ENDBRANCH  28  30
BRANCH  28  32
HETATM   32  O10 UNL     1       1.768  15.589 -12.776  1.00  0.00    -0.294 OA
BRANCH  32  33
HETATM   33  C14 UNL     1       1.154  16.730 -12.237  1.00  0.00     0.215 C 
BRANCH  33  34
HETATM   34  C15 UNL     1       1.525  16.754 -10.755  1.00  0.00     0.180 C 
HETATM   35  C16 UNL     1       2.699  15.818 -10.502  1.00  0.00     0.197 C 
HETATM   36  C17 UNL     1       2.155  14.767  -9.552  1.00  0.00     0.199 C 
HETATM   37  C18 UNL     1       1.013  15.517  -8.862  1.00  0.00     0.262 C 
HETATM   38  O11 UNL     1       0.449  16.344  -9.903  1.00  0.00    -0.353 OA
BRANCH  35  39
HETATM   39  O13 UNL     1       3.751  16.577  -9.917  1.00  0.00    -0.286 OA
BRANCH  39  40
HETATM   40  P3  UNL     1       5.147  16.534 -10.694  1.00  0.00     0.391 P 
HETATM   41  O14 UNL     1       6.200  15.733  -9.999  1.00  0.00    -0.632 OA
BRANCH  40  42
HETATM   42  O15 UNL     1       5.422  18.096 -10.904  1.00  0.00    -0.307 OA
HETATM   43  H36 UNL     1       4.581  18.575 -11.098  1.00  0.00     0.222 HD
ENDBRANCH  40  42
BRANCH  40  44
HETATM   44  O16 UNL     1       4.689  16.051 -12.139  1.00  0.00    -0.307 OA
HETATM   45  H37 UNL     1       5.306  15.416 -12.537  1.00  0.00     0.222 HD
ENDBRANCH  40  44
ENDBRANCH  39  40
ENDBRANCH  35  39
BRANCH  36  46
HETATM   46  O12 UNL     1       3.203  14.259  -8.723  1.00  0.00    -0.388 OA
HETATM   47  H35 UNL     1       3.919  13.959  -9.332  1.00  0.00     0.210 HD
ENDBRANCH  36  46
BRANCH  37  48
HETATM   48  N3  UNL     1      -0.017  14.626  -8.365  1.00  0.00    -0.297 N 
HETATM   49  C19 UNL     1       0.058  13.797  -7.271  1.00  0.00     0.188 A 
HETATM   50  N4  UNL     1      -1.090  13.211  -7.009  1.00  0.00    -0.346 N 
HETATM   51  C20 UNL     1      -1.954  13.688  -7.979  1.00  0.00     0.116 A 
HETATM   52  H4  UNL     1      -1.297  12.553  -6.258  1.00  0.00     0.167 HD
HETATM   53  C21 UNL     1      -3.323  13.480  -8.221  1.00  0.00     0.109 A 
HETATM   54  C23 UNL     1      -1.292  14.535  -8.849  1.00  0.00     0.142 A 
HETATM   55  N5  UNL     1      -3.895  14.096  -9.284  1.00  0.00    -0.341 N 
HETATM   56  C22 UNL     1      -3.119  14.877 -10.062  1.00  0.00     0.183 A 
HETATM   57  H5  UNL     1      -4.886  13.971  -9.490  1.00  0.00     0.167 HD
HETATM   58  N6  UNL     1      -1.807  15.156  -9.925  1.00  0.00    -0.336 N 
HETATM   59  H6  UNL     1      -1.275  15.760 -10.553  1.00  0.00     0.168 HD
BRANCH  53  60
HETATM   60  N7  UNL     1      -4.121  12.666  -7.433  1.00  0.00    -0.287 NA
HETATM   61  H33 UNL     1      -3.618  12.166  -6.703  1.00  0.00     0.125 HD
HETATM   62  H34 UNL     1      -4.793  12.134  -7.969  1.00  0.00     0.125 HD
ENDBRANCH  53  60
ENDBRANCH  37  48
ENDBRANCH  33  34
ENDBRANCH  32  33
ENDBRANCH  28  32
ENDBRANCH  27  28
ENDBRANCH  23  27
ENDBRANCH  22  23
ENDBRANCH  21  22
ENDBRANCH  18  21
ENDBRANCH  17  18
BRANCH  17  63
HETATM   63  O17 UNL     1       2.008   6.891 -13.798  1.00  0.00    -0.385 OA
HETATM   64  H38 UNL     1       1.113   6.590 -14.027  1.00  0.00     0.210 HD
ENDBRANCH  17  63
ENDBRANCH  14  17
ENDBRANCH  12  13
ENDBRANCH  11  12
ENDBRANCH   8  11
ENDBRANCH   6   7
ENDBRANCH   5   6
ENDBRANCH   4   5
ENDBRANCH   2   4
TORSDOF 27
ENDMDL
MODEL 7
REMARK VINA RESULT:      -6.2      4.432      6.838
REMARK  27 active torsions:
REMARK  status: ('A' for Active; 'I' for Inactive)
REMARK    1  A    between atoms: C2_2  and  S1_4 
REMARK    2  A    between atoms: S1_4  and  C3_5 
REMARK    3  A    between atoms: C3_5  and  C4_6 
REMARK    4  A    between atoms: C4_6  and  N1_7 
REMARK       I    between atoms: N1_7  and  C5_8 
REMARK    5  A    between atoms: C5_8  and  C6_10 
REMARK    6  A    between atoms: C6_10  and  C7_11 
REMARK    7  A    between atoms: C7_11  and  N2_12 
REMARK       I    between atoms: N2_12  and  C8_13 
REMARK    8  A    between atoms: C8_13  and  C9_15 
REMARK    9  A    between atoms: C9_15  and  C10_16 
REMARK   10  A    between atoms: C9_15  and  O17_54 
REMARK   11  A    between atoms: C10_16  and  C13_19 
REMARK   12  A    between atoms: C13_19  and  O4_20 
REMARK   13  A    between atoms: O4_20  and  P1_21 
REMARK   14  A    between atoms: P1_21  and  O6_23 
REMARK   15  A    between atoms: P1_21  and  O7_24 
REMARK   16  A    between atoms: O7_24  and  P2_25 
REMARK   17  A    between atoms: P2_25  and  O9_27 
REMARK   18  A    between atoms: P2_25  and  O10_28 
REMARK   19  A    between atoms: O10_28  and  C14_29 
REMARK   20  A    between atoms: C14_29  and  C15_30 
REMARK   21  A    between atoms: C16_31  and  O13_49 
REMARK   22  A    between atoms: C17_32  and  O12_48 
REMARK   23  A    between atoms: C18_33  and  N3_35 
REMARK   24  A    between atoms: C21_40  and  N7_47 
REMARK   25  A    between atoms: O13_49  and  P3_50 
REMARK   26  A    between atoms: P3_50  and  O15_52 
REMARK   27  A    between atoms: P3_50  and  O16_53 
ROOT
HETATM    1  C1  UNL     1       0.189  14.535  -6.165  1.00  0.00     0.104 C 
HETATM    2  C2  UNL     1      -0.147  15.245  -7.441  1.00  0.00     0.182 C 
HETATM    3  O1  UNL     1      -1.190  15.057  -8.062  1.00  0.00    -0.286 OA
ENDROOT
BRANCH   2   4
HETATM    4  S1  UNL     1       1.099  16.349  -8.007  1.00  0.00    -0.091 SA
BRANCH   4   5
HETATM    5  C3  UNL     1       0.226  17.938  -7.833  1.00  0.00     0.102 C 
BRANCH   5   6
HETATM    6  C4  UNL     1      -0.220  18.494  -9.187  1.00  0.00     0.133 C 
BRANCH   6   7
HETATM    7  N1  UNL     1      -0.798  17.480 -10.045  1.00  0.00    -0.360 N 
HETATM    8  C5  UNL     1      -0.325  17.253 -11.317  1.00  0.00     0.219 C 
HETATM    9  O2  UNL     1       0.551  17.941 -11.828  1.00  0.00    -0.274 OA
HETATM   10  H8  UNL     1      -1.563  16.922  -9.692  1.00  0.00     0.162 HD
BRANCH   8  11
HETATM   11  C6  UNL     1      -1.028  16.114 -12.023  1.00  0.00     0.122 C 
BRANCH  11  12
HETATM   12  C7  UNL     1      -0.503  15.913 -13.444  1.00  0.00     0.132 C 
BRANCH  12  13
HETATM   13  N2  UNL     1       0.698  15.106 -13.497  1.00  0.00    -0.358 N 
HETATM   14  C8  UNL     1       1.029  14.424 -14.653  1.00  0.00     0.247 C 
HETATM   15  O3  UNL     1       0.279  14.377 -15.620  1.00  0.00    -0.271 OA
HETATM   16  H13 UNL     1       1.465  15.423 -12.907  1.00  0.00     0.162 HD
BRANCH  14  17
HETATM   17  C9  UNL     1       2.411  13.755 -14.633  1.00  0.00     0.219 C 
BRANCH  17  18
HETATM   18  C10 UNL     1       2.415  12.306 -14.078  1.00  0.00     0.009 C 
HETATM   19  C11 UNL     1       2.732  12.263 -12.576  1.00  0.00     0.020 C 
HETATM   20  C12 UNL     1       1.055  11.613 -14.297  1.00  0.00     0.020 C 
BRANCH  18  21
HETATM   21  C13 UNL     1       3.523  11.550 -14.867  1.00  0.00     0.192 C 
BRANCH  21  22
HETATM   22  O4  UNL     1       4.785  11.633 -14.236  1.00  0.00    -0.296 OA
BRANCH  22  23
HETATM   23  P1  UNL     1       6.084  12.230 -14.962  1.00  0.00     0.401 P 
HETATM   24  O5  UNL     1       5.872  13.573 -15.587  1.00  0.00    -0.631 OA
BRANCH  23  25
HETATM   25  O6  UNL     1       6.598  11.106 -15.994  1.00  0.00    -0.307 OA
HETATM   26  H23 UNL     1       7.389  11.388 -16.471  1.00  0.00     0.222 HD
ENDBRANCH  23  25
BRANCH  23  27
HETATM   27  O7  UNL     1       7.229  12.183 -13.859  1.00  0.00    -0.195 OA
BRANCH  27  28
HETATM   28  P2  UNL     1       6.925  12.769 -12.408  1.00  0.00     0.401 P 
HETATM   29  O8  UNL     1       6.404  14.167 -12.338  1.00  0.00    -0.631 OA
BRANCH  28  30
HETATM   30  O9  UNL     1       5.950  11.677 -11.769  1.00  0.00    -0.307 OA
HETATM   31  H24 UNL     1       5.414  12.011 -11.009  1.00  0.00     0.222 HD
ENDBRANCH  28  30
BRANCH  28  32
HETATM   32  O10 UNL     1       8.265  12.482 -11.588  1.00  0.00    -0.294 OA
BRANCH  32  33
HETATM   33  C14 UNL     1       8.197  12.146 -10.227  1.00  0.00     0.215 C 
BRANCH  33  34
HETATM   34  C15 UNL     1       9.139  10.959 -10.033  1.00  0.00     0.180 C 
HETATM   35  C16 UNL     1       9.766  10.575 -11.367  1.00  0.00     0.197 C 
HETATM   36  C17 UNL     1       9.287   9.158 -11.622  1.00  0.00     0.199 C 
HETATM   37  C18 UNL     1       9.011   8.650 -10.205  1.00  0.00     0.262 C 
HETATM   38  O11 UNL     1       8.478   9.800  -9.512  1.00  0.00    -0.353 OA
BRANCH  35  39
HETATM   39  O13 UNL     1      11.181  10.646 -11.226  1.00  0.00    -0.286 OA
BRANCH  39  40
HETATM   40  P3  UNL     1      11.934  11.563 -12.297  1.00  0.00     0.391 P 
HETATM   41  O14 UNL     1      13.156  12.235 -11.762  1.00  0.00    -0.632 OA
BRANCH  40  42
HETATM   42  O15 UNL     1      10.732  12.496 -12.791  1.00  0.00    -0.307 OA
HETATM   43  H36 UNL     1       9.962  12.426 -12.178  1.00  0.00     0.222 HD
ENDBRANCH  40  42
BRANCH  40  44
HETATM   44  O16 UNL     1      12.122  10.546 -13.505  1.00  0.00    -0.307 OA
HETATM   45  H37 UNL     1      11.402  10.593 -14.153  1.00  0.00     0.222 HD
ENDBRANCH  40  44
ENDBRANCH  39  40
ENDBRANCH  35  39
BRANCH  36  46
HETATM   46  O12 UNL     1      10.250   8.442 -12.400  1.00  0.00    -0.388 OA
HETATM   47  H35 UNL     1       9.739   7.828 -12.979  1.00  0.00     0.210 HD
ENDBRANCH  36  46
BRANCH  37  48
HETATM   48  N3  UNL     1       8.023   7.590 -10.177  1.00  0.00    -0.297 N 
HETATM   49  C19 UNL     1       8.125   6.376  -9.538  1.00  0.00     0.188 A 
HETATM   50  N4  UNL     1       7.006   5.686  -9.597  1.00  0.00    -0.346 N 
HETATM   51  C20 UNL     1       6.135   6.495 -10.305  1.00  0.00     0.116 A 
HETATM   52  H4  UNL     1       6.822   4.762  -9.208  1.00  0.00     0.167 HD
HETATM   53  C21 UNL     1       4.784   6.353 -10.667  1.00  0.00     0.109 A 
HETATM   54  C23 UNL     1       6.764   7.660 -10.704  1.00  0.00     0.142 A 
HETATM   55  N5  UNL     1       4.198   7.340 -11.388  1.00  0.00    -0.341 N 
HETATM   56  C22 UNL     1       4.943   8.410 -11.728  1.00  0.00     0.183 A 
HETATM   57  H5  UNL     1       3.219   7.273 -11.667  1.00  0.00     0.167 HD
HETATM   58  N6  UNL     1       6.235   8.660 -11.432  1.00  0.00    -0.336 N 
HETATM   59  H6  UNL     1       6.744   9.496 -11.721  1.00  0.00     0.168 HD
BRANCH  53  60
HETATM   60  N7  UNL     1       4.018   5.247 -10.334  1.00  0.00    -0.287 NA
HETATM   61  H33 UNL     1       3.237   5.451  -9.713  1.00  0.00     0.125 HD
HETATM   62  H34 UNL     1       4.575   4.433 -10.113  1.00  0.00     0.125 HD
ENDBRANCH  53  60
ENDBRANCH  37  48
ENDBRANCH  33  34
ENDBRANCH  32  33
ENDBRANCH  28  32
ENDBRANCH  27  28
ENDBRANCH  23  27
ENDBRANCH  22  23
ENDBRANCH  21  22
ENDBRANCH  18  21
ENDBRANCH  17  18
BRANCH  17  63
HETATM   63  O17 UNL     1       2.971  13.738 -15.951  1.00  0.00    -0.385 OA
HETATM   64  H38 UNL     1       3.086  14.659 -16.241  1.00  0.00     0.210 HD
ENDBRANCH  17  63
ENDBRANCH  14  17
ENDBRANCH  12  13
ENDBRANCH  11  12
ENDBRANCH   8  11
ENDBRANCH   6   7
ENDBRANCH   5   6
ENDBRANCH   4   5
ENDBRANCH   2   4
TORSDOF 27
ENDMDL
MODEL 8
REMARK VINA RESULT:      -6.2      4.785      8.653
REMARK  27 active torsions:
REMARK  status: ('A' for Active; 'I' for Inactive)
REMARK    1  A    between atoms: C2_2  and  S1_4 
REMARK    2  A    between atoms: S1_4  and  C3_5 
REMARK    3  A    between atoms: C3_5  and  C4_6 
REMARK    4  A    between atoms: C4_6  and  N1_7 
REMARK       I    between atoms: N1_7  and  C5_8 
REMARK    5  A    between atoms: C5_8  and  C6_10 
REMARK    6  A    between atoms: C6_10  and  C7_11 
REMARK    7  A    between atoms: C7_11  and  N2_12 
REMARK       I    between atoms: N2_12  and  C8_13 
REMARK    8  A    between atoms: C8_13  and  C9_15 
REMARK    9  A    between atoms: C9_15  and  C10_16 
REMARK   10  A    between atoms: C9_15  and  O17_54 
REMARK   11  A    between atoms: C10_16  and  C13_19 
REMARK   12  A    between atoms: C13_19  and  O4_20 
REMARK   13  A    between atoms: O4_20  and  P1_21 
REMARK   14  A    between atoms: P1_21  and  O6_23 
REMARK   15  A    between atoms: P1_21  and  O7_24 
REMARK   16  A    between atoms: O7_24  and  P2_25 
REMARK   17  A    between atoms: P2_25  and  O9_27 
REMARK   18  A    between atoms: P2_25  and  O10_28 
REMARK   19  A    between atoms: O10_28  and  C14_29 
REMARK   20  A    between atoms: C14_29  and  C15_30 
REMARK   21  A    between atoms: C16_31  and  O13_49 
REMARK   22  A    between atoms: C17_32  and  O12_48 
REMARK   23  A    between atoms: C18_33  and  N3_35 
REMARK   24  A    between atoms: C21_40  and  N7_47 
REMARK   25  A    between atoms: O13_49  and  P3_50 
REMARK   26  A    between atoms: P3_50  and  O15_52 
REMARK   27  A    between atoms: P3_50  and  O16_53 
ROOT
HETATM    1  C1  UNL     1       5.644  10.271 -12.899  1.00  0.00     0.104 C 
HETATM    2  C2  UNL     1       6.887  11.097 -12.771  1.00  0.00     0.182 C 
HETATM    3  O1  UNL     1       7.301  11.835 -13.661  1.00  0.00    -0.286 OA
ENDROOT
BRANCH   2   4
HETATM    4  S1  UNL     1       7.737  10.896 -11.245  1.00  0.00    -0.091 SA
BRANCH   4   5
HETATM    5  C3  UNL     1       8.370   9.200 -11.448  1.00  0.00     0.102 C 
BRANCH   5   6
HETATM    6  C4  UNL     1       8.656   8.533 -10.101  1.00  0.00     0.133 C 
BRANCH   6   7
HETATM    7  N1  UNL     1       7.516   7.804  -9.585  1.00  0.00    -0.360 N 
HETATM    8  C5  UNL     1       7.564   6.447  -9.365  1.00  0.00     0.219 C 
HETATM    9  O2  UNL     1       8.535   5.763  -9.665  1.00  0.00    -0.274 OA
HETATM   10  H8  UNL     1       6.668   8.313  -9.375  1.00  0.00     0.162 HD
BRANCH   8  11
HETATM   11  C6  UNL     1       6.287   5.891  -8.771  1.00  0.00     0.122 C 
BRANCH  11  12
HETATM   12  C7  UNL     1       5.123   6.873  -8.900  1.00  0.00     0.132 C 
BRANCH  12  13
HETATM   13  N2  UNL     1       3.904   6.250  -9.371  1.00  0.00    -0.358 N 
HETATM   14  C8  UNL     1       3.779   5.879 -10.697  1.00  0.00     0.247 C 
HETATM   15  O3  UNL     1       4.625   6.163 -11.536  1.00  0.00    -0.271 OA
HETATM   16  H13 UNL     1       3.403   5.693  -8.682  1.00  0.00     0.162 HD
BRANCH  14  17
HETATM   17  C9  UNL     1       2.514   5.071 -11.024  1.00  0.00     0.219 C 
BRANCH  17  18
HETATM   18  C10 UNL     1       1.581   5.734 -12.071  1.00  0.00     0.009 C 
HETATM   19  C11 UNL     1       2.164   5.665 -13.490  1.00  0.00     0.020 C 
HETATM   20  C12 UNL     1       0.192   5.064 -12.094  1.00  0.00     0.020 C 
BRANCH  18  21
HETATM   21  C13 UNL     1       1.439   7.221 -11.636  1.00  0.00     0.192 C 
BRANCH  21  22
HETATM   22  O4  UNL     1       2.227   8.090 -12.424  1.00  0.00    -0.296 OA
BRANCH  22  23
HETATM   23  P1  UNL     1       1.597   9.234 -13.354  1.00  0.00     0.401 P 
HETATM   24  O5  UNL     1       0.113   9.138 -13.521  1.00  0.00    -0.631 OA
BRANCH  23  25
HETATM   25  O6  UNL     1       2.410   9.204 -14.743  1.00  0.00    -0.307 OA
HETATM   26  H23 UNL     1       1.941   9.671 -15.446  1.00  0.00     0.222 HD
ENDBRANCH  23  25
BRANCH  23  27
HETATM   27  O7  UNL     1       2.109  10.603 -12.725  1.00  0.00    -0.195 OA
BRANCH  27  28
HETATM   28  P2  UNL     1       2.007  11.934 -13.593  1.00  0.00     0.401 P 
HETATM   29  O8  UNL     1       3.190  12.285 -14.436  1.00  0.00    -0.631 OA
BRANCH  28  30
HETATM   30  O9  UNL     1       0.656  11.731 -14.420  1.00  0.00    -0.307 OA
HETATM   31  H24 UNL     1       0.712  12.024 -15.362  1.00  0.00     0.222 HD
ENDBRANCH  28  30
BRANCH  28  32
HETATM   32  O10 UNL     1       1.544  13.045 -12.544  1.00  0.00    -0.294 OA
BRANCH  32  33
HETATM   33  C14 UNL     1       1.526  14.399 -12.915  1.00  0.00     0.215 C 
BRANCH  33  34
HETATM   34  C15 UNL     1       1.623  15.199 -11.618  1.00  0.00     0.180 C 
HETATM   35  C16 UNL     1       2.808  14.708 -10.797  1.00  0.00     0.197 C 
HETATM   36  C17 UNL     1       2.195  14.179  -9.514  1.00  0.00     0.199 C 
HETATM   37  C18 UNL     1       0.889  14.973  -9.430  1.00  0.00     0.262 C 
HETATM   38  O11 UNL     1       0.451  15.086 -10.802  1.00  0.00    -0.353 OA
BRANCH  35  39
HETATM   39  O13 UNL     1       3.671  15.816 -10.562  1.00  0.00    -0.286 OA
BRANCH  39  40
HETATM   40  P3  UNL     1       5.236  15.491 -10.604  1.00  0.00     0.391 P 
HETATM   41  O14 UNL     1       5.989  16.286 -11.622  1.00  0.00    -0.632 OA
BRANCH  40  42
HETATM   42  O15 UNL     1       5.208  13.901 -10.778  1.00  0.00    -0.307 OA
HETATM   43  H36 UNL     1       5.334  13.453  -9.909  1.00  0.00     0.222 HD
ENDBRANCH  40  42
BRANCH  40  44
HETATM   44  O16 UNL     1       5.639  15.681  -9.077  1.00  0.00    -0.307 OA
HETATM   45  H37 UNL     1       4.947  16.119  -8.557  1.00  0.00     0.222 HD
ENDBRANCH  40  44
ENDBRANCH  39  40
ENDBRANCH  35  39
BRANCH  36  46
HETATM   46  O12 UNL     1       3.117  14.316  -8.430  1.00  0.00    -0.388 OA
HETATM   47  H35 UNL     1       2.824  13.681  -7.734  1.00  0.00     0.210 HD
ENDBRANCH  36  46
BRANCH  37  48
HETATM   48  N3  UNL     1      -0.134  14.282  -8.671  1.00  0.00    -0.297 N 
HETATM   49  C19 UNL     1       0.004  13.689  -7.437  1.00  0.00     0.188 A 
HETATM   50  N4  UNL     1      -1.142  13.257  -6.960  1.00  0.00    -0.346 N 
HETATM   51  C20 UNL     1      -2.072  13.590  -7.930  1.00  0.00     0.116 A 
HETATM   52  H4  UNL     1      -1.310  12.782  -6.073  1.00  0.00     0.167 HD
HETATM   53  C21 UNL     1      -3.467  13.441  -8.003  1.00  0.00     0.109 A 
HETATM   54  C23 UNL     1      -1.455  14.191  -9.012  1.00  0.00     0.142 A 
HETATM   55  N5  UNL     1      -4.108  13.870  -9.118  1.00  0.00    -0.341 N 
HETATM   56  C22 UNL     1      -3.372  14.416 -10.107  1.00  0.00     0.183 A 
HETATM   57  H5  UNL     1      -5.120  13.782  -9.206  1.00  0.00     0.167 HD
HETATM   58  N6  UNL     1      -2.039  14.618 -10.145  1.00  0.00    -0.336 N 
HETATM   59  H6  UNL     1      -1.541  15.039 -10.929  1.00  0.00     0.168 HD
BRANCH  53  60
HETATM   60  N7  UNL     1      -4.227  12.867  -6.996  1.00  0.00    -0.287 NA
HETATM   61  H33 UNL     1      -5.162  12.589  -7.284  1.00  0.00     0.125 HD
HETATM   62  H34 UNL     1      -4.148  13.357  -6.115  1.00  0.00     0.125 HD
ENDBRANCH  53  60
ENDBRANCH  37  48
ENDBRANCH  33  34
ENDBRANCH  32  33
ENDBRANCH  28  32
ENDBRANCH  27  28
ENDBRANCH  23  27
ENDBRANCH  22  23
ENDBRANCH  21  22
ENDBRANCH  18  21
ENDBRANCH  17  18
BRANCH  17  63
HETATM   63  O17 UNL     1       2.870   3.766 -11.493  1.00  0.00    -0.385 OA
HETATM   64  H38 UNL     1       2.050   3.279 -11.679  1.00  0.00     0.210 HD
ENDBRANCH  17  63
ENDBRANCH  14  17
ENDBRANCH  12  13
ENDBRANCH  11  12
ENDBRANCH   8  11
ENDBRANCH   6   7
ENDBRANCH   5   6
ENDBRANCH   4   5
ENDBRANCH   2   4
TORSDOF 27
ENDMDL
MODEL 9
REMARK VINA RESULT:      -6.1      4.506      8.470
REMARK  27 active torsions:
REMARK  status: ('A' for Active; 'I' for Inactive)
REMARK    1  A    between atoms: C2_2  and  S1_4 
REMARK    2  A    between atoms: S1_4  and  C3_5 
REMARK    3  A    between atoms: C3_5  and  C4_6 
REMARK    4  A    between atoms: C4_6  and  N1_7 
REMARK       I    between atoms: N1_7  and  C5_8 
REMARK    5  A    between atoms: C5_8  and  C6_10 
REMARK    6  A    between atoms: C6_10  and  C7_11 
REMARK    7  A    between atoms: C7_11  and  N2_12 
REMARK       I    between atoms: N2_12  and  C8_13 
REMARK    8  A    between atoms: C8_13  and  C9_15 
REMARK    9  A    between atoms: C9_15  and  C10_16 
REMARK   10  A    between atoms: C9_15  and  O17_54 
REMARK   11  A    between atoms: C10_16  and  C13_19 
REMARK   12  A    between atoms: C13_19  and  O4_20 
REMARK   13  A    between atoms: O4_20  and  P1_21 
REMARK   14  A    between atoms: P1_21  and  O6_23 
REMARK   15  A    between atoms: P1_21  and  O7_24 
REMARK   16  A    between atoms: O7_24  and  P2_25 
REMARK   17  A    between atoms: P2_25  and  O9_27 
REMARK   18  A    between atoms: P2_25  and  O10_28 
REMARK   19  A    between atoms: O10_28  and  C14_29 
REMARK   20  A    between atoms: C14_29  and  C15_30 
REMARK   21  A    between atoms: C16_31  and  O13_49 
REMARK   22  A    between atoms: C17_32  and  O12_48 
REMARK   23  A    between atoms: C18_33  and  N3_35 
REMARK   24  A    between atoms: C21_40  and  N7_47 
REMARK   25  A    between atoms: O13_49  and  P3_50 
REMARK   26  A    between atoms: P3_50  and  O15_52 
REMARK   27  A    between atoms: P3_50  and  O16_53 
ROOT
HETATM    1  C1  UNL     1      11.426  12.153  -8.046  1.00  0.00     0.104 C 
HETATM    2  C2  UNL     1      11.888  12.531  -9.420  1.00  0.00     0.182 C 
HETATM    3  O1  UNL     1      12.561  11.790 -10.133  1.00  0.00    -0.286 OA
ENDROOT
BRANCH   2   4
HETATM    4  S1  UNL     1      11.423  14.150  -9.921  1.00  0.00    -0.091 SA
BRANCH   4   5
HETATM    5  C3  UNL     1      12.767  14.525 -11.093  1.00  0.00     0.102 C 
BRANCH   5   6
HETATM    6  C4  UNL     1      12.378  14.187 -12.534  1.00  0.00     0.133 C 
BRANCH   6   7
HETATM    7  N1  UNL     1      11.863  15.331 -13.258  1.00  0.00    -0.360 N 
HETATM    8  C5  UNL     1      10.514  15.515 -13.456  1.00  0.00     0.219 C 
HETATM    9  O2  UNL     1       9.677  14.690 -13.107  1.00  0.00    -0.274 OA
HETATM   10  H8  UNL     1      12.516  16.013 -13.618  1.00  0.00     0.162 HD
BRANCH   8  11
HETATM   11  C6  UNL     1      10.185  16.799 -14.186  1.00  0.00     0.122 C 
BRANCH  11  12
HETATM   12  C7  UNL     1       9.404  16.540 -15.473  1.00  0.00     0.132 C 
BRANCH  12  13
HETATM   13  N2  UNL     1       8.013  16.930 -15.381  1.00  0.00    -0.358 N 
HETATM   14  C8  UNL     1       7.029  15.971 -15.222  1.00  0.00     0.247 C 
HETATM   15  O3  UNL     1       7.274  14.772 -15.272  1.00  0.00    -0.271 OA
HETATM   16  H13 UNL     1       7.840  17.845 -14.971  1.00  0.00     0.162 HD
BRANCH  14  17
HETATM   17  C9  UNL     1       5.622  16.528 -14.960  1.00  0.00     0.219 C 
BRANCH  17  18
HETATM   18  C10 UNL     1       5.325  16.850 -13.472  1.00  0.00     0.009 C 
HETATM   19  C11 UNL     1       6.583  16.753 -12.597  1.00  0.00     0.020 C 
HETATM   20  C12 UNL     1       4.740  18.268 -13.307  1.00  0.00     0.020 C 
BRANCH  18  21
HETATM   21  C13 UNL     1       4.282  15.795 -13.007  1.00  0.00     0.192 C 
BRANCH  21  22
HETATM   22  O4  UNL     1       4.750  14.470 -13.161  1.00  0.00    -0.296 OA
BRANCH  22  23
HETATM   23  P1  UNL     1       4.359  13.285 -12.154  1.00  0.00     0.401 P 
HETATM   24  O5  UNL     1       2.891  13.166 -11.890  1.00  0.00    -0.631 OA
BRANCH  23  25
HETATM   25  O6  UNL     1       5.243  13.494 -10.825  1.00  0.00    -0.307 OA
HETATM   26  H23 UNL     1       6.015  12.913 -10.809  1.00  0.00     0.222 HD
ENDBRANCH  23  25
BRANCH  23  27
HETATM   27  O7  UNL     1       5.032  11.983 -12.771  1.00  0.00    -0.195 OA
BRANCH  27  28
HETATM   28  P2  UNL     1       6.621  11.881 -12.809  1.00  0.00     0.401 P 
HETATM   29  O8  UNL     1       7.221  11.066 -13.908  1.00  0.00    -0.631 OA
BRANCH  28  30
HETATM   30  O9  UNL     1       7.086  13.408 -12.803  1.00  0.00    -0.307 OA
HETATM   31  H24 UNL     1       8.025  13.543 -12.525  1.00  0.00     0.222 HD
ENDBRANCH  28  30
BRANCH  28  32
HETATM   32  O10 UNL     1       7.016  11.448 -11.324  1.00  0.00    -0.294 OA
BRANCH  32  33
HETATM   33  C14 UNL     1       8.274  11.790 -10.804  1.00  0.00     0.215 C 
BRANCH  33  34
HETATM   34  C15 UNL     1       8.981  10.471 -10.494  1.00  0.00     0.180 C 
HETATM   35  C16 UNL     1       9.332   9.758 -11.793  1.00  0.00     0.197 C 
HETATM   36  C17 UNL     1       8.553   8.457 -11.741  1.00  0.00     0.199 C 
HETATM   37  C18 UNL     1       8.377   8.247 -10.235  1.00  0.00     0.262 C 
HETATM   38  O11 UNL     1       8.181   9.579  -9.710  1.00  0.00    -0.353 OA
BRANCH  35  39
HETATM   39  O13 UNL     1      10.739   9.540 -11.810  1.00  0.00    -0.286 OA
BRANCH  39  40
HETATM   40  P3  UNL     1      11.443   9.691 -13.238  1.00  0.00     0.391 P 
HETATM   41  O14 UNL     1      12.461  10.784 -13.295  1.00  0.00    -0.632 OA
BRANCH  40  42
HETATM   42  O15 UNL     1      10.164   9.820 -14.190  1.00  0.00    -0.307 OA
HETATM   43  H36 UNL     1      10.429   9.771 -15.139  1.00  0.00     0.222 HD
ENDBRANCH  40  42
BRANCH  40  44
HETATM   44  O16 UNL     1      11.942   8.205 -13.502  1.00  0.00    -0.307 OA
HETATM   45  H37 UNL     1      11.797   7.619 -12.742  1.00  0.00     0.222 HD
ENDBRANCH  40  44
ENDBRANCH  39  40
ENDBRANCH  35  39
BRANCH  36  46
HETATM   46  O12 UNL     1       9.241   7.437 -12.470  1.00  0.00    -0.388 OA
HETATM   47  H35 UNL     1       9.873   7.020 -11.836  1.00  0.00     0.210 HD
ENDBRANCH  36  46
BRANCH  37  48
HETATM   48  N3  UNL     1       7.212   7.445  -9.918  1.00  0.00    -0.297 N 
HETATM   49  C19 UNL     1       6.472   6.675 -10.785  1.00  0.00     0.188 A 
HETATM   50  N4  UNL     1       5.554   5.968 -10.164  1.00  0.00    -0.346 N 
HETATM   51  C20 UNL     1       5.709   6.291  -8.827  1.00  0.00     0.116 A 
HETATM   52  H4  UNL     1       4.878   5.324 -10.575  1.00  0.00     0.167 HD
HETATM   53  C21 UNL     1       5.067   5.847  -7.658  1.00  0.00     0.109 A 
HETATM   54  C23 UNL     1       6.707   7.235  -8.665  1.00  0.00     0.142 A 
HETATM   55  N5  UNL     1       5.446   6.374  -6.469  1.00  0.00    -0.341 N 
HETATM   56  C22 UNL     1       6.420   7.306  -6.466  1.00  0.00     0.183 A 
HETATM   57  H5  UNL     1       5.006   6.074  -5.599  1.00  0.00     0.167 HD
HETATM   58  N6  UNL     1       7.109   7.801  -7.514  1.00  0.00    -0.336 N 
HETATM   59  H6  UNL     1       7.839   8.511  -7.443  1.00  0.00     0.168 HD
BRANCH  53  60
HETATM   60  N7  UNL     1       4.055   4.899  -7.658  1.00  0.00    -0.287 NA
HETATM   61  H33 UNL     1       3.524   4.854  -8.524  1.00  0.00     0.125 HD
HETATM   62  H34 UNL     1       3.525   4.890  -6.797  1.00  0.00     0.125 HD
ENDBRANCH  53  60
ENDBRANCH  37  48
ENDBRANCH  33  34
ENDBRANCH  32  33
ENDBRANCH  28  32
ENDBRANCH  27  28
ENDBRANCH  23  27
ENDBRANCH  22  23
ENDBRANCH  21  22
ENDBRANCH  18  21
ENDBRANCH  17  18
BRANCH  17  63
HETATM   63  O17 UNL     1       5.410  17.714 -15.734  1.00  0.00    -0.385 OA
HETATM   64  H38 UNL     1       6.279  18.081 -15.968  1.00  0.00     0.210 HD
ENDBRANCH  17  63
ENDBRANCH  14  17
ENDBRANCH  12  13
ENDBRANCH  11  12
ENDBRANCH   8  11
ENDBRANCH   6   7
ENDBRANCH   5   6
ENDBRANCH   4   5
ENDBRANCH   2   4
TORSDOF 27
ENDMDL
MODEL 10
REMARK VINA RESULT:      -6.0      4.064      6.524
REMARK  27 active torsions:
REMARK  status: ('A' for Active; 'I' for Inactive)
REMARK    1  A    between atoms: C2_2  and  S1_4 
REMARK    2  A    between atoms: S1_4  and  C3_5 
REMARK    3  A    between atoms: C3_5  and  C4_6 
REMARK    4  A    between atoms: C4_6  and  N1_7 
REMARK       I    between atoms: N1_7  and  C5_8 
REMARK    5  A    between atoms: C5_8  and  C6_10 
REMARK    6  A    between atoms: C6_10  and  C7_11 
REMARK    7  A    between atoms: C7_11  and  N2_12 
REMARK       I    between atoms: N2_12  and  C8_13 
REMARK    8  A    between atoms: C8_13  and  C9_15 
REMARK    9  A    between atoms: C9_15  and  C10_16 
REMARK   10  A    between atoms: C9_15  and  O17_54 
REMARK   11  A    between atoms: C10_16  and  C13_19 
REMARK   12  A    between atoms: C13_19  and  O4_20 
REMARK   13  A    between atoms: O4_20  and  P1_21 
REMARK   14  A    between atoms: P1_21  and  O6_23 
REMARK   15  A    between atoms: P1_21  and  O7_24 
REMARK   16  A    between atoms: O7_24  and  P2_25 
REMARK   17  A    between atoms: P2_25  and  O9_27 
REMARK   18  A    between atoms: P2_25  and  O10_28 
REMARK   19  A    between atoms: O10_28  and  C14_29 
REMARK   20  A    between atoms: C14_29  and  C15_30 
REMARK   21  A    between atoms: C16_31  and  O13_49 
REMARK   22  A    between atoms: C17_32  and  O12_48 
REMARK   23  A    between atoms: C18_33  and  N3_35 
REMARK   24  A    between atoms: C21_40  and  N7_47 
REMARK   25  A    between atoms: O13_49  and  P3_50 
REMARK   26  A    between atoms: P3_50  and  O15_52 
REMARK   27  A    between atoms: P3_50  and  O16_53 
ROOT
HETATM    1  C1  UNL     1       4.375  16.773 -11.512  1.00  0.00     0.104 C 
HETATM    2  C2  UNL     1       3.264  15.782 -11.345  1.00  0.00     0.182 C 
HETATM    3  O1  UNL     1       3.134  14.789 -12.057  1.00  0.00    -0.286 OA
ENDROOT
BRANCH   2   4
HETATM    4  S1  UNL     1       2.127  16.176 -10.063  1.00  0.00    -0.091 SA
BRANCH   4   5
HETATM    5  C3  UNL     1       0.962  14.785 -10.225  1.00  0.00     0.102 C 
BRANCH   5   6
HETATM    6  C4  UNL     1      -0.297  15.182 -10.998  1.00  0.00     0.133 C 
BRANCH   6   7
HETATM    7  N1  UNL     1      -0.163  14.983 -12.427  1.00  0.00    -0.360 N 
HETATM    8  C5  UNL     1       0.005  16.038 -13.292  1.00  0.00     0.219 C 
HETATM    9  O2  UNL     1      -0.031  17.206 -12.923  1.00  0.00    -0.274 OA
HETATM   10  H8  UNL     1      -0.185  14.039 -12.791  1.00  0.00     0.162 HD
BRANCH   8  11
HETATM   11  C6  UNL     1       0.181  15.610 -14.733  1.00  0.00     0.122 C 
BRANCH  11  12
HETATM   12  C7  UNL     1       1.510  14.888 -14.955  1.00  0.00     0.132 C 
BRANCH  12  13
HETATM   13  N2  UNL     1       1.364  13.640 -15.675  1.00  0.00    -0.358 N 
HETATM   14  C8  UNL     1       1.015  12.484 -15.002  1.00  0.00     0.247 C 
HETATM   15  O3  UNL     1       0.933  12.440 -13.781  1.00  0.00    -0.271 OA
HETATM   16  H13 UNL     1       1.060  13.726 -16.643  1.00  0.00     0.162 HD
BRANCH  14  17
HETATM   17  C9  UNL     1       0.722  11.277 -15.905  1.00  0.00     0.219 C 
BRANCH  17  18
HETATM   18  C10 UNL     1       1.783  10.148 -15.834  1.00  0.00     0.009 C 
HETATM   19  C11 UNL     1       1.617   9.275 -14.581  1.00  0.00     0.020 C 
HETATM   20  C12 UNL     1       1.712   9.226 -17.068  1.00  0.00     0.020 C 
BRANCH  18  21
HETATM   21  C13 UNL     1       3.164  10.863 -15.793  1.00  0.00     0.192 C 
BRANCH  21  22
HETATM   22  O4  UNL     1       3.945  10.464 -14.684  1.00  0.00    -0.296 OA
BRANCH  22  23
HETATM   23  P1  UNL     1       4.311  11.453 -13.476  1.00  0.00     0.401 P 
HETATM   24  O5  UNL     1       3.604  11.143 -12.195  1.00  0.00    -0.631 OA
BRANCH  23  25
HETATM   25  O6  UNL     1       4.062  12.951 -14.010  1.00  0.00    -0.307 OA
HETATM   26  H23 UNL     1       4.816  13.286 -14.513  1.00  0.00     0.222 HD
ENDBRANCH  23  25
BRANCH  23  27
HETATM   27  O7  UNL     1       5.899  11.417 -13.384  1.00  0.00    -0.195 OA
BRANCH  27  28
HETATM   28  P2  UNL     1       6.680  12.758 -13.023  1.00  0.00     0.401 P 
HETATM   29  O8  UNL     1       6.977  13.693 -14.151  1.00  0.00    -0.631 OA
BRANCH  28  30
HETATM   30  O9  UNL     1       5.789  13.400 -11.863  1.00  0.00    -0.307 OA
HETATM   31  H24 UNL     1       6.285  14.011 -11.265  1.00  0.00     0.222 HD
ENDBRANCH  28  30
BRANCH  28  32
HETATM   32  O10 UNL     1       7.941  12.257 -12.182  1.00  0.00    -0.294 OA
BRANCH  32  33
HETATM   33  C14 UNL     1       7.951  12.390 -10.785  1.00  0.00     0.215 C 
BRANCH  33  34
HETATM   34  C15 UNL     1       8.898  11.312 -10.261  1.00  0.00     0.180 C 
HETATM   35  C16 UNL     1       9.670  10.695 -11.420  1.00  0.00     0.197 C 
HETATM   36  C17 UNL     1       9.257   9.235 -11.423  1.00  0.00     0.199 C 
HETATM   37  C18 UNL     1       8.848   9.012  -9.965  1.00  0.00     0.262 C 
HETATM   38  O11 UNL     1       8.217  10.253  -9.578  1.00  0.00    -0.353 OA
BRANCH  35  39
HETATM   39  O13 UNL     1      11.060  10.859 -11.161  1.00  0.00    -0.286 OA
BRANCH  39  40
HETATM   40  P3  UNL     1      11.877  11.668 -12.273  1.00  0.00     0.391 P 
HETATM   41  O14 UNL     1      11.104  12.784 -12.896  1.00  0.00    -0.632 OA
BRANCH  40  42
HETATM   42  O15 UNL     1      12.351  10.472 -13.224  1.00  0.00    -0.307 OA
HETATM   43  H36 UNL     1      13.333  10.380 -13.206  1.00  0.00     0.222 HD
ENDBRANCH  40  42
BRANCH  40  44
HETATM   44  O16 UNL     1      13.202  12.044 -11.478  1.00  0.00    -0.307 OA
HETATM   45  H37 UNL     1      13.143  12.905 -11.034  1.00  0.00     0.222 HD
ENDBRANCH  40  44
ENDBRANCH  39  40
ENDBRANCH  35  39
BRANCH  36  46
HETATM   46  O12 UNL     1      10.314   8.423 -11.940  1.00  0.00    -0.388 OA
HETATM   47  H35 UNL     1      10.389   8.642 -12.900  1.00  0.00     0.210 HD
ENDBRANCH  36  46
BRANCH  37  48
HETATM   48  N3  UNL     1       7.890   7.935  -9.815  1.00  0.00    -0.297 N 
HETATM   49  C19 UNL     1       7.517   7.016 -10.767  1.00  0.00     0.188 A 
HETATM   50  N4  UNL     1       6.722   6.088 -10.280  1.00  0.00    -0.346 N 
HETATM   51  C20 UNL     1       6.576   6.420  -8.945  1.00  0.00     0.116 A 
HETATM   52  H4  UNL     1       6.305   5.300 -10.776  1.00  0.00     0.167 HD
HETATM   53  C21 UNL     1       5.892   5.808  -7.880  1.00  0.00     0.109 A 
HETATM   54  C23 UNL     1       7.263   7.584  -8.652  1.00  0.00     0.142 A 
HETATM   55  N5  UNL     1       5.932   6.396  -6.659  1.00  0.00    -0.341 N 
HETATM   56  C22 UNL     1       6.624   7.545  -6.527  1.00  0.00     0.183 A 
HETATM   57  H5  UNL     1       5.451   5.979  -5.862  1.00  0.00     0.167 HD
HETATM   58  N6  UNL     1       7.322   8.216  -7.466  1.00  0.00    -0.336 N 
HETATM   59  H6  UNL     1       7.827   9.086  -7.300  1.00  0.00     0.168 HD
BRANCH  53  60
HETATM   60  N7  UNL     1       5.167   4.634  -8.014  1.00  0.00    -0.287 NA
HETATM   61  H33 UNL     1       5.441   4.061  -8.809  1.00  0.00     0.125 HD
HETATM   62  H34 UNL     1       4.175   4.764  -7.866  1.00  0.00     0.125 HD
ENDBRANCH  53  60
ENDBRANCH  37  48
ENDBRANCH  33  34
ENDBRANCH  32  33
ENDBRANCH  28  32
ENDBRANCH  27  28
ENDBRANCH  23  27
ENDBRANCH  22  23
ENDBRANCH  21  22
ENDBRANCH  18  21
ENDBRANCH  17  18
BRANCH  17  63
HETATM   63  O17 UNL     1      -0.557  10.719 -15.582  1.00  0.00    -0.385 OA
HETATM   64  H38 UNL     1      -0.426   9.789 -15.332  1.00  0.00     0.210 HD
ENDBRANCH  17  63
ENDBRANCH  14  17
ENDBRANCH  12  13
ENDBRANCH  11  12
ENDBRANCH   8  11
ENDBRANCH   6   7
ENDBRANCH   5   6
ENDBRANCH   4   5
ENDBRANCH   2   4
TORSDOF 27
ENDMDL
MODEL 11
REMARK VINA RESULT:      -6.0      5.075      9.943
REMARK  27 active torsions:
REMARK  status: ('A' for Active; 'I' for Inactive)
REMARK    1  A    between atoms: C2_2  and  S1_4 
REMARK    2  A    between atoms: S1_4  and  C3_5 
REMARK    3  A    between atoms: C3_5  and  C4_6 
REMARK    4  A    between atoms: C4_6  and  N1_7 
REMARK       I    between atoms: N1_7  and  C5_8 
REMARK    5  A    between atoms: C5_8  and  C6_10 
REMARK    6  A    between atoms: C6_10  and  C7_11 
REMARK    7  A    between atoms: C7_11  and  N2_12 
REMARK       I    between atoms: N2_12  and  C8_13 
REMARK    8  A    between atoms: C8_13  and  C9_15 
REMARK    9  A    between atoms: C9_15  and  C10_16 
REMARK   10  A    between atoms: C9_15  and  O17_54 
REMARK   11  A    between atoms: C10_16  and  C13_19 
REMARK   12  A    between atoms: C13_19  and  O4_20 
REMARK   13  A    between atoms: O4_20  and  P1_21 
REMARK   14  A    between atoms: P1_21  and  O6_23 
REMARK   15  A    between atoms: P1_21  and  O7_24 
REMARK   16  A    between atoms: O7_24  and  P2_25 
REMARK   17  A    between atoms: P2_25  and  O9_27 
REMARK   18  A    between atoms: P2_25  and  O10_28 
REMARK   19  A    between atoms: O10_28  and  C14_29 
REMARK   20  A    between atoms: C14_29  and  C15_30 
REMARK   21  A    between atoms: C16_31  and  O13_49 
REMARK   22  A    between atoms: C17_32  and  O12_48 
REMARK   23  A    between atoms: C18_33  and  N3_35 
REMARK   24  A    between atoms: C21_40  and  N7_47 
REMARK   25  A    between atoms: O13_49  and  P3_50 
REMARK   26  A    between atoms: P3_50  and  O15_52 
REMARK   27  A    between atoms: P3_50  and  O16_53 
ROOT
HETATM    1  C1  UNL     1       6.116  13.082 -11.411  1.00  0.00     0.104 C 
HETATM    2  C2  UNL     1       7.505  13.280 -11.936  1.00  0.00     0.182 C 
HETATM    3  O1  UNL     1       7.964  12.650 -12.886  1.00  0.00    -0.286 OA
ENDROOT
BRANCH   2   4
HETATM    4  S1  UNL     1       8.452  14.470 -11.052  1.00  0.00    -0.091 SA
BRANCH   4   5
HETATM    5  C3  UNL     1      10.062  14.286 -11.886  1.00  0.00     0.102 C 
BRANCH   5   6
HETATM    6  C4  UNL     1      11.164  13.865 -10.911  1.00  0.00     0.133 C 
BRANCH   6   7
HETATM    7  N1  UNL     1      10.666  13.051  -9.822  1.00  0.00    -0.360 N 
HETATM    8  C5  UNL     1      11.492  12.598  -8.820  1.00  0.00     0.219 C 
HETATM    9  O2  UNL     1      12.704  12.784  -8.829  1.00  0.00    -0.274 OA
HETATM   10  H8  UNL     1       9.682  12.819  -9.798  1.00  0.00     0.162 HD
BRANCH   8  11
HETATM   11  C6  UNL     1      10.764  11.813  -7.751  1.00  0.00     0.122 C 
BRANCH  11  12
HETATM   12  C7  UNL     1       9.247  11.949  -7.877  1.00  0.00     0.132 C 
BRANCH  12  13
HETATM   13  N2  UNL     1       8.584  10.690  -8.146  1.00  0.00    -0.358 N 
HETATM   14  C8  UNL     1       8.642  10.128  -9.408  1.00  0.00     0.247 C 
HETATM   15  O3  UNL     1       9.141  10.714 -10.360  1.00  0.00    -0.271 OA
HETATM   16  H13 UNL     1       8.517  10.052  -7.355  1.00  0.00     0.162 HD
BRANCH  14  17
HETATM   17  C9  UNL     1       8.052   8.713  -9.511  1.00  0.00     0.219 C 
BRANCH  17  18
HETATM   18  C10 UNL     1       7.675   8.277 -10.951  1.00  0.00     0.009 C 
HETATM   19  C11 UNL     1       6.907   9.373 -11.705  1.00  0.00     0.020 C 
HETATM   20  C12 UNL     1       8.925   7.919 -11.779  1.00  0.00     0.020 C 
BRANCH  18  21
HETATM   21  C13 UNL     1       6.771   7.021 -10.794  1.00  0.00     0.192 C 
BRANCH  21  22
HETATM   22  O4  UNL     1       5.728   6.985 -11.746  1.00  0.00    -0.296 OA
BRANCH  22  23
HETATM   23  P1  UNL     1       4.177   7.007 -11.339  1.00  0.00     0.401 P 
HETATM   24  O5  UNL     1       3.931   6.988  -9.863  1.00  0.00    -0.631 OA
BRANCH  23  25
HETATM   25  O6  UNL     1       3.471   5.797 -12.130  1.00  0.00    -0.307 OA
HETATM   26  H23 UNL     1       2.591   6.037 -12.449  1.00  0.00     0.222 HD
ENDBRANCH  23  25
BRANCH  23  27
HETATM   27  O7  UNL     1       3.571   8.268 -12.097  1.00  0.00    -0.195 OA
BRANCH  27  28
HETATM   28  P2  UNL     1       2.071   8.198 -12.630  1.00  0.00     0.401 P 
HETATM   29  O8  UNL     1       1.829   7.401 -13.870  1.00  0.00    -0.631 OA
BRANCH  28  30
HETATM   30  O9  UNL     1       1.254   7.685 -11.357  1.00  0.00    -0.307 OA
HETATM   31  H24 UNL     1       0.982   6.736 -11.408  1.00  0.00     0.222 HD
ENDBRANCH  28  30
BRANCH  28  32
HETATM   32  O10 UNL     1       1.608   9.725 -12.680  1.00  0.00    -0.294 OA
BRANCH  32  33
HETATM   33  C14 UNL     1       2.557  10.752 -12.553  1.00  0.00     0.215 C 
BRANCH  33  34
HETATM   34  C15 UNL     1       2.192  11.803 -13.600  1.00  0.00     0.180 C 
HETATM   35  C16 UNL     1       3.377  12.730 -13.834  1.00  0.00     0.197 C 
HETATM   36  C17 UNL     1       2.881  14.101 -13.413  1.00  0.00     0.199 C 
HETATM   37  C18 UNL     1       1.369  13.971 -13.606  1.00  0.00     0.262 C 
HETATM   38  O11 UNL     1       1.075  12.612 -13.214  1.00  0.00    -0.353 OA
BRANCH  35  39
HETATM   39  O13 UNL     1       3.709  12.681 -15.217  1.00  0.00    -0.286 OA
BRANCH  39  40
HETATM   40  P3  UNL     1       5.230  12.318 -15.548  1.00  0.00     0.391 P 
HETATM   41  O14 UNL     1       5.449  11.863 -16.955  1.00  0.00    -0.632 OA
BRANCH  40  42
HETATM   42  O15 UNL     1       5.552  11.279 -14.375  1.00  0.00    -0.307 OA
HETATM   43  H36 UNL     1       5.528  10.353 -14.714  1.00  0.00     0.222 HD
ENDBRANCH  40  42
BRANCH  40  44
HETATM   44  O16 UNL     1       5.979  13.639 -15.077  1.00  0.00    -0.307 OA
HETATM   45  H37 UNL     1       5.662  14.435 -15.533  1.00  0.00     0.222 HD
ENDBRANCH  40  44
ENDBRANCH  39  40
ENDBRANCH  35  39
BRANCH  36  46
HETATM   46  O12 UNL     1       3.553  15.121 -14.157  1.00  0.00    -0.388 OA
HETATM   47  H35 UNL     1       3.777  15.833 -13.512  1.00  0.00     0.210 HD
ENDBRANCH  36  46
BRANCH  37  48
HETATM   48  N3  UNL     1       0.619  14.874 -12.756  1.00  0.00    -0.297 N 
HETATM   49  C19 UNL     1      -0.349  15.771 -13.145  1.00  0.00     0.188 A 
HETATM   50  N4  UNL     1      -0.930  16.353 -12.120  1.00  0.00    -0.346 N 
HETATM   51  C20 UNL     1      -0.311  15.804 -11.010  1.00  0.00     0.116 A 
HETATM   52  H4  UNL     1      -1.671  17.054 -12.137  1.00  0.00     0.167 HD
HETATM   53  C21 UNL     1      -0.506  15.975  -9.629  1.00  0.00     0.109 A 
HETATM   54  C23 UNL     1       0.677  14.915 -11.391  1.00  0.00     0.142 A 
HETATM   55  N5  UNL     1       0.286  15.285  -8.771  1.00  0.00    -0.341 N 
HETATM   56  C22 UNL     1       1.227  14.470  -9.288  1.00  0.00     0.183 A 
HETATM   57  H5  UNL     1       0.172  15.381  -7.762  1.00  0.00     0.167 HD
HETATM   58  N6  UNL     1       1.498  14.220 -10.585  1.00  0.00    -0.336 N 
HETATM   59  H6  UNL     1       2.230  13.587 -10.911  1.00  0.00     0.168 HD
BRANCH  53  60
HETATM   60  N7  UNL     1      -1.462  16.823  -9.093  1.00  0.00    -0.287 NA
HETATM   61  H33 UNL     1      -2.399  16.686  -9.465  1.00  0.00     0.125 HD
HETATM   62  H34 UNL     1      -1.140  17.778  -9.009  1.00  0.00     0.125 HD
ENDBRANCH  53  60
ENDBRANCH  37  48
ENDBRANCH  33  34
ENDBRANCH  32  33
ENDBRANCH  28  32
ENDBRANCH  27  28
ENDBRANCH  23  27
ENDBRANCH  22  23
ENDBRANCH  21  22
ENDBRANCH  18  21
ENDBRANCH  17  18
BRANCH  17  63
HETATM   63  O17 UNL     1       8.970   7.756  -8.972  1.00  0.00    -0.385 OA
HETATM   64  H38 UNL     1       8.792   7.669  -8.021  1.00  0.00     0.210 HD
ENDBRANCH  17  63
ENDBRANCH  14  17
ENDBRANCH  12  13
ENDBRANCH  11  12
ENDBRANCH   8  11
ENDBRANCH   6   7
ENDBRANCH   5   6
ENDBRANCH   4   5
ENDBRANCH   2   4
TORSDOF 27
ENDMDL
MODEL 12
REMARK VINA RESULT:      -6.0      4.158      6.537
REMARK  27 active torsions:
REMARK  status: ('A' for Active; 'I' for Inactive)
REMARK    1  A    between atoms: C2_2  and  S1_4 
REMARK    2  A    between atoms: S1_4  and  C3_5 
REMARK    3  A    between atoms: C3_5  and  C4_6 
REMARK    4  A    between atoms: C4_6  and  N1_7 
REMARK       I    between atoms: N1_7  and  C5_8 
REMARK    5  A    between atoms: C5_8  and  C6_10 
REMARK    6  A    between atoms: C6_10  and  C7_11 
REMARK    7  A    between atoms: C7_11  and  N2_12 
REMARK       I    between atoms: N2_12  and  C8_13 
REMARK    8  A    between atoms: C8_13  and  C9_15 
REMARK    9  A    between atoms: C9_15  and  C10_16 
REMARK   10  A    between atoms: C9_15  and  O17_54 
REMARK   11  A    between atoms: C10_16  and  C13_19 
REMARK   12  A    between atoms: C13_19  and  O4_20 
REMARK   13  A    between atoms: O4_20  and  P1_21 
REMARK   14  A    between atoms: P1_21  and  O6_23 
REMARK   15  A    between atoms: P1_21  and  O7_24 
REMARK   16  A    between atoms: O7_24  and  P2_25 
REMARK   17  A    between atoms: P2_25  and  O9_27 
REMARK   18  A    between atoms: P2_25  and  O10_28 
REMARK   19  A    between atoms: O10_28  and  C14_29 
REMARK   20  A    between atoms: C14_29  and  C15_30 
REMARK   21  A    between atoms: C16_31  and  O13_49 
REMARK   22  A    between atoms: C17_32  and  O12_48 
REMARK   23  A    between atoms: C18_33  and  N3_35 
REMARK   24  A    between atoms: C21_40  and  N7_47 
REMARK   25  A    between atoms: O13_49  and  P3_50 
REMARK   26  A    between atoms: P3_50  and  O15_52 
REMARK   27  A    between atoms: P3_50  and  O16_53 
ROOT
HETATM    1  C1  UNL     1       0.472  18.541  -7.070  1.00  0.00     0.104 C 
HETATM    2  C2  UNL     1       0.647  17.121  -7.514  1.00  0.00     0.182 C 
HETATM    3  O1  UNL     1       0.605  16.164  -6.745  1.00  0.00    -0.286 OA
ENDROOT
BRANCH   2   4
HETATM    4  S1  UNL     1       0.960  16.932  -9.234  1.00  0.00    -0.091 SA
BRANCH   4   5
HETATM    5  C3  UNL     1       0.559  15.167  -9.444  1.00  0.00     0.102 C 
BRANCH   5   6
HETATM    6  C4  UNL     1       1.658  14.420 -10.203  1.00  0.00     0.133 C 
BRANCH   6   7
HETATM    7  N1  UNL     1       1.815  14.888 -11.564  1.00  0.00    -0.360 N 
HETATM    8  C5  UNL     1       3.052  15.178 -12.092  1.00  0.00     0.219 C 
HETATM    9  O2  UNL     1       4.080  15.138 -11.425  1.00  0.00    -0.274 OA
HETATM   10  H8  UNL     1       0.991  14.995 -12.140  1.00  0.00     0.162 HD
BRANCH   8  11
HETATM   11  C6  UNL     1       3.001  15.597 -13.545  1.00  0.00     0.122 C 
BRANCH  11  12
HETATM   12  C7  UNL     1       1.610  15.399 -14.147  1.00  0.00     0.132 C 
BRANCH  12  13
HETATM   13  N2  UNL     1       1.579  14.386 -15.181  1.00  0.00    -0.358 N 
HETATM   14  C8  UNL     1       1.221  13.086 -14.872  1.00  0.00     0.247 C 
HETATM   15  O3  UNL     1       1.038  12.717 -13.719  1.00  0.00    -0.271 OA
HETATM   16  H13 UNL     1       1.355  14.721 -16.116  1.00  0.00     0.162 HD
BRANCH  14  17
HETATM   17  C9  UNL     1       1.057  12.158 -16.085  1.00  0.00     0.219 C 
BRANCH  17  18
HETATM   18  C10 UNL     1       2.341  11.383 -16.481  1.00  0.00     0.009 C 
HETATM   19  C11 UNL     1       2.180  10.640 -17.815  1.00  0.00     0.020 C 
HETATM   20  C12 UNL     1       3.554  12.327 -16.606  1.00  0.00     0.020 C 
BRANCH  18  21
HETATM   21  C13 UNL     1       2.590  10.357 -15.338  1.00  0.00     0.192 C 
BRANCH  21  22
HETATM   22  O4  UNL     1       3.888  10.467 -14.790  1.00  0.00    -0.296 OA
BRANCH  22  23
HETATM   23  P1  UNL     1       4.175  10.405 -13.213  1.00  0.00     0.401 P 
HETATM   24  O5  UNL     1       3.761   9.121 -12.566  1.00  0.00    -0.631 OA
BRANCH  23  25
HETATM   25  O6  UNL     1       3.491  11.710 -12.564  1.00  0.00    -0.307 OA
HETATM   26  H23 UNL     1       3.668  12.506 -13.082  1.00  0.00     0.222 HD
ENDBRANCH  23  25
BRANCH  23  27
HETATM   27  O7  UNL     1       5.719  10.757 -13.063  1.00  0.00    -0.195 OA
BRANCH  27  28
HETATM   28  P2  UNL     1       6.147  12.282 -12.886  1.00  0.00     0.401 P 
HETATM   29  O8  UNL     1       5.570  13.263 -13.854  1.00  0.00    -0.631 OA
BRANCH  28  30
HETATM   30  O9  UNL     1       5.793  12.587 -11.360  1.00  0.00    -0.307 OA
HETATM   31  H24 UNL     1       4.830  12.517 -11.147  1.00  0.00     0.222 HD
ENDBRANCH  28  30
BRANCH  28  32
HETATM   32  O10 UNL     1       7.741  12.229 -12.813  1.00  0.00    -0.294 OA
BRANCH  32  33
HETATM   33  C14 UNL     1       8.416  12.839 -11.744  1.00  0.00     0.215 C 
BRANCH  33  34
HETATM   34  C15 UNL     1       9.131  11.717 -10.994  1.00  0.00     0.180 C 
HETATM   35  C16 UNL     1       9.991  10.916 -11.963  1.00  0.00     0.197 C 
HETATM   36  C17 UNL     1       9.409   9.516 -11.928  1.00  0.00     0.199 C 
HETATM   37  C18 UNL     1       8.754   9.473 -10.545  1.00  0.00     0.262 C 
HETATM   38  O11 UNL     1       8.228  10.805 -10.358  1.00  0.00    -0.353 OA
BRANCH  35  39
HETATM   39  O13 UNL     1      11.334  10.951 -11.492  1.00  0.00    -0.286 OA
BRANCH  39  40
HETATM   40  P3  UNL     1      12.352  11.812 -12.374  1.00  0.00     0.391 P 
HETATM   41  O14 UNL     1      11.743  13.039 -12.971  1.00  0.00    -0.632 OA
BRANCH  40  42
HETATM   42  O15 UNL     1      12.900  10.693 -13.377  1.00  0.00    -0.307 OA
HETATM   43  H36 UNL     1      13.795  10.384 -13.100  1.00  0.00     0.222 HD
ENDBRANCH  40  42
BRANCH  40  44
HETATM   44  O16 UNL     1      13.560  12.010 -11.358  1.00  0.00    -0.307 OA
HETATM   45  H37 UNL     1      13.315  12.536 -10.580  1.00  0.00     0.222 HD
ENDBRANCH  40  44
ENDBRANCH  39  40
ENDBRANCH  35  39
BRANCH  36  46
HETATM   46  O12 UNL     1      10.425   8.549 -12.205  1.00  0.00    -0.388 OA
HETATM   47  H35 UNL     1      10.484   8.481 -13.187  1.00  0.00     0.210 HD
ENDBRANCH  36  46
BRANCH  37  48
HETATM   48  N3  UNL     1       7.660   8.525 -10.476  1.00  0.00    -0.297 N 
HETATM   49  C19 UNL     1       6.832   8.136 -11.503  1.00  0.00     0.188 A 
HETATM   50  N4  UNL     1       6.019   7.165 -11.147  1.00  0.00    -0.346 N 
HETATM   51  C20 UNL     1       6.340   6.908  -9.826  1.00  0.00     0.116 A 
HETATM   52  H4  UNL     1       5.311   6.704 -11.718  1.00  0.00     0.167 HD
HETATM   53  C21 UNL     1       5.867   5.965  -8.897  1.00  0.00     0.109 A 
HETATM   54  C23 UNL     1       7.328   7.770  -9.386  1.00  0.00     0.142 A 
HETATM   55  N5  UNL     1       6.386   5.972  -7.645  1.00  0.00    -0.341 N 
HETATM   56  C22 UNL     1       7.330   6.888  -7.350  1.00  0.00     0.183 A 
HETATM   57  H5  UNL     1       6.071   5.301  -6.944  1.00  0.00     0.167 HD
HETATM   58  N6  UNL     1       7.865   7.829  -8.155  1.00  0.00    -0.336 N 
HETATM   59  H6  UNL     1       8.581   8.496  -7.867  1.00  0.00     0.168 HD
BRANCH  53  60
HETATM   60  N7  UNL     1       4.887   5.031  -9.191  1.00  0.00    -0.287 NA
HETATM   61  H33 UNL     1       3.975   5.241  -8.791  1.00  0.00     0.125 HD
HETATM   62  H34 UNL     1       5.212   4.078  -9.106  1.00  0.00     0.125 HD
ENDBRANCH  53  60
ENDBRANCH  37  48
ENDBRANCH  33  34
ENDBRANCH  32  33
ENDBRANCH  28  32
ENDBRANCH  27  28
ENDBRANCH  23  27
ENDBRANCH  22  23
ENDBRANCH  21  22
ENDBRANCH  18  21
ENDBRANCH  17  18
BRANCH  17  63
HETATM   63  O17 UNL     1       0.011  11.211 -15.842  1.00  0.00    -0.385 OA
HETATM   64  H38 UNL     1      -0.796  11.703 -15.618  1.00  0.00     0.210 HD
ENDBRANCH  17  63
ENDBRANCH  14  17
ENDBRANCH  12  13
ENDBRANCH  11  12
ENDBRANCH   8  11
ENDBRANCH   6   7
ENDBRANCH   5   6
ENDBRANCH   4   5
ENDBRANCH   2   4
TORSDOF 27
ENDMDL
MODEL 13
REMARK VINA RESULT:      -6.0      4.316      8.659
REMARK  27 active torsions:
REMARK  status: ('A' for Active; 'I' for Inactive)
REMARK    1  A    between atoms: C2_2  and  S1_4 
REMARK    2  A    between atoms: S1_4  and  C3_5 
REMARK    3  A    between atoms: C3_5  and  C4_6 
REMARK    4  A    between atoms: C4_6  and  N1_7 
REMARK       I    between atoms: N1_7  and  C5_8 
REMARK    5  A    between atoms: C5_8  and  C6_10 
REMARK    6  A    between atoms: C6_10  and  C7_11 
REMARK    7  A    between atoms: C7_11  and  N2_12 
REMARK       I    between atoms: N2_12  and  C8_13 
REMARK    8  A    between atoms: C8_13  and  C9_15 
REMARK    9  A    between atoms: C9_15  and  C10_16 
REMARK   10  A    between atoms: C9_15  and  O17_54 
REMARK   11  A    between atoms: C10_16  and  C13_19 
REMARK   12  A    between atoms: C13_19  and  O4_20 
REMARK   13  A    between atoms: O4_20  and  P1_21 
REMARK   14  A    between atoms: P1_21  and  O6_23 
REMARK   15  A    between atoms: P1_21  and  O7_24 
REMARK   16  A    between atoms: O7_24  and  P2_25 
REMARK   17  A    between atoms: P2_25  and  O9_27 
REMARK   18  A    between atoms: P2_25  and  O10_28 
REMARK   19  A    between atoms: O10_28  and  C14_29 
REMARK   20  A    between atoms: C14_29  and  C15_30 
REMARK   21  A    between atoms: C16_31  and  O13_49 
REMARK   22  A    between atoms: C17_32  and  O12_48 
REMARK   23  A    between atoms: C18_33  and  N3_35 
REMARK   24  A    between atoms: C21_40  and  N7_47 
REMARK   25  A    between atoms: O13_49  and  P3_50 
REMARK   26  A    between atoms: P3_50  and  O15_52 
REMARK   27  A    between atoms: P3_50  and  O16_53 
ROOT
HETATM    1  C1  UNL     1      12.203  15.855  -9.535  1.00  0.00     0.104 C 
HETATM    2  C2  UNL     1      13.496  15.793  -8.780  1.00  0.00     0.182 C 
HETATM    3  O1  UNL     1      14.123  16.791  -8.434  1.00  0.00    -0.286 OA
ENDROOT
BRANCH   2   4
HETATM    4  S1  UNL     1      14.072  14.162  -8.461  1.00  0.00    -0.091 SA
BRANCH   4   5
HETATM    5  C3  UNL     1      13.698  13.369 -10.058  1.00  0.00     0.102 C 
BRANCH   5   6
HETATM    6  C4  UNL     1      12.780  12.156  -9.891  1.00  0.00     0.133 C 
BRANCH   6   7
HETATM    7  N1  UNL     1      11.436  12.400 -10.373  1.00  0.00    -0.360 N 
HETATM    8  C5  UNL     1      10.389  12.631  -9.512  1.00  0.00     0.219 C 
HETATM    9  O2  UNL     1      10.508  12.564  -8.294  1.00  0.00    -0.274 OA
HETATM   10  H8  UNL     1      11.272  12.408 -11.371  1.00  0.00     0.162 HD
BRANCH   8  11
HETATM   11  C6  UNL     1       9.083  12.919 -10.221  1.00  0.00     0.122 C 
BRANCH  11  12
HETATM   12  C7  UNL     1       9.299  13.292 -11.687  1.00  0.00     0.132 C 
BRANCH  12  13
HETATM   13  N2  UNL     1       8.227  14.098 -12.232  1.00  0.00    -0.358 N 
HETATM   14  C8  UNL     1       8.488  15.029 -13.220  1.00  0.00     0.247 C 
HETATM   15  O3  UNL     1       9.628  15.290 -13.584  1.00  0.00    -0.271 OA
HETATM   16  H13 UNL     1       7.308  13.660 -12.236  1.00  0.00     0.162 HD
BRANCH  14  17
HETATM   17  C9  UNL     1       7.242  15.686 -13.832  1.00  0.00     0.219 C 
BRANCH  17  18
HETATM   18  C10 UNL     1       6.703  16.904 -13.038  1.00  0.00     0.009 C 
HETATM   19  C11 UNL     1       7.637  17.303 -11.886  1.00  0.00     0.020 C 
HETATM   20  C12 UNL     1       6.518  18.136 -13.948  1.00  0.00     0.020 C 
BRANCH  18  21
HETATM   21  C13 UNL     1       5.325  16.464 -12.465  1.00  0.00     0.192 C 
BRANCH  21  22
HETATM   22  O4  UNL     1       5.176  15.059 -12.441  1.00  0.00    -0.296 OA
BRANCH  22  23
HETATM   23  P1  UNL     1       4.945  14.231 -11.088  1.00  0.00     0.401 P 
HETATM   24  O5  UNL     1       3.535  14.260 -10.586  1.00  0.00    -0.631 OA
BRANCH  23  25
HETATM   25  O6  UNL     1       6.025  14.769 -10.022  1.00  0.00    -0.307 OA
HETATM   26  H23 UNL     1       6.055  14.219  -9.229  1.00  0.00     0.222 HD
ENDBRANCH  23  25
BRANCH  23  27
HETATM   27  O7  UNL     1       5.511  12.776 -11.394  1.00  0.00    -0.195 OA
BRANCH  27  28
HETATM   28  P2  UNL     1       5.007  12.012 -12.698  1.00  0.00     0.401 P 
HETATM   29  O8  UNL     1       3.565  12.165 -13.056  1.00  0.00    -0.631 OA
BRANCH  28  30
HETATM   30  O9  UNL     1       6.015  12.514 -13.830  1.00  0.00    -0.307 OA
HETATM   31  H24 UNL     1       5.571  12.871 -14.637  1.00  0.00     0.222 HD
ENDBRANCH  28  30
BRANCH  28  32
HETATM   32  O10 UNL     1       5.520  10.514 -12.490  1.00  0.00    -0.294 OA
BRANCH  32  33
HETATM   33  C14 UNL     1       6.783  10.131 -12.969  1.00  0.00     0.215 C 
BRANCH  33  34
HETATM   34  C15 UNL     1       7.696  10.051 -11.746  1.00  0.00     0.180 C 
HETATM   35  C16 UNL     1       8.860   9.112 -12.033  1.00  0.00     0.197 C 
HETATM   36  C17 UNL     1       8.705   7.989 -11.026  1.00  0.00     0.199 C 
HETATM   37  C18 UNL     1       7.930   8.672  -9.897  1.00  0.00     0.262 C 
HETATM   38  O11 UNL     1       7.023   9.568 -10.578  1.00  0.00    -0.353 OA
BRANCH  35  39
HETATM   39  O13 UNL     1      10.069   9.839 -11.846  1.00  0.00    -0.286 OA
BRANCH  39  40
HETATM   40  P3  UNL     1      11.086   9.815 -13.079  1.00  0.00     0.391 P 
HETATM   41  O14 UNL     1      12.114  10.899 -13.034  1.00  0.00    -0.632 OA
BRANCH  40  42
HETATM   42  O15 UNL     1      10.064   9.814 -14.310  1.00  0.00    -0.307 OA
HETATM   43  H36 UNL     1       9.321  10.442 -14.146  1.00  0.00     0.222 HD
ENDBRANCH  40  42
BRANCH  40  44
HETATM   44  O16 UNL     1      11.600   8.310 -13.035  1.00  0.00    -0.307 OA
HETATM   45  H37 UNL     1      12.002   8.025 -13.871  1.00  0.00     0.222 HD
ENDBRANCH  40  44
ENDBRANCH  39  40
ENDBRANCH  35  39
BRANCH  36  46
HETATM   46  O12 UNL     1       9.982   7.433 -10.703  1.00  0.00    -0.388 OA
HETATM   47  H35 UNL     1      10.655   8.090 -11.000  1.00  0.00     0.210 HD
ENDBRANCH  36  46
BRANCH  37  48
HETATM   48  N3  UNL     1       7.155   7.736  -9.107  1.00  0.00    -0.297 N 
HETATM   49  C19 UNL     1       7.261   7.502  -7.756  1.00  0.00     0.188 A 
HETATM   50  N4  UNL     1       6.328   6.684  -7.318  1.00  0.00    -0.346 N 
HETATM   51  C20 UNL     1       5.578   6.377  -8.439  1.00  0.00     0.116 A 
HETATM   52  H4  UNL     1       6.189   6.351  -6.364  1.00  0.00     0.167 HD
HETATM   53  C21 UNL     1       4.427   5.594  -8.630  1.00  0.00     0.109 A 
HETATM   54  C23 UNL     1       6.103   6.991  -9.562  1.00  0.00     0.142 A 
HETATM   55  N5  UNL     1       3.922   5.476  -9.882  1.00  0.00    -0.341 N 
HETATM   56  C22 UNL     1       4.554   6.114 -10.888  1.00  0.00     0.183 A 
HETATM   57  H5  UNL     1       3.086   4.919 -10.059  1.00  0.00     0.167 HD
HETATM   58  N6  UNL     1       5.652   6.894 -10.825  1.00  0.00    -0.336 N 
HETATM   59  H6  UNL     1       6.084   7.351 -11.629  1.00  0.00     0.168 HD
BRANCH  53  60
HETATM   60  N7  UNL     1       3.781   4.924  -7.602  1.00  0.00    -0.287 NA
HETATM   61  H33 UNL     1       2.893   4.505  -7.868  1.00  0.00     0.125 HD
HETATM   62  H34 UNL     1       3.803   5.430  -6.727  1.00  0.00     0.125 HD
ENDBRANCH  53  60
ENDBRANCH  37  48
ENDBRANCH  33  34
ENDBRANCH  32  33
ENDBRANCH  28  32
ENDBRANCH  27  28
ENDBRANCH  23  27
ENDBRANCH  22  23
ENDBRANCH  21  22
ENDBRANCH  18  21
ENDBRANCH  17  18
BRANCH  17  63
HETATM   63  O17 UNL     1       7.513  16.103 -15.175  1.00  0.00    -0.385 OA
HETATM   64  H38 UNL     1       7.964  16.963 -15.138  1.00  0.00     0.210 HD
ENDBRANCH  17  63
ENDBRANCH  14  17
ENDBRANCH  12  13
ENDBRANCH  11  12
ENDBRANCH   8  11
ENDBRANCH   6   7
ENDBRANCH   5   6
ENDBRANCH   4   5
ENDBRANCH   2   4
TORSDOF 27
ENDMDL
MODEL 14
REMARK VINA RESULT:      -5.9      4.518      9.284
REMARK  27 active torsions:
REMARK  status: ('A' for Active; 'I' for Inactive)
REMARK    1  A    between atoms: C2_2  and  S1_4 
REMARK    2  A    between atoms: S1_4  and  C3_5 
REMARK    3  A    between atoms: C3_5  and  C4_6 
REMARK    4  A    between atoms: C4_6  and  N1_7 
REMARK       I    between atoms: N1_7  and  C5_8 
REMARK    5  A    between atoms: C5_8  and  C6_10 
REMARK    6  A    between atoms: C6_10  and  C7_11 
REMARK    7  A    between atoms: C7_11  and  N2_12 
REMARK       I    between atoms: N2_12  and  C8_13 
REMARK    8  A    between atoms: C8_13  and  C9_15 
REMARK    9  A    between atoms: C9_15  and  C10_16 
REMARK   10  A    between atoms: C9_15  and  O17_54 
REMARK   11  A    between atoms: C10_16  and  C13_19 
REMARK   12  A    between atoms: C13_19  and  O4_20 
REMARK   13  A    between atoms: O4_20  and  P1_21 
REMARK   14  A    between atoms: P1_21  and  O6_23 
REMARK   15  A    between atoms: P1_21  and  O7_24 
REMARK   16  A    between atoms: O7_24  and  P2_25 
REMARK   17  A    between atoms: P2_25  and  O9_27 
REMARK   18  A    between atoms: P2_25  and  O10_28 
REMARK   19  A    between atoms: O10_28  and  C14_29 
REMARK   20  A    between atoms: C14_29  and  C15_30 
REMARK   21  A    between atoms: C16_31  and  O13_49 
REMARK   22  A    between atoms: C17_32  and  O12_48 
REMARK   23  A    between atoms: C18_33  and  N3_35 
REMARK   24  A    between atoms: C21_40  and  N7_47 
REMARK   25  A    between atoms: O13_49  and  P3_50 
REMARK   26  A    between atoms: P3_50  and  O15_52 
REMARK   27  A    between atoms: P3_50  and  O16_53 
ROOT
HETATM    1  C1  UNL     1       9.588  11.753  -8.025  1.00  0.00     0.104 C 
HETATM    2  C2  UNL     1      11.071  11.940  -7.918  1.00  0.00     0.182 C 
HETATM    3  O1  UNL     1      11.689  11.837  -6.861  1.00  0.00    -0.286 OA
ENDROOT
BRANCH   2   4
HETATM    4  S1  UNL     1      11.860  12.361  -9.432  1.00  0.00    -0.091 SA
BRANCH   4   5
HETATM    5  C3  UNL     1      13.558  12.658  -8.840  1.00  0.00     0.102 C 
BRANCH   5   6
HETATM    6  C4  UNL     1      14.600  12.334  -9.912  1.00  0.00     0.133 C 
BRANCH   6   7
HETATM    7  N1  UNL     1      14.753  13.397 -10.884  1.00  0.00    -0.360 N 
HETATM    8  C5  UNL     1      14.418  13.224 -12.206  1.00  0.00     0.219 C 
HETATM    9  O2  UNL     1      14.049  12.146 -12.658  1.00  0.00    -0.274 OA
HETATM   10  H8  UNL     1      15.110  14.291 -10.574  1.00  0.00     0.162 HD
BRANCH   8  11
HETATM   11  C6  UNL     1      14.601  14.473 -13.040  1.00  0.00     0.122 C 
BRANCH  11  12
HETATM   12  C7  UNL     1      13.445  14.683 -14.017  1.00  0.00     0.132 C 
BRANCH  12  13
HETATM   13  N2  UNL     1      12.633  15.838 -13.695  1.00  0.00    -0.358 N 
HETATM   14  C8  UNL     1      11.333  15.675 -13.254  1.00  0.00     0.247 C 
HETATM   15  O3  UNL     1      10.785  14.580 -13.231  1.00  0.00    -0.271 OA
HETATM   16  H13 UNL     1      13.142  16.650 -13.353  1.00  0.00     0.162 HD
BRANCH  14  17
HETATM   17  C9  UNL     1      10.646  16.964 -12.780  1.00  0.00     0.219 C 
BRANCH  17  18
HETATM   18  C10 UNL     1      10.443  17.058 -11.245  1.00  0.00     0.009 C 
HETATM   19  C11 UNL     1      11.217  15.967 -10.491  1.00  0.00     0.020 C 
HETATM   20  C12 UNL     1      10.896  18.427 -10.698  1.00  0.00     0.020 C 
BRANCH  18  21
HETATM   21  C13 UNL     1       8.916  16.876 -11.005  1.00  0.00     0.192 C 
BRANCH  21  22
HETATM   22  O4  UNL     1       8.476  15.568 -11.307  1.00  0.00    -0.296 OA
BRANCH  22  23
HETATM   23  P1  UNL     1       7.054  14.997 -10.835  1.00  0.00     0.401 P 
HETATM   24  O5  UNL     1       6.243  15.964 -10.032  1.00  0.00    -0.631 OA
BRANCH  23  25
HETATM   25  O6  UNL     1       7.340  13.604 -10.079  1.00  0.00    -0.307 OA
HETATM   26  H23 UNL     1       7.167  12.843 -10.648  1.00  0.00     0.222 HD
ENDBRANCH  23  25
BRANCH  23  27
HETATM   27  O7  UNL     1       6.353  14.487 -12.168  1.00  0.00    -0.195 OA
BRANCH  27  28
HETATM   28  P2  UNL     1       6.883  13.151 -12.856  1.00  0.00     0.401 P 
HETATM   29  O8  UNL     1       6.601  12.982 -14.313  1.00  0.00    -0.631 OA
BRANCH  28  30
HETATM   30  O9  UNL     1       8.437  13.143 -12.488  1.00  0.00    -0.307 OA
HETATM   31  H24 UNL     1       8.732  12.336 -11.999  1.00  0.00     0.222 HD
ENDBRANCH  28  30
BRANCH  28  32
HETATM   32  O10 UNL     1       6.349  11.988 -11.901  1.00  0.00    -0.294 OA
BRANCH  32  33
HETATM   33  C14 UNL     1       6.702  10.653 -12.156  1.00  0.00     0.215 C 
BRANCH  33  34
HETATM   34  C15 UNL     1       7.763  10.287 -11.120  1.00  0.00     0.180 C 
HETATM   35  C16 UNL     1       8.781   9.338 -11.739  1.00  0.00     0.197 C 
HETATM   36  C17 UNL     1       8.661   8.062 -10.927  1.00  0.00     0.199 C 
HETATM   37  C18 UNL     1       8.119   8.579  -9.592  1.00  0.00     0.262 C 
HETATM   38  O11 UNL     1       7.216   9.645  -9.963  1.00  0.00    -0.353 OA
BRANCH  35  39
HETATM   39  O13 UNL     1      10.069   9.932 -11.617  1.00  0.00    -0.286 OA
BRANCH  39  40
HETATM   40  P3  UNL     1      10.851  10.170 -12.992  1.00  0.00     0.391 P 
HETATM   41  O14 UNL     1      12.034   9.275 -13.175  1.00  0.00    -0.632 OA
BRANCH  40  42
HETATM   42  O15 UNL     1      11.119  11.745 -12.915  1.00  0.00    -0.307 OA
HETATM   43  H36 UNL     1      10.345  12.248 -13.263  1.00  0.00     0.222 HD
ENDBRANCH  40  42
BRANCH  40  44
HETATM   44  O16 UNL     1       9.670  10.055 -14.050  1.00  0.00    -0.307 OA
HETATM   45  H37 UNL     1       9.265  10.913 -14.257  1.00  0.00     0.222 HD
ENDBRANCH  40  44
ENDBRANCH  39  40
ENDBRANCH  35  39
BRANCH  36  46
HETATM   46  O12 UNL     1       9.911   7.369 -10.904  1.00  0.00    -0.388 OA
HETATM   47  H35 UNL     1       9.962   6.916 -10.029  1.00  0.00     0.210 HD
ENDBRANCH  36  46
BRANCH  37  48
HETATM   48  N3  UNL     1       7.375   7.570  -8.865  1.00  0.00    -0.297 N 
HETATM   49  C19 UNL     1       7.575   7.164  -7.566  1.00  0.00     0.188 A 
HETATM   50  N4  UNL     1       6.652   6.321  -7.160  1.00  0.00    -0.346 N 
HETATM   51  C20 UNL     1       5.808   6.176  -8.247  1.00  0.00     0.116 A 
HETATM   52  H4  UNL     1       6.574   5.873  -6.246  1.00  0.00     0.167 HD
HETATM   53  C21 UNL     1       4.619   5.452  -8.440  1.00  0.00     0.109 A 
HETATM   54  C23 UNL     1       6.266   6.914  -9.323  1.00  0.00     0.142 A 
HETATM   55  N5  UNL     1       4.017   5.505  -9.653  1.00  0.00    -0.341 N 
HETATM   56  C22 UNL     1       4.592   6.249 -10.619  1.00  0.00     0.183 A 
HETATM   57  H5  UNL     1       3.151   4.996  -9.830  1.00  0.00     0.167 HD
HETATM   58  N6  UNL     1       5.718   6.989 -10.548  1.00  0.00    -0.336 N 
HETATM   59  H6  UNL     1       6.102   7.532 -11.321  1.00  0.00     0.168 HD
BRANCH  53  60
HETATM   60  N7  UNL     1       4.032   4.674  -7.455  1.00  0.00    -0.287 NA
HETATM   61  H33 UNL     1       4.690   4.125  -6.906  1.00  0.00     0.125 HD
HETATM   62  H34 UNL     1       3.197   4.199  -7.773  1.00  0.00     0.125 HD
ENDBRANCH  53  60
ENDBRANCH  37  48
ENDBRANCH  33  34
ENDBRANCH  32  33
ENDBRANCH  28  32
ENDBRANCH  27  28
ENDBRANCH  23  27
ENDBRANCH  22  23
ENDBRANCH  21  22
ENDBRANCH  18  21
ENDBRANCH  17  18
BRANCH  17  63
HETATM   63  O17 UNL     1      11.394  18.107 -13.210  1.00  0.00    -0.385 OA
HETATM   64  H38 UNL     1      11.033  18.890 -12.762  1.00  0.00     0.210 HD
ENDBRANCH  17  63
ENDBRANCH  14  17
ENDBRANCH  12  13
ENDBRANCH  11  12
ENDBRANCH   8  11
ENDBRANCH   6   7
ENDBRANCH   5   6
ENDBRANCH   4   5
ENDBRANCH   2   4
TORSDOF 27
ENDMDL
MODEL 15
REMARK VINA RESULT:      -5.9      6.795     12.002
REMARK  27 active torsions:
REMARK  status: ('A' for Active; 'I' for Inactive)
REMARK    1  A    between atoms: C2_2  and  S1_4 
REMARK    2  A    between atoms: S1_4  and  C3_5 
REMARK    3  A    between atoms: C3_5  and  C4_6 
REMARK    4  A    between atoms: C4_6  and  N1_7 
REMARK       I    between atoms: N1_7  and  C5_8 
REMARK    5  A    between atoms: C5_8  and  C6_10 
REMARK    6  A    between atoms: C6_10  and  C7_11 
REMARK    7  A    between atoms: C7_11  and  N2_12 
REMARK       I    between atoms: N2_12  and  C8_13 
REMARK    8  A    between atoms: C8_13  and  C9_15 
REMARK    9  A    between atoms: C9_15  and  C10_16 
REMARK   10  A    between atoms: C9_15  and  O17_54 
REMARK   11  A    between atoms: C10_16  and  C13_19 
REMARK   12  A    between atoms: C13_19  and  O4_20 
REMARK   13  A    between atoms: O4_20  and  P1_21 
REMARK   14  A    between atoms: P1_21  and  O6_23 
REMARK   15  A    between atoms: P1_21  and  O7_24 
REMARK   16  A    between atoms: O7_24  and  P2_25 
REMARK   17  A    between atoms: P2_25  and  O9_27 
REMARK   18  A    between atoms: P2_25  and  O10_28 
REMARK   19  A    between atoms: O10_28  and  C14_29 
REMARK   20  A    between atoms: C14_29  and  C15_30 
REMARK   21  A    between atoms: C16_31  and  O13_49 
REMARK   22  A    between atoms: C17_32  and  O12_48 
REMARK   23  A    between atoms: C18_33  and  N3_35 
REMARK   24  A    between atoms: C21_40  and  N7_47 
REMARK   25  A    between atoms: O13_49  and  P3_50 
REMARK   26  A    between atoms: P3_50  and  O15_52 
REMARK   27  A    between atoms: P3_50  and  O16_53 
ROOT
HETATM    1  C1  UNL     1       9.251  17.244 -15.739  1.00  0.00     0.104 C 
HETATM    2  C2  UNL     1      10.453  16.528 -15.204  1.00  0.00     0.182 C 
HETATM    3  O1  UNL     1      10.385  15.610 -14.391  1.00  0.00    -0.286 OA
ENDROOT
BRANCH   2   4
HETATM    4  S1  UNL     1      11.988  17.136 -15.809  1.00  0.00    -0.091 SA
BRANCH   4   5
HETATM    5  C3  UNL     1      12.042  16.318 -17.436  1.00  0.00     0.102 C 
BRANCH   5   6
HETATM    6  C4  UNL     1      13.472  15.970 -17.853  1.00  0.00     0.133 C 
BRANCH   6   7
HETATM    7  N1  UNL     1      14.456  16.388 -16.876  1.00  0.00    -0.360 N 
HETATM    8  C5  UNL     1      15.482  15.561 -16.482  1.00  0.00     0.219 C 
HETATM    9  O2  UNL     1      15.581  14.402 -16.867  1.00  0.00    -0.274 OA
HETATM   10  H8  UNL     1      14.387  17.317 -16.482  1.00  0.00     0.162 HD
BRANCH   8  11
HETATM   11  C6  UNL     1      16.430  16.210 -15.496  1.00  0.00     0.122 C 
BRANCH  11  12
HETATM   12  C7  UNL     1      16.389  15.527 -14.130  1.00  0.00     0.132 C 
BRANCH  12  13
HETATM   13  N2  UNL     1      15.406  14.466 -14.055  1.00  0.00    -0.358 N 
HETATM   14  C8  UNL     1      14.259  14.630 -13.301  1.00  0.00     0.247 C 
HETATM   15  O3  UNL     1      14.085  15.608 -12.584  1.00  0.00    -0.271 OA
HETATM   16  H13 UNL     1      15.341  13.871 -14.879  1.00  0.00     0.162 HD
BRANCH  14  17
HETATM   17  C9  UNL     1      13.223  13.506 -13.450  1.00  0.00     0.219 C 
BRANCH  17  18
HETATM   18  C10 UNL     1      13.619  12.172 -12.765  1.00  0.00     0.009 C 
HETATM   19  C11 UNL     1      14.212  11.163 -13.761  1.00  0.00     0.020 C 
HETATM   20  C12 UNL     1      14.655  12.397 -11.645  1.00  0.00     0.020 C 
BRANCH  18  21
HETATM   21  C13 UNL     1      12.307  11.598 -12.158  1.00  0.00     0.192 C 
BRANCH  21  22
HETATM   22  O4  UNL     1      11.434  11.089 -13.146  1.00  0.00    -0.296 OA
BRANCH  22  23
HETATM   23  P1  UNL     1      10.747   9.645 -13.041  1.00  0.00     0.401 P 
HETATM   24  O5  UNL     1      11.683   8.502 -13.278  1.00  0.00    -0.631 OA
BRANCH  23  25
HETATM   25  O6  UNL     1       9.478   9.660 -14.031  1.00  0.00    -0.307 OA
HETATM   26  H23 UNL     1       9.031   8.804 -14.061  1.00  0.00     0.222 HD
ENDBRANCH  23  25
BRANCH  23  27
HETATM   27  O7  UNL     1      10.030   9.633 -11.621  1.00  0.00    -0.195 OA
BRANCH  27  28
HETATM   28  P2  UNL     1       8.995   8.468 -11.290  1.00  0.00     0.401 P 
HETATM   29  O8  UNL     1       8.789   7.427 -12.341  1.00  0.00    -0.631 OA
BRANCH  28  30
HETATM   30  O9  UNL     1       9.524   7.893  -9.898  1.00  0.00    -0.307 OA
HETATM   31  H24 UNL     1       9.324   8.469  -9.120  1.00  0.00     0.222 HD
ENDBRANCH  28  30
BRANCH  28  32
HETATM   32  O10 UNL     1       7.684   9.242 -10.808  1.00  0.00    -0.294 OA
BRANCH  32  33
HETATM   33  C14 UNL     1       6.883   9.917 -11.743  1.00  0.00     0.215 C 
BRANCH  33  34
HETATM   34  C15 UNL     1       6.921  11.393 -11.350  1.00  0.00     0.180 C 
HETATM   35  C16 UNL     1       7.417  12.226 -12.524  1.00  0.00     0.197 C 
HETATM   36  C17 UNL     1       8.702  12.862 -12.029  1.00  0.00     0.199 C 
HETATM   37  C18 UNL     1       8.488  12.883 -10.513  1.00  0.00     0.262 C 
HETATM   38  O11 UNL     1       7.782  11.653 -10.236  1.00  0.00    -0.353 OA
BRANCH  35  39
HETATM   39  O13 UNL     1       6.421  13.197 -12.829  1.00  0.00    -0.286 OA
BRANCH  39  40
HETATM   40  P3  UNL     1       5.874  13.175 -14.331  1.00  0.00     0.391 P 
HETATM   41  O14 UNL     1       6.049  14.470 -15.055  1.00  0.00    -0.632 OA
BRANCH  40  42
HETATM   42  O15 UNL     1       4.379  12.653 -14.097  1.00  0.00    -0.307 OA
HETATM   43  H36 UNL     1       4.278  12.279 -13.190  1.00  0.00     0.222 HD
ENDBRANCH  40  42
BRANCH  40  44
HETATM   44  O16 UNL     1       6.615  11.896 -14.918  1.00  0.00    -0.307 OA
HETATM   45  H37 UNL     1       7.578  12.008 -14.965  1.00  0.00     0.222 HD
ENDBRANCH  40  44
ENDBRANCH  39  40
ENDBRANCH  35  39
BRANCH  36  46
HETATM   46  O12 UNL     1       8.917  14.117 -12.679  1.00  0.00    -0.388 OA
HETATM   47  H35 UNL     1       9.669  13.982 -13.303  1.00  0.00     0.210 HD
ENDBRANCH  36  46
BRANCH  37  48
HETATM   48  N3  UNL     1       9.736  12.881  -9.775  1.00  0.00    -0.297 N 
HETATM   49  C19 UNL     1      10.271  11.841  -9.051  1.00  0.00     0.188 A 
HETATM   50  N4  UNL     1      11.477  12.114  -8.604  1.00  0.00    -0.346 N 
HETATM   51  C20 UNL     1      11.739  13.393  -9.065  1.00  0.00     0.116 A 
HETATM   52  H4  UNL     1      12.085  11.517  -8.043  1.00  0.00     0.167 HD
HETATM   53  C21 UNL     1      12.863  14.230  -8.964  1.00  0.00     0.109 A 
HETATM   54  C23 UNL     1      10.653  13.894  -9.758  1.00  0.00     0.142 A 
HETATM   55  N5  UNL     1      12.807  15.462  -9.526  1.00  0.00    -0.341 N 
HETATM   56  C22 UNL     1      11.670  15.827 -10.152  1.00  0.00     0.183 A 
HETATM   57  H5  UNL     1      13.604  16.097  -9.476  1.00  0.00     0.167 HD
HETATM   58  N6  UNL     1      10.540  15.111 -10.320  1.00  0.00    -0.336 N 
HETATM   59  H6  UNL     1       9.709  15.447 -10.807  1.00  0.00     0.168 HD
BRANCH  53  60
HETATM   60  N7  UNL     1      14.029  13.866  -8.308  1.00  0.00    -0.287 NA
HETATM   61  H33 UNL     1      14.614  13.214  -8.826  1.00  0.00     0.125 HD
HETATM   62  H34 UNL     1      13.884  13.670  -7.327  1.00  0.00     0.125 HD
ENDBRANCH  53  60
ENDBRANCH  37  48
ENDBRANCH  33  34
ENDBRANCH  32  33
ENDBRANCH  28  32
ENDBRANCH  27  28
ENDBRANCH  23  27
ENDBRANCH  22  23
ENDBRANCH  21  22
ENDBRANCH  18  21
ENDBRANCH  17  18
BRANCH  17  63
HETATM   63  O17 UNL     1      11.959  13.928 -12.927  1.00  0.00    -0.385 OA
HETATM   64  H38 UNL     1      11.929  14.899 -12.958  1.00  0.00     0.210 HD
ENDBRANCH  17  63
ENDBRANCH  14  17
ENDBRANCH  12  13
ENDBRANCH  11  12
ENDBRANCH   8  11
ENDBRANCH   6   7
ENDBRANCH   5   6
ENDBRANCH   4   5
ENDBRANCH   2   4
TORSDOF 27
ENDMDL
MODEL 16
REMARK VINA RESULT:      -5.8      4.620      7.000
REMARK  27 active torsions:
REMARK  status: ('A' for Active; 'I' for Inactive)
REMARK    1  A    between atoms: C2_2  and  S1_4 
REMARK    2  A    between atoms: S1_4  and  C3_5 
REMARK    3  A    between atoms: C3_5  and  C4_6 
REMARK    4  A    between atoms: C4_6  and  N1_7 
REMARK       I    between atoms: N1_7  and  C5_8 
REMARK    5  A    between atoms: C5_8  and  C6_10 
REMARK    6  A    between atoms: C6_10  and  C7_11 
REMARK    7  A    between atoms: C7_11  and  N2_12 
REMARK       I    between atoms: N2_12  and  C8_13 
REMARK    8  A    between atoms: C8_13  and  C9_15 
REMARK    9  A    between atoms: C9_15  and  C10_16 
REMARK   10  A    between atoms: C9_15  and  O17_54 
REMARK   11  A    between atoms: C10_16  and  C13_19 
REMARK   12  A    between atoms: C13_19  and  O4_20 
REMARK   13  A    between atoms: O4_20  and  P1_21 
REMARK   14  A    between atoms: P1_21  and  O6_23 
REMARK   15  A    between atoms: P1_21  and  O7_24 
REMARK   16  A    between atoms: O7_24  and  P2_25 
REMARK   17  A    between atoms: P2_25  and  O9_27 
REMARK   18  A    between atoms: P2_25  and  O10_28 
REMARK   19  A    between atoms: O10_28  and  C14_29 
REMARK   20  A    between atoms: C14_29  and  C15_30 
REMARK   21  A    between atoms: C16_31  and  O13_49 
REMARK   22  A    between atoms: C17_32  and  O12_48 
REMARK   23  A    between atoms: C18_33  and  N3_35 
REMARK   24  A    between atoms: C21_40  and  N7_47 
REMARK   25  A    between atoms: O13_49  and  P3_50 
REMARK   26  A    between atoms: P3_50  and  O15_52 
REMARK   27  A    between atoms: P3_50  and  O16_53 
ROOT
HETATM    1  C1  UNL     1      -0.090  14.129  -6.168  1.00  0.00     0.104 C 
HETATM    2  C2  UNL     1      -0.430  14.758  -7.485  1.00  0.00     0.182 C 
HETATM    3  O1  UNL     1      -1.519  14.620  -8.038  1.00  0.00    -0.286 OA
ENDROOT
BRANCH   2   4
HETATM    4  S1  UNL     1       0.879  15.686  -8.204  1.00  0.00    -0.091 SA
BRANCH   4   5
HETATM    5  C3  UNL     1       0.368  17.374  -7.746  1.00  0.00     0.102 C 
BRANCH   5   6
HETATM    6  C4  UNL     1      -0.413  18.058  -8.870  1.00  0.00     0.133 C 
BRANCH   6   7
HETATM    7  N1  UNL     1      -0.924  17.119  -9.848  1.00  0.00    -0.360 N 
HETATM    8  C5  UNL     1      -0.543  17.168 -11.168  1.00  0.00     0.219 C 
HETATM    9  O2  UNL     1       0.183  18.050 -11.613  1.00  0.00    -0.274 OA
HETATM   10  H8  UNL     1      -1.573  16.405  -9.544  1.00  0.00     0.162 HD
BRANCH   8  11
HETATM   11  C6  UNL     1      -1.148  16.065 -12.009  1.00  0.00     0.122 C 
BRANCH  11  12
HETATM   12  C7  UNL     1      -0.544  16.019 -13.412  1.00  0.00     0.132 C 
BRANCH  12  13
HETATM   13  N2  UNL     1       0.826  15.552 -13.425  1.00  0.00    -0.358 N 
HETATM   14  C8  UNL     1       1.806  16.286 -14.067  1.00  0.00     0.247 C 
HETATM   15  O3  UNL     1       1.545  17.275 -14.739  1.00  0.00    -0.271 OA
HETATM   16  H13 UNL     1       1.110  15.005 -12.615  1.00  0.00     0.162 HD
BRANCH  14  17
HETATM   17  C9  UNL     1       3.239  15.773 -13.854  1.00  0.00     0.219 C 
BRANCH  17  18
HETATM   18  C10 UNL     1       3.676  14.659 -14.841  1.00  0.00     0.009 C 
HETATM   19  C11 UNL     1       3.652  13.268 -14.191  1.00  0.00     0.020 C 
HETATM   20  C12 UNL     1       2.767  14.617 -16.086  1.00  0.00     0.020 C 
BRANCH  18  21
HETATM   21  C13 UNL     1       5.131  15.012 -15.265  1.00  0.00     0.192 C 
BRANCH  21  22
HETATM   22  O4  UNL     1       6.097  14.355 -14.470  1.00  0.00    -0.296 OA
BRANCH  22  23
HETATM   23  P1  UNL     1       7.280  15.133 -13.718  1.00  0.00     0.401 P 
HETATM   24  O5  UNL     1       6.817  16.267 -12.858  1.00  0.00    -0.631 OA
BRANCH  23  25
HETATM   25  O6  UNL     1       8.344  15.566 -14.846  1.00  0.00    -0.307 OA
HETATM   26  H23 UNL     1       8.108  15.221 -15.717  1.00  0.00     0.222 HD
ENDBRANCH  23  25
BRANCH  23  27
HETATM   27  O7  UNL     1       8.091  14.002 -12.947  1.00  0.00    -0.195 OA
BRANCH  27  28
HETATM   28  P2  UNL     1       7.289  12.792 -12.291  1.00  0.00     0.401 P 
HETATM   29  O8  UNL     1       6.088  13.140 -11.473  1.00  0.00    -0.631 OA
BRANCH  28  30
HETATM   30  O9  UNL     1       6.976  11.842 -13.535  1.00  0.00    -0.307 OA
HETATM   31  H24 UNL     1       7.781  11.514 -14.005  1.00  0.00     0.222 HD
ENDBRANCH  28  30
BRANCH  28  32
HETATM   32  O10 UNL     1       8.417  11.940 -11.547  1.00  0.00    -0.294 OA
BRANCH  32  33
HETATM   33  C14 UNL     1       8.200  11.477 -10.240  1.00  0.00     0.215 C 
BRANCH  33  34
HETATM   34  C15 UNL     1       9.002  10.184 -10.107  1.00  0.00     0.180 C 
HETATM   35  C16 UNL     1       8.963   9.415 -11.421  1.00  0.00     0.197 C 
HETATM   36  C17 UNL     1       8.271   8.108 -11.081  1.00  0.00     0.199 C 
HETATM   37  C18 UNL     1       8.565   7.967  -9.586  1.00  0.00     0.262 C 
HETATM   38  O11 UNL     1       8.501   9.319  -9.081  1.00  0.00    -0.353 OA
BRANCH  35  39
HETATM   39  O13 UNL     1      10.304   9.216 -11.856  1.00  0.00    -0.286 OA
BRANCH  39  40
HETATM   40  P3  UNL     1      10.690   9.912 -13.242  1.00  0.00     0.391 P 
HETATM   41  O14 UNL     1      11.822   9.248 -13.956  1.00  0.00    -0.632 OA
BRANCH  40  42
HETATM   42  O15 UNL     1      10.899  11.426 -12.768  1.00  0.00    -0.307 OA
HETATM   43  H36 UNL     1      11.140  12.001 -13.533  1.00  0.00     0.222 HD
ENDBRANCH  40  42
BRANCH  40  44
HETATM   44  O16 UNL     1       9.280   9.954 -13.976  1.00  0.00    -0.307 OA
HETATM   45  H37 UNL     1       8.554  10.206 -13.384  1.00  0.00     0.222 HD
ENDBRANCH  40  44
ENDBRANCH  39  40
ENDBRANCH  35  39
BRANCH  36  46
HETATM   46  O12 UNL     1       8.734   7.064 -11.943  1.00  0.00    -0.388 OA
HETATM   47  H35 UNL     1       7.928   6.649 -12.333  1.00  0.00     0.210 HD
ENDBRANCH  36  46
BRANCH  37  48
HETATM   48  N3  UNL     1       7.573   7.165  -8.897  1.00  0.00    -0.297 N 
HETATM   49  C19 UNL     1       7.526   6.875  -7.554  1.00  0.00     0.188 A 
HETATM   50  N4  UNL     1       6.429   6.229  -7.222  1.00  0.00    -0.346 N 
HETATM   51  C20 UNL     1       5.729   6.098  -8.408  1.00  0.00     0.116 A 
HETATM   52  H4  UNL     1       6.156   5.898  -6.297  1.00  0.00     0.167 HD
HETATM   53  C21 UNL     1       4.474   5.545  -8.717  1.00  0.00     0.109 A 
HETATM   54  C23 UNL     1       6.444   6.638  -9.461  1.00  0.00     0.142 A 
HETATM   55  N5  UNL     1       4.059   5.558 -10.008  1.00  0.00    -0.341 N 
HETATM   56  C22 UNL     1       4.875   6.099 -10.934  1.00  0.00     0.183 A 
HETATM   57  H5  UNL     1       3.153   5.170 -10.270  1.00  0.00     0.167 HD
HETATM   58  N6  UNL     1       6.087   6.664 -10.757  1.00  0.00    -0.336 N 
HETATM   59  H6  UNL     1       6.657   7.057 -11.506  1.00  0.00     0.168 HD
BRANCH  53  60
HETATM   60  N7  UNL     1       3.638   4.974  -7.771  1.00  0.00    -0.287 NA
HETATM   61  H33 UNL     1       2.893   4.402  -8.161  1.00  0.00     0.125 HD
HETATM   62  H34 UNL     1       3.381   5.616  -7.033  1.00  0.00     0.125 HD
ENDBRANCH  53  60
ENDBRANCH  37  48
ENDBRANCH  33  34
ENDBRANCH  32  33
ENDBRANCH  28  32
ENDBRANCH  27  28
ENDBRANCH  23  27
ENDBRANCH  22  23
ENDBRANCH  21  22
ENDBRANCH  18  21
ENDBRANCH  17  18
BRANCH  17  63
HETATM   63  O17 UNL     1       4.169  16.857 -13.950  1.00  0.00    -0.385 OA
HETATM   64  H38 UNL     1       3.664  17.680 -14.052  1.00  0.00     0.210 HD
ENDBRANCH  17  63
ENDBRANCH  14  17
ENDBRANCH  12  13
ENDBRANCH  11  12
ENDBRANCH   8  11
ENDBRANCH   6   7
ENDBRANCH   5   6
ENDBRANCH   4   5
ENDBRANCH   2   4
TORSDOF 27
ENDMDL
MODEL 17
REMARK VINA RESULT:      -5.6      4.707      9.003
REMARK  27 active torsions:
REMARK  status: ('A' for Active; 'I' for Inactive)
REMARK    1  A    between atoms: C2_2  and  S1_4 
REMARK    2  A    between atoms: S1_4  and  C3_5 
REMARK    3  A    between atoms: C3_5  and  C4_6 
REMARK    4  A    between atoms: C4_6  and  N1_7 
REMARK       I    between atoms: N1_7  and  C5_8 
REMARK    5  A    between atoms: C5_8  and  C6_10 
REMARK    6  A    between atoms: C6_10  and  C7_11 
REMARK    7  A    between atoms: C7_11  and  N2_12 
REMARK       I    between atoms: N2_12  and  C8_13 
REMARK    8  A    between atoms: C8_13  and  C9_15 
REMARK    9  A    between atoms: C9_15  and  C10_16 
REMARK   10  A    between atoms: C9_15  and  O17_54 
REMARK   11  A    between atoms: C10_16  and  C13_19 
REMARK   12  A    between atoms: C13_19  and  O4_20 
REMARK   13  A    between atoms: O4_20  and  P1_21 
REMARK   14  A    between atoms: P1_21  and  O6_23 
REMARK   15  A    between atoms: P1_21  and  O7_24 
REMARK   16  A    between atoms: O7_24  and  P2_25 
REMARK   17  A    between atoms: P2_25  and  O9_27 
REMARK   18  A    between atoms: P2_25  and  O10_28 
REMARK   19  A    between atoms: O10_28  and  C14_29 
REMARK   20  A    between atoms: C14_29  and  C15_30 
REMARK   21  A    between atoms: C16_31  and  O13_49 
REMARK   22  A    between atoms: C17_32  and  O12_48 
REMARK   23  A    between atoms: C18_33  and  N3_35 
REMARK   24  A    between atoms: C21_40  and  N7_47 
REMARK   25  A    between atoms: O13_49  and  P3_50 
REMARK   26  A    between atoms: P3_50  and  O15_52 
REMARK   27  A    between atoms: P3_50  and  O16_53 
ROOT
HETATM    1  C1  UNL     1       6.847   6.911  -6.602  1.00  0.00     0.104 C 
HETATM    2  C2  UNL     1       5.854   6.666  -7.696  1.00  0.00     0.182 C 
HETATM    3  O1  UNL     1       4.665   6.963  -7.608  1.00  0.00    -0.286 OA
ENDROOT
BRANCH   2   4
HETATM    4  S1  UNL     1       6.522   5.874  -9.117  1.00  0.00    -0.091 SA
BRANCH   4   5
HETATM    5  C3  UNL     1       7.816   7.072  -9.577  1.00  0.00     0.102 C 
BRANCH   5   6
HETATM    6  C4  UNL     1       7.845   7.328 -11.085  1.00  0.00     0.133 C 
BRANCH   6   7
HETATM    7  N1  UNL     1       8.265   8.675 -11.415  1.00  0.00    -0.360 N 
HETATM    8  C5  UNL     1       9.491   8.932 -11.984  1.00  0.00     0.219 C 
HETATM    9  O2  UNL     1      10.329   8.057 -12.169  1.00  0.00    -0.274 OA
HETATM   10  H8  UNL     1       7.632   9.441 -11.228  1.00  0.00     0.162 HD
BRANCH   8  11
HETATM   11  C6  UNL     1       9.709  10.396 -12.300  1.00  0.00     0.122 C 
BRANCH  11  12
HETATM   12  C7  UNL     1      10.601  11.078 -11.263  1.00  0.00     0.132 C 
BRANCH  12  13
HETATM   13  N2  UNL     1      11.305  12.228 -11.789  1.00  0.00    -0.358 N 
HETATM   14  C8  UNL     1      12.410  12.057 -12.602  1.00  0.00     0.247 C 
HETATM   15  O3  UNL     1      12.902  10.955 -12.810  1.00  0.00    -0.271 OA
HETATM   16  H13 UNL     1      10.735  13.056 -11.946  1.00  0.00     0.162 HD
BRANCH  14  17
HETATM   17  C9  UNL     1      12.952  13.349 -13.232  1.00  0.00     0.219 C 
BRANCH  17  18
HETATM   18  C10 UNL     1      13.865  14.186 -12.298  1.00  0.00     0.009 C 
HETATM   19  C11 UNL     1      14.294  13.398 -11.051  1.00  0.00     0.020 C 
HETATM   20  C12 UNL     1      15.141  14.654 -13.025  1.00  0.00     0.020 C 
BRANCH  18  21
HETATM   21  C13 UNL     1      13.021  15.421 -11.871  1.00  0.00     0.192 C 
BRANCH  21  22
HETATM   22  O4  UNL     1      11.652  15.108 -11.710  1.00  0.00    -0.296 OA
BRANCH  22  23
HETATM   23  P1  UNL     1      10.866  15.323 -10.329  1.00  0.00     0.401 P 
HETATM   24  O5  UNL     1      10.710  16.757  -9.931  1.00  0.00    -0.631 OA
BRANCH  23  25
HETATM   25  O6  UNL     1      11.612  14.420  -9.224  1.00  0.00    -0.307 OA
HETATM   26  H23 UNL     1      11.264  14.575  -8.337  1.00  0.00     0.222 HD
ENDBRANCH  23  25
BRANCH  23  27
HETATM   27  O7  UNL     1       9.499  14.529 -10.507  1.00  0.00    -0.195 OA
BRANCH  27  28
HETATM   28  P2  UNL     1       8.580  14.850 -11.768  1.00  0.00     0.401 P 
HETATM   29  O8  UNL     1       8.376  16.290 -12.107  1.00  0.00    -0.631 OA
BRANCH  28  30
HETATM   30  O9  UNL     1       9.252  13.995 -12.937  1.00  0.00    -0.307 OA
HETATM   31  H24 UNL     1       8.690  13.251 -13.267  1.00  0.00     0.222 HD
ENDBRANCH  28  30
BRANCH  28  32
HETATM   32  O10 UNL     1       7.254  13.999 -11.506  1.00  0.00    -0.294 OA
BRANCH  32  33
HETATM   33  C14 UNL     1       6.007  14.641 -11.454  1.00  0.00     0.215 C 
BRANCH  33  34
HETATM   34  C15 UNL     1       4.961  13.533 -11.352  1.00  0.00     0.180 C 
HETATM   35  C16 UNL     1       4.605  13.031 -12.745  1.00  0.00     0.197 C 
HETATM   36  C17 UNL     1       3.129  13.344 -12.901  1.00  0.00     0.199 C 
HETATM   37  C18 UNL     1       2.649  13.373 -11.448  1.00  0.00     0.262 C 
HETATM   38  O11 UNL     1       3.750  13.964 -10.721  1.00  0.00    -0.353 OA
BRANCH  35  39
HETATM   39  O13 UNL     1       4.864  11.631 -12.789  1.00  0.00    -0.286 OA
BRANCH  39  40
HETATM   40  P3  UNL     1       5.866  11.152 -13.939  1.00  0.00     0.391 P 
HETATM   41  O14 UNL     1       6.502   9.826 -13.670  1.00  0.00    -0.632 OA
BRANCH  40  42
HETATM   42  O15 UNL     1       6.827  12.426 -14.049  1.00  0.00    -0.307 OA
HETATM   43  H36 UNL     1       6.430  13.113 -14.636  1.00  0.00     0.222 HD
ENDBRANCH  40  42
BRANCH  40  44
HETATM   44  O16 UNL     1       4.947  11.280 -15.231  1.00  0.00    -0.307 OA
HETATM   45  H37 UNL     1       4.002  11.329 -15.017  1.00  0.00     0.222 HD
ENDBRANCH  40  44
ENDBRANCH  39  40
ENDBRANCH  35  39
BRANCH  36  46
HETATM   46  O12 UNL     1       2.511  12.399 -13.778  1.00  0.00    -0.388 OA
HETATM   47  H35 UNL     1       2.485  12.822 -14.669  1.00  0.00     0.210 HD
ENDBRANCH  36  46
BRANCH  37  48
HETATM   48  N3  UNL     1       1.473  14.200 -11.266  1.00  0.00    -0.297 N 
HETATM   49  C19 UNL     1       0.603  14.633 -12.239  1.00  0.00     0.188 A 
HETATM   50  N4  UNL     1      -0.436  15.261 -11.735  1.00  0.00    -0.346 N 
HETATM   51  C20 UNL     1      -0.233  15.229 -10.366  1.00  0.00     0.116 A 
HETATM   52  H4  UNL     1      -1.218  15.679 -12.239  1.00  0.00     0.167 HD
HETATM   53  C21 UNL     1      -0.997  15.687  -9.279  1.00  0.00     0.109 A 
HETATM   54  C23 UNL     1       0.966  14.609 -10.064  1.00  0.00     0.142 A 
HETATM   55  N5  UNL     1      -0.511  15.512  -8.025  1.00  0.00    -0.341 N 
HETATM   56  C22 UNL     1       0.687  14.910  -7.883  1.00  0.00     0.183 A 
HETATM   57  H5  UNL     1      -1.038  15.828  -7.211  1.00  0.00     0.167 HD
HETATM   58  N6  UNL     1       1.499  14.425  -8.844  1.00  0.00    -0.336 N 
HETATM   59  H6  UNL     1       2.399  13.978  -8.668  1.00  0.00     0.168 HD
BRANCH  53  60
HETATM   60  N7  UNL     1      -2.221  16.320  -9.420  1.00  0.00    -0.287 NA
HETATM   61  H33 UNL     1      -2.417  17.019  -8.706  1.00  0.00     0.125 HD
HETATM   62  H34 UNL     1      -2.971  15.682  -9.650  1.00  0.00     0.125 HD
ENDBRANCH  53  60
ENDBRANCH  37  48
ENDBRANCH  33  34
ENDBRANCH  32  33
ENDBRANCH  28  32
ENDBRANCH  27  28
ENDBRANCH  23  27
ENDBRANCH  22  23
ENDBRANCH  21  22
ENDBRANCH  18  21
ENDBRANCH  17  18
BRANCH  17  63
HETATM   63  O17 UNL     1      13.681  13.046 -14.427  1.00  0.00    -0.385 OA
HETATM   64  H38 UNL     1      13.257  12.282 -14.853  1.00  0.00     0.210 HD
ENDBRANCH  17  63
ENDBRANCH  14  17
ENDBRANCH  12  13
ENDBRANCH  11  12
ENDBRANCH   8  11
ENDBRANCH   6   7
ENDBRANCH   5   6
ENDBRANCH   4   5
ENDBRANCH   2   4
TORSDOF 27
ENDMDL
MODEL 18
REMARK VINA RESULT:      -5.5      4.160      7.043
REMARK  27 active torsions:
REMARK  status: ('A' for Active; 'I' for Inactive)
REMARK    1  A    between atoms: C2_2  and  S1_4 
REMARK    2  A    between atoms: S1_4  and  C3_5 
REMARK    3  A    between atoms: C3_5  and  C4_6 
REMARK    4  A    between atoms: C4_6  and  N1_7 
REMARK       I    between atoms: N1_7  and  C5_8 
REMARK    5  A    between atoms: C5_8  and  C6_10 
REMARK    6  A    between atoms: C6_10  and  C7_11 
REMARK    7  A    between atoms: C7_11  and  N2_12 
REMARK       I    between atoms: N2_12  and  C8_13 
REMARK    8  A    between atoms: C8_13  and  C9_15 
REMARK    9  A    between atoms: C9_15  and  C10_16 
REMARK   10  A    between atoms: C9_15  and  O17_54 
REMARK   11  A    between atoms: C10_16  and  C13_19 
REMARK   12  A    between atoms: C13_19  and  O4_20 
REMARK   13  A    between atoms: O4_20  and  P1_21 
REMARK   14  A    between atoms: P1_21  and  O6_23 
REMARK   15  A    between atoms: P1_21  and  O7_24 
REMARK   16  A    between atoms: O7_24  and  P2_25 
REMARK   17  A    between atoms: P2_25  and  O9_27 
REMARK   18  A    between atoms: P2_25  and  O10_28 
REMARK   19  A    between atoms: O10_28  and  C14_29 
REMARK   20  A    between atoms: C14_29  and  C15_30 
REMARK   21  A    between atoms: C16_31  and  O13_49 
REMARK   22  A    between atoms: C17_32  and  O12_48 
REMARK   23  A    between atoms: C18_33  and  N3_35 
REMARK   24  A    between atoms: C21_40  and  N7_47 
REMARK   25  A    between atoms: O13_49  and  P3_50 
REMARK   26  A    between atoms: P3_50  and  O15_52 
REMARK   27  A    between atoms: P3_50  and  O16_53 
ROOT
HETATM    1  C1  UNL     1       7.781   9.257 -11.660  1.00  0.00     0.104 C 
HETATM    2  C2  UNL     1       7.976   9.981 -10.362  1.00  0.00     0.182 C 
HETATM    3  O1  UNL     1       8.114  11.199 -10.284  1.00  0.00    -0.286 OA
ENDROOT
BRANCH   2   4
HETATM    4  S1  UNL     1       8.033   8.935  -8.950  1.00  0.00    -0.091 SA
BRANCH   4   5
HETATM    5  C3  UNL     1       8.756   7.434  -9.687  1.00  0.00     0.102 C 
BRANCH   5   6
HETATM    6  C4  UNL     1       8.240   6.162  -9.012  1.00  0.00     0.133 C 
BRANCH   6   7
HETATM    7  N1  UNL     1       6.970   6.359  -8.343  1.00  0.00    -0.360 N 
HETATM    8  C5  UNL     1       6.039   5.352  -8.247  1.00  0.00     0.219 C 
HETATM    9  O2  UNL     1       6.189   4.260  -8.784  1.00  0.00    -0.274 OA
HETATM   10  H8  UNL     1       6.772   7.262  -7.932  1.00  0.00     0.162 HD
BRANCH   8  11
HETATM   11  C6  UNL     1       4.807   5.748  -7.462  1.00  0.00     0.122 C 
BRANCH  11  12
HETATM   12  C7  UNL     1       4.191   7.046  -7.984  1.00  0.00     0.132 C 
BRANCH  12  13
HETATM   13  N2  UNL     1       3.332   6.846  -9.132  1.00  0.00    -0.358 N 
HETATM   14  C8  UNL     1       3.847   6.941 -10.412  1.00  0.00     0.247 C 
HETATM   15  O3  UNL     1       4.995   7.308 -10.627  1.00  0.00    -0.271 OA
HETATM   16  H13 UNL     1       2.553   6.206  -8.990  1.00  0.00     0.162 HD
BRANCH  14  17
HETATM   17  C9  UNL     1       2.875   6.533 -11.529  1.00  0.00     0.219 C 
BRANCH  17  18
HETATM   18  C10 UNL     1       2.110   7.715 -12.180  1.00  0.00     0.009 C 
HETATM   19  C11 UNL     1       1.738   7.429 -13.642  1.00  0.00     0.020 C 
HETATM   20  C12 UNL     1       0.811   8.038 -11.414  1.00  0.00     0.020 C 
BRANCH  18  21
HETATM   21  C13 UNL     1       3.074   8.934 -12.114  1.00  0.00     0.192 C 
BRANCH  21  22
HETATM   22  O4  UNL     1       3.444   9.397 -13.397  1.00  0.00    -0.296 OA
BRANCH  22  23
HETATM   23  P1  UNL     1       3.011  10.834 -13.963  1.00  0.00     0.401 P 
HETATM   24  O5  UNL     1       1.734  11.359 -13.387  1.00  0.00    -0.631 OA
BRANCH  23  25
HETATM   25  O6  UNL     1       3.001  10.718 -15.568  1.00  0.00    -0.307 OA
HETATM   26  H23 UNL     1       3.658  10.087 -15.890  1.00  0.00     0.222 HD
ENDBRANCH  23  25
BRANCH  23  27
HETATM   27  O7  UNL     1       4.279  11.767 -13.728  1.00  0.00    -0.195 OA
BRANCH  27  28
HETATM   28  P2  UNL     1       4.559  12.956 -14.750  1.00  0.00     0.401 P 
HETATM   29  O8  UNL     1       5.195  12.593 -16.053  1.00  0.00    -0.631 OA
BRANCH  28  30
HETATM   30  O9  UNL     1       3.133  13.659 -14.895  1.00  0.00    -0.307 OA
HETATM   31  H24 UNL     1       2.450  13.099 -15.339  1.00  0.00     0.222 HD
ENDBRANCH  28  30
BRANCH  28  32
HETATM   32  O10 UNL     1       5.335  14.043 -13.874  1.00  0.00    -0.294 OA
BRANCH  32  33
HETATM   33  C14 UNL     1       6.616  14.469 -14.258  1.00  0.00     0.215 C 
BRANCH  33  34
HETATM   34  C15 UNL     1       7.190  15.225 -13.060  1.00  0.00     0.180 C 
HETATM   35  C16 UNL     1       7.851  14.244 -12.101  1.00  0.00     0.197 C 
HETATM   36  C17 UNL     1       7.058  14.371 -10.814  1.00  0.00     0.199 C 
HETATM   37  C18 UNL     1       6.493  15.790 -10.922  1.00  0.00     0.262 C 
HETATM   38  O11 UNL     1       6.196  15.949 -12.327  1.00  0.00    -0.353 OA
BRANCH  35  39
HETATM   39  O13 UNL     1       9.210  14.637 -11.935  1.00  0.00    -0.286 OA
BRANCH  39  40
HETATM   40  P3  UNL     1      10.289  13.468 -12.092  1.00  0.00     0.391 P 
HETATM   41  O14 UNL     1      11.458  13.838 -12.946  1.00  0.00    -0.632 OA
BRANCH  40  42
HETATM   42  O15 UNL     1       9.358  12.266 -12.590  1.00  0.00    -0.307 OA
HETATM   43  H36 UNL     1       8.412  12.448 -12.379  1.00  0.00     0.222 HD
ENDBRANCH  40  42
BRANCH  40  44
HETATM   44  O16 UNL     1      10.576  13.098 -10.572  1.00  0.00    -0.307 OA
HETATM   45  H37 UNL     1       9.873  12.557 -10.177  1.00  0.00     0.222 HD
ENDBRANCH  40  44
ENDBRANCH  39  40
ENDBRANCH  35  39
BRANCH  36  46
HETATM   46  O12 UNL     1       7.889  14.080  -9.688  1.00  0.00    -0.388 OA
HETATM   47  H35 UNL     1       8.684  13.614 -10.042  1.00  0.00     0.210 HD
ENDBRANCH  36  46
BRANCH  37  48
HETATM   48  N3  UNL     1       5.269  15.961 -10.165  1.00  0.00    -0.297 N 
HETATM   49  C19 UNL     1       5.050  16.833  -9.125  1.00  0.00     0.188 A 
HETATM   50  N4  UNL     1       3.795  16.836  -8.732  1.00  0.00    -0.346 N 
HETATM   51  C20 UNL     1       3.168  15.924  -9.562  1.00  0.00     0.116 A 
HETATM   52  H4  UNL     1       3.377  17.388  -7.983  1.00  0.00     0.167 HD
HETATM   53  C21 UNL     1       1.831  15.505  -9.680  1.00  0.00     0.109 A 
HETATM   54  C23 UNL     1       4.077  15.345 -10.428  1.00  0.00     0.142 A 
HETATM   55  N5  UNL     1       1.525  14.564 -10.606  1.00  0.00    -0.341 N 
HETATM   56  C22 UNL     1       2.522  14.070 -11.367  1.00  0.00     0.183 A 
HETATM   57  H5  UNL     1       0.566  14.238 -10.723  1.00  0.00     0.167 HD
HETATM   58  N6  UNL     1       3.830  14.399 -11.351  1.00  0.00    -0.336 N 
HETATM   59  H6  UNL     1       4.538  13.984 -11.958  1.00  0.00     0.168 HD
BRANCH  53  60
HETATM   60  N7  UNL     1       0.805  15.999  -8.890  1.00  0.00    -0.287 NA
HETATM   61  H33 UNL     1       1.087  16.740  -8.252  1.00  0.00     0.125 HD
HETATM   62  H34 UNL     1       0.214  15.271  -8.510  1.00  0.00     0.125 HD
ENDBRANCH  53  60
ENDBRANCH  37  48
ENDBRANCH  33  34
ENDBRANCH  32  33
ENDBRANCH  28  32
ENDBRANCH  27  28
ENDBRANCH  23  27
ENDBRANCH  22  23
ENDBRANCH  21  22
ENDBRANCH  18  21
ENDBRANCH  17  18
BRANCH  17  63
HETATM   63  O17 UNL     1       3.575   5.824 -12.557  1.00  0.00    -0.385 OA
HETATM   64  H38 UNL     1       4.308   6.383 -12.863  1.00  0.00     0.210 HD
ENDBRANCH  17  63
ENDBRANCH  14  17
ENDBRANCH  12  13
ENDBRANCH  11  12
ENDBRANCH   8  11
ENDBRANCH   6   7
ENDBRANCH   5   6
ENDBRANCH   4   5
ENDBRANCH   2   4
TORSDOF 27
ENDMDL
MODEL 19
REMARK VINA RESULT:      -5.4      5.363     10.277
REMARK  27 active torsions:
REMARK  status: ('A' for Active; 'I' for Inactive)
REMARK    1  A    between atoms: C2_2  and  S1_4 
REMARK    2  A    between atoms: S1_4  and  C3_5 
REMARK    3  A    between atoms: C3_5  and  C4_6 
REMARK    4  A    between atoms: C4_6  and  N1_7 
REMARK       I    between atoms: N1_7  and  C5_8 
REMARK    5  A    between atoms: C5_8  and  C6_10 
REMARK    6  A    between atoms: C6_10  and  C7_11 
REMARK    7  A    between atoms: C7_11  and  N2_12 
REMARK       I    between atoms: N2_12  and  C8_13 
REMARK    8  A    between atoms: C8_13  and  C9_15 
REMARK    9  A    between atoms: C9_15  and  C10_16 
REMARK   10  A    between atoms: C9_15  and  O17_54 
REMARK   11  A    between atoms: C10_16  and  C13_19 
REMARK   12  A    between atoms: C13_19  and  O4_20 
REMARK   13  A    between atoms: O4_20  and  P1_21 
REMARK   14  A    between atoms: P1_21  and  O6_23 
REMARK   15  A    between atoms: P1_21  and  O7_24 
REMARK   16  A    between atoms: O7_24  and  P2_25 
REMARK   17  A    between atoms: P2_25  and  O9_27 
REMARK   18  A    between atoms: P2_25  and  O10_28 
REMARK   19  A    between atoms: O10_28  and  C14_29 
REMARK   20  A    between atoms: C14_29  and  C15_30 
REMARK   21  A    between atoms: C16_31  and  O13_49 
REMARK   22  A    between atoms: C17_32  and  O12_48 
REMARK   23  A    between atoms: C18_33  and  N3_35 
REMARK   24  A    between atoms: C21_40  and  N7_47 
REMARK   25  A    between atoms: O13_49  and  P3_50 
REMARK   26  A    between atoms: P3_50  and  O15_52 
REMARK   27  A    between atoms: P3_50  and  O16_53 
ROOT
HETATM    1  C1  UNL     1       6.546  12.903 -12.881  1.00  0.00     0.104 C 
HETATM    2  C2  UNL     1       7.499  14.052 -12.747  1.00  0.00     0.182 C 
HETATM    3  O1  UNL     1       7.975  14.649 -13.710  1.00  0.00    -0.286 OA
ENDROOT
BRANCH   2   4
HETATM    4  S1  UNL     1       7.919  14.456 -11.088  1.00  0.00    -0.091 SA
BRANCH   4   5
HETATM    5  C3  UNL     1       9.642  15.004 -11.315  1.00  0.00     0.102 C 
BRANCH   5   6
HETATM    6  C4  UNL     1      10.602  13.821 -11.460  1.00  0.00     0.133 C 
BRANCH   6   7
HETATM    7  N1  UNL     1      10.477  12.864 -10.381  1.00  0.00    -0.360 N 
HETATM    8  C5  UNL     1      11.151  13.021  -9.192  1.00  0.00     0.219 C 
HETATM    9  O2  UNL     1      11.953  13.928  -9.003  1.00  0.00    -0.274 OA
HETATM   10  H8  UNL     1       9.871  12.064 -10.507  1.00  0.00     0.162 HD
BRANCH   8  11
HETATM   11  C6  UNL     1      10.839  11.941  -8.179  1.00  0.00     0.122 C 
BRANCH  11  12
HETATM   12  C7  UNL     1       9.347  11.877  -7.853  1.00  0.00     0.132 C 
BRANCH  12  13
HETATM   13  N2  UNL     1       8.770  10.570  -8.089  1.00  0.00    -0.358 N 
HETATM   14  C8  UNL     1       8.242  10.255  -9.327  1.00  0.00     0.247 C 
HETATM   15  O3  UNL     1       8.132  11.086 -10.220  1.00  0.00    -0.271 OA
HETATM   16  H13 UNL     1       9.175   9.809  -7.548  1.00  0.00     0.162 HD
BRANCH  14  17
HETATM   17  C9  UNL     1       7.826   8.785  -9.495  1.00  0.00     0.219 C 
BRANCH  17  18
HETATM   18  C10 UNL     1       7.700   8.317 -10.968  1.00  0.00     0.009 C 
HETATM   19  C11 UNL     1       6.938   9.332 -11.834  1.00  0.00     0.020 C 
HETATM   20  C12 UNL     1       9.084   8.090 -11.610  1.00  0.00     0.020 C 
BRANCH  18  21
HETATM   21  C13 UNL     1       6.915   6.975 -10.924  1.00  0.00     0.192 C 
BRANCH  21  22
HETATM   22  O4  UNL     1       5.811   6.968 -11.806  1.00  0.00    -0.296 OA
BRANCH  22  23
HETATM   23  P1  UNL     1       4.291   7.019 -11.297  1.00  0.00     0.401 P 
HETATM   24  O5  UNL     1       4.142   7.001  -9.809  1.00  0.00    -0.631 OA
BRANCH  23  25
HETATM   25  O6  UNL     1       3.510   5.824 -12.043  1.00  0.00    -0.307 OA
HETATM   26  H23 UNL     1       2.962   6.148 -12.768  1.00  0.00     0.222 HD
ENDBRANCH  23  25
BRANCH  23  27
HETATM   27  O7  UNL     1       3.661   8.293 -12.013  1.00  0.00    -0.195 OA
BRANCH  27  28
HETATM   28  P2  UNL     1       2.166   8.210 -12.557  1.00  0.00     0.401 P 
HETATM   29  O8  UNL     1       1.946   7.433 -13.815  1.00  0.00    -0.631 OA
BRANCH  28  30
HETATM   30  O9  UNL     1       1.348   7.660 -11.301  1.00  0.00    -0.307 OA
HETATM   31  H24 UNL     1       0.401   7.456 -11.494  1.00  0.00     0.222 HD
ENDBRANCH  28  30
BRANCH  28  32
HETATM   32  O10 UNL     1       1.679   9.730 -12.582  1.00  0.00    -0.294 OA
BRANCH  32  33
HETATM   33  C14 UNL     1       2.568  10.746 -12.967  1.00  0.00     0.215 C 
BRANCH  33  34
HETATM   34  C15 UNL     1       1.787  12.056 -12.868  1.00  0.00     0.180 C 
HETATM   35  C16 UNL     1       2.211  12.994 -13.991  1.00  0.00     0.197 C 
HETATM   36  C17 UNL     1       2.806  14.197 -13.282  1.00  0.00     0.199 C 
HETATM   37  C18 UNL     1       2.105  14.149 -11.922  1.00  0.00     0.262 C 
HETATM   38  O11 UNL     1       1.996  12.739 -11.627  1.00  0.00    -0.353 OA
BRANCH  35  39
HETATM   39  O13 UNL     1       1.052  13.333 -14.744  1.00  0.00    -0.286 OA
BRANCH  39  40
HETATM   40  P3  UNL     1       1.092  12.930 -16.290  1.00  0.00     0.391 P 
HETATM   41  O14 UNL     1       1.740  11.609 -16.552  1.00  0.00    -0.632 OA
BRANCH  40  42
HETATM   42  O15 UNL     1       1.778  14.230 -16.921  1.00  0.00    -0.307 OA
HETATM   43  H36 UNL     1       2.741  14.076 -17.074  1.00  0.00     0.222 HD
ENDBRANCH  40  42
BRANCH  40  44
HETATM   44  O16 UNL     1      -0.436  13.094 -16.698  1.00  0.00    -0.307 OA
HETATM   45  H37 UNL     1      -0.587  13.839 -17.301  1.00  0.00     0.222 HD
ENDBRANCH  40  44
ENDBRANCH  39  40
ENDBRANCH  35  39
BRANCH  36  46
HETATM   46  O12 UNL     1       2.627  15.376 -14.072  1.00  0.00    -0.388 OA
HETATM   47  H35 UNL     1       1.658  15.448 -14.248  1.00  0.00     0.210 HD
ENDBRANCH  36  46
BRANCH  37  48
HETATM   48  N3  UNL     1       2.879  14.786 -10.875  1.00  0.00    -0.297 N 
HETATM   49  C19 UNL     1       4.137  14.437 -10.443  1.00  0.00     0.188 A 
HETATM   50  N4  UNL     1       4.617  15.291  -9.565  1.00  0.00    -0.346 N 
HETATM   51  C20 UNL     1       3.622  16.242  -9.424  1.00  0.00     0.116 A 
HETATM   52  H4  UNL     1       5.520  15.259  -9.092  1.00  0.00     0.167 HD
HETATM   53  C21 UNL     1       3.536  17.427  -8.673  1.00  0.00     0.109 A 
HETATM   54  C23 UNL     1       2.524  15.920 -10.201  1.00  0.00     0.142 A 
HETATM   55  N5  UNL     1       2.396  18.157  -8.740  1.00  0.00    -0.341 N 
HETATM   56  C22 UNL     1       1.395  17.707  -9.523  1.00  0.00     0.183 A 
HETATM   57  H5  UNL     1       2.298  19.024  -8.212  1.00  0.00     0.167 HD
HETATM   58  N6  UNL     1       1.366  16.599 -10.291  1.00  0.00    -0.336 N 
HETATM   59  H6  UNL     1       0.572  16.313 -10.864  1.00  0.00     0.168 HD
BRANCH  53  60
HETATM   60  N7  UNL     1       4.556  17.887  -7.854  1.00  0.00    -0.287 NA
HETATM   61  H33 UNL     1       5.247  17.180  -7.610  1.00  0.00     0.125 HD
HETATM   62  H34 UNL     1       4.224  18.478  -7.105  1.00  0.00     0.125 HD
ENDBRANCH  53  60
ENDBRANCH  37  48
ENDBRANCH  33  34
ENDBRANCH  32  33
ENDBRANCH  28  32
ENDBRANCH  27  28
ENDBRANCH  23  27
ENDBRANCH  22  23
ENDBRANCH  21  22
ENDBRANCH  18  21
ENDBRANCH  17  18
BRANCH  17  63
HETATM   63  O17 UNL     1       8.759   7.930  -8.825  1.00  0.00    -0.385 OA
HETATM   64  H38 UNL     1       8.275   7.427  -8.148  1.00  0.00     0.210 HD
ENDBRANCH  17  63
ENDBRANCH  14  17
ENDBRANCH  12  13
ENDBRANCH  11  12
ENDBRANCH   8  11
ENDBRANCH   6   7
ENDBRANCH   5   6
ENDBRANCH   4   5
ENDBRANCH   2   4
TORSDOF 27
ENDMDL
MODEL 20
REMARK VINA RESULT:      -5.3      7.219     12.496
REMARK  27 active torsions:
REMARK  status: ('A' for Active; 'I' for Inactive)
REMARK    1  A    between atoms: C2_2  and  S1_4 
REMARK    2  A    between atoms: S1_4  and  C3_5 
REMARK    3  A    between atoms: C3_5  and  C4_6 
REMARK    4  A    between atoms: C4_6  and  N1_7 
REMARK       I    between atoms: N1_7  and  C5_8 
REMARK    5  A    between atoms: C5_8  and  C6_10 
REMARK    6  A    between atoms: C6_10  and  C7_11 
REMARK    7  A    between atoms: C7_11  and  N2_12 
REMARK       I    between atoms: N2_12  and  C8_13 
REMARK    8  A    between atoms: C8_13  and  C9_15 
REMARK    9  A    between atoms: C9_15  and  C10_16 
REMARK   10  A    between atoms: C9_15  and  O17_54 
REMARK   11  A    between atoms: C10_16  and  C13_19 
REMARK   12  A    between atoms: C13_19  and  O4_20 
REMARK   13  A    between atoms: O4_20  and  P1_21 
REMARK   14  A    between atoms: P1_21  and  O6_23 
REMARK   15  A    between atoms: P1_21  and  O7_24 
REMARK   16  A    between atoms: O7_24  and  P2_25 
REMARK   17  A    between atoms: P2_25  and  O9_27 
REMARK   18  A    between atoms: P2_25  and  O10_28 
REMARK   19  A    between atoms: O10_28  and  C14_29 
REMARK   20  A    between atoms: C14_29  and  C15_30 
REMARK   21  A    between atoms: C16_31  and  O13_49 
REMARK   22  A    between atoms: C17_32  and  O12_48 
REMARK   23  A    between atoms: C18_33  and  N3_35 
REMARK   24  A    between atoms: C21_40  and  N7_47 
REMARK   25  A    between atoms: O13_49  and  P3_50 
REMARK   26  A    between atoms: P3_50  and  O15_52 
REMARK   27  A    between atoms: P3_50  and  O16_53 
ROOT
HETATM    1  C1  UNL     1      16.828  18.476  -3.735  1.00  0.00     0.104 C 
HETATM    2  C2  UNL     1      17.418  17.293  -4.440  1.00  0.00     0.182 C 
HETATM    3  O1  UNL     1      16.821  16.658  -5.307  1.00  0.00    -0.286 OA
ENDROOT
BRANCH   2   4
HETATM    4  S1  UNL     1      19.032  16.855  -3.896  1.00  0.00    -0.091 SA
BRANCH   4   5
HETATM    5  C3  UNL     1      20.028  17.532  -5.263  1.00  0.00     0.102 C 
BRANCH   5   6
HETATM    6  C4  UNL     1      20.409  16.453  -6.280  1.00  0.00     0.133 C 
BRANCH   6   7
HETATM    7  N1  UNL     1      19.504  15.322  -6.260  1.00  0.00    -0.360 N 
HETATM    8  C5  UNL     1      19.034  14.751  -7.419  1.00  0.00     0.219 C 
HETATM    9  O2  UNL     1      19.283  15.209  -8.529  1.00  0.00    -0.274 OA
HETATM   10  H8  UNL     1      19.220  14.942  -5.367  1.00  0.00     0.162 HD
BRANCH   8  11
HETATM   11  C6  UNL     1      18.147  13.548  -7.178  1.00  0.00     0.122 C 
BRANCH  11  12
HETATM   12  C7  UNL     1      18.257  12.523  -8.306  1.00  0.00     0.132 C 
BRANCH  12  13
HETATM   13  N2  UNL     1      17.845  13.047  -9.591  1.00  0.00    -0.358 N 
HETATM   14  C8  UNL     1      16.553  12.850 -10.043  1.00  0.00     0.247 C 
HETATM   15  O3  UNL     1      15.755  12.139  -9.445  1.00  0.00    -0.271 OA
HETATM   16  H13 UNL     1      18.318  13.898  -9.889  1.00  0.00     0.162 HD
BRANCH  14  17
HETATM   17  C9  UNL     1      16.199  13.606 -11.332  1.00  0.00     0.219 C 
BRANCH  17  18
HETATM   18  C10 UNL     1      15.176  14.756 -11.143  1.00  0.00     0.009 C 
HETATM   19  C11 UNL     1      15.269  15.388  -9.746  1.00  0.00     0.020 C 
HETATM   20  C12 UNL     1      15.383  15.874 -12.185  1.00  0.00     0.020 C 
BRANCH  18  21
HETATM   21  C13 UNL     1      13.772  14.115 -11.333  1.00  0.00     0.192 C 
BRANCH  21  22
HETATM   22  O4  UNL     1      12.919  14.349 -10.231  1.00  0.00    -0.296 OA
BRANCH  22  23
HETATM   23  P1  UNL     1      12.160  13.171  -9.451  1.00  0.00     0.401 P 
HETATM   24  O5  UNL     1      12.777  12.811  -8.137  1.00  0.00    -0.631 OA
BRANCH  23  25
HETATM   25  O6  UNL     1      12.045  11.934 -10.475  1.00  0.00    -0.307 OA
HETATM   26  H23 UNL     1      11.157  11.851 -10.844  1.00  0.00     0.222 HD
ENDBRANCH  23  25
BRANCH  23  27
HETATM   27  O7  UNL     1      10.644  13.644  -9.367  1.00  0.00    -0.195 OA
BRANCH  27  28
HETATM   28  P2  UNL     1       9.820  13.834 -10.717  1.00  0.00     0.401 P 
HETATM   29  O8  UNL     1       8.791  14.917 -10.736  1.00  0.00    -0.631 OA
BRANCH  28  30
HETATM   30  O9  UNL     1      10.961  14.001 -11.822  1.00  0.00    -0.307 OA
HETATM   31  H24 UNL     1      11.623  13.268 -11.831  1.00  0.00     0.222 HD
ENDBRANCH  28  30
BRANCH  28  32
HETATM   32  O10 UNL     1       9.293  12.366 -11.058  1.00  0.00    -0.294 OA
BRANCH  32  33
HETATM   33  C14 UNL     1       8.589  11.630 -10.092  1.00  0.00     0.215 C 
BRANCH  33  34
HETATM   34  C15 UNL     1       9.169  10.217 -10.124  1.00  0.00     0.180 C 
HETATM   35  C16 UNL     1       9.238   9.722 -11.563  1.00  0.00     0.197 C 
HETATM   36  C17 UNL     1       8.324   8.512 -11.597  1.00  0.00     0.199 C 
HETATM   37  C18 UNL     1       8.346   8.049 -10.138  1.00  0.00     0.262 C 
HETATM   38  O11 UNL     1       8.391   9.276  -9.376  1.00  0.00    -0.353 OA
BRANCH  35  39
HETATM   39  O13 UNL     1      10.591   9.381 -11.847  1.00  0.00    -0.286 OA
BRANCH  39  40
HETATM   40  P3  UNL     1      11.125   9.824 -13.287  1.00  0.00     0.391 P 
HETATM   41  O14 UNL     1      12.274   9.006 -13.783  1.00  0.00    -0.632 OA
BRANCH  40  42
HETATM   42  O15 UNL     1      11.379  11.385 -13.045  1.00  0.00    -0.307 OA
HETATM   43  H36 UNL     1      10.533  11.847 -12.834  1.00  0.00     0.222 HD
ENDBRANCH  40  42
BRANCH  40  44
HETATM   44  O16 UNL     1       9.784   9.804 -14.141  1.00  0.00    -0.307 OA
HETATM   45  H37 UNL     1       9.686   8.996 -14.670  1.00  0.00     0.222 HD
ENDBRANCH  40  44
ENDBRANCH  39  40
ENDBRANCH  35  39
BRANCH  36  46
HETATM   46  O12 UNL     1       8.770   7.581 -12.587  1.00  0.00    -0.388 OA
HETATM   47  H35 UNL     1       9.082   8.119 -13.354  1.00  0.00     0.210 HD
ENDBRANCH  36  46
BRANCH  37  48
HETATM   48  N3  UNL     1       7.152   7.315  -9.770  1.00  0.00    -0.297 N 
HETATM   49  C19 UNL     1       6.362   6.547 -10.592  1.00  0.00     0.188 A 
HETATM   50  N4  UNL     1       5.424   5.908  -9.927  1.00  0.00    -0.346 N 
HETATM   51  C20 UNL     1       5.618   6.277  -8.608  1.00  0.00     0.116 A 
HETATM   52  H4  UNL     1       4.712   5.280 -10.301  1.00  0.00     0.167 HD
HETATM   53  C21 UNL     1       4.978   5.909  -7.411  1.00  0.00     0.109 A 
HETATM   54  C23 UNL     1       6.661   7.179  -8.501  1.00  0.00     0.142 A 
HETATM   55  N5  UNL     1       5.403   6.465  -6.251  1.00  0.00    -0.341 N 
HETATM   56  C22 UNL     1       6.418   7.350  -6.302  1.00  0.00     0.183 A 
HETATM   57  H5  UNL     1       4.966   6.220  -5.362  1.00  0.00     0.167 HD
HETATM   58  N6  UNL     1       7.110   7.771  -7.380  1.00  0.00    -0.336 N 
HETATM   59  H6  UNL     1       7.872   8.448  -7.351  1.00  0.00     0.168 HD
BRANCH  53  60
HETATM   60  N7  UNL     1       3.925   5.010  -7.356  1.00  0.00    -0.287 NA
HETATM   61  H33 UNL     1       4.071   4.232  -6.716  1.00  0.00     0.125 HD
HETATM   62  H34 UNL     1       3.548   4.786  -8.267  1.00  0.00     0.125 HD
ENDBRANCH  53  60
ENDBRANCH  37  48
ENDBRANCH  33  34
ENDBRANCH  32  33
ENDBRANCH  28  32
ENDBRANCH  27  28
ENDBRANCH  23  27
ENDBRANCH  22  23
ENDBRANCH  21  22
ENDBRANCH  18  21
ENDBRANCH  17  18
BRANCH  17  63
HETATM   63  O17 UNL     1      17.384  14.144 -11.929  1.00  0.00    -0.385 OA
HETATM   64  H38 UNL     1      17.596  13.611 -12.713  1.00  0.00     0.210 HD
ENDBRANCH  17  63
ENDBRANCH  14  17
ENDBRANCH  12  13
ENDBRANCH  11  12
ENDBRANCH   8  11
ENDBRANCH   6   7
ENDBRANCH   5   6
ENDBRANCH   4   5
ENDBRANCH   2   4
TORSDOF 27
ENDMDL
